<event>
 7    1  0.2693725E-009  0.1341117E+03  0.7561462E-02  0.1221479E+00
          3   -1    0    0  501    0  0.00000000000E+00  0.00000000000E+00  0.98330511423E+02  0.98330511423E+02  0.00000000000E+00 0. -1.
         -3   -1    0    0    0  501 -0.00000000000E+00 -0.00000000000E+00 -0.29602341837E+03  0.29602341837E+03  0.00000000000E+00 0.  1.
         25    2    1    2    0    0  0.21917902006E+02 -0.83981920589E+02 -0.22078679577E+03  0.26819282734E+03  0.12508887255E+03 0.  0.
          5    1    3    3  502    0 -0.43693743523E+02  0.13747752918E+01 -0.53534751731E+02  0.69242149541E+02  0.41800000000E+01 0. -1.
         -5    1    3    3    0  502  0.65611645529E+02 -0.85356695881E+02 -0.16725204404E+03  0.19895067780E+03  0.41800000000E+01 0. -1.
        -11    1    1    2    0    0  0.24310810232E+02  0.46537033585E+01  0.23806881154E+02  0.34342976565E+02  0.00000000000E+00 0. -1.
         11    1    1    2    0    0 -0.46228712238E+02  0.79328217231E+02 -0.71299233377E+00  0.91818125891E+02  0.00000000000E+00 0.  1.
</event>
<event>
 7    1  0.2693725E-009  0.9377947E+02  0.7561462E-02  0.1293949E+00
          2   -1    0    0  501    0  0.00000000000E+00  0.00000000000E+00  0.11537758274E+03  0.11537758274E+03  0.00000000000E+00 0.  1.
         -2   -1    0    0    0  501 -0.00000000000E+00 -0.00000000000E+00 -0.10860730568E+03  0.10860730568E+03  0.00000000000E+00 0. -1.
         25    2    1    2    0    0 -0.14195476531E+02 -0.23045797637E+02  0.16998616016E+02  0.12910682214E+03  0.12508796199E+03 0.  0.
          5    1    3    3  502    0 -0.51839824268E+02 -0.54410236747E+02  0.24941975150E+02  0.79293226491E+02  0.41800000000E+01 0. -1.
         -5    1    3    3    0  502  0.37644347737E+02  0.31364439110E+02 -0.79433591334E+01  0.49813595650E+02  0.41800000000E+01 0. -1.
        -11    1    1    2    0    0  0.31854430670E+02 -0.26183103643E+01 -0.40396917612E+02  0.51511855480E+02  0.00000000000E+00 0. -1.
         11    1    1    2    0    0 -0.17658954139E+02  0.25664108001E+02  0.30168578660E+02  0.43366210800E+02  0.00000000000E+00 0.  1.
</event>
<event>
 7    1  0.2693725E-009  0.8361543E+02  0.7561462E-02  0.1319094E+00
          1   -1    0    0  501    0  0.00000000000E+00  0.00000000000E+00  0.65764416957E+02  0.65764416957E+02  0.00000000000E+00 0. -1.
         -1   -1    0    0    0  501 -0.00000000000E+00 -0.00000000000E+00 -0.19094755173E+03  0.19094755173E+03  0.00000000000E+00 0.  1.
         25    2    1    2    0    0 -0.19560521850E+02 -0.22928644667E+02 -0.79303664890E+02  0.15114356888E+03  0.12508785068E+03 0.  0.
          5    1    3    3  502    0 -0.51344651668E+02 -0.12048360539E+02  0.11581910059E+02  0.54157633693E+02  0.41800000000E+01 0. -1.
         -5    1    3    3    0  502  0.31784129818E+02 -0.10880284128E+02 -0.90885574948E+02  0.96985935190E+02  0.41800000000E+01 0. -1.
        -11    1    1    2    0    0  0.47864906568E+02  0.20479726585E+02 -0.54997385721E+02  0.75730977268E+02  0.00000000000E+00 0.  1.
         11    1    1    2    0    0 -0.28304384718E+02  0.24489180825E+01  0.91179158424E+01  0.29837422532E+02  0.00000000000E+00 0. -1.
</event>
<event>
 7    1  0.2693725E-009  0.9564546E+02  0.7561462E-02  0.1289729E+00
         -1   -1    0    0    0  501 -0.00000000000E+00  0.00000000000E+00  0.47863804998E+02  0.47863804998E+02  0.00000000000E+00 0.  1.
          1   -1    0    0  501    0  0.00000000000E+00 -0.00000000000E+00 -0.29303813615E+03  0.29303813615E+03  0.00000000000E+00 0. -1.
         25    2    1    2    0    0 -0.28016795619E+02  0.69531328552E+01 -0.19339488137E+03  0.23212589882E+03  0.12509023092E+03 0.  0.
          5    1    3    3  502    0 -0.17831799128E+02  0.50360874476E+02 -0.17617894788E+03  0.18414854008E+03  0.41800000000E+01 0. -1.
         -5    1    3    3    0  502 -0.10184996491E+02 -0.43407741621E+02 -0.17215933495E+02  0.47977358746E+02  0.41800000000E+01 0. -1.
        -11    1    1    2    0    0 -0.11135496439E+01 -0.44993891425E+02 -0.38045156233E+02  0.58933217892E+02  0.00000000000E+00 0.  1.
         11    1    1    2    0    0  0.29130345263E+02  0.38040758570E+02 -0.13734293545E+02  0.49842824427E+02  0.00000000000E+00 0. -1.
</event>
<event>
 7    1  0.2693725E-009  0.7626411E+02  0.7561462E-02  0.1340001E+00
          2   -1    0    0  501    0  0.00000000000E+00  0.00000000000E+00  0.28539584858E+03  0.28539584858E+03  0.00000000000E+00 0.  1.
         -2   -1    0    0    0  501 -0.00000000000E+00 -0.00000000000E+00 -0.43109813208E+02  0.43109813208E+02  0.00000000000E+00 0. -1.
         25    2    1    2    0    0 -0.14660616039E+02  0.15030469454E+02  0.11327016393E+03  0.17005332215E+03  0.12508858326E+03 0.  0.
          5    1    3    3  502    0 -0.32038856976E+02  0.36010875334E+02 -0.49769487836E+01  0.48636549197E+02  0.41800000000E+01 0.  1.
         -5    1    3    3    0  502  0.17378240937E+02 -0.20980405879E+02  0.11824711272E+03  0.12141677296E+03  0.41800000000E+01 0.  1.
        -11    1    1    2    0    0  0.41877484569E+02  0.58463138147E+01  0.11289060311E+03  0.12054953907E+03  0.00000000000E+00 0.  1.
         11    1    1    2    0    0 -0.27216868530E+02 -0.20876783269E+02  0.16125268329E+02  0.37902800569E+02  0.00000000000E+00 0. -1.
</event>
<event>
 7    1  0.2693725E-009  0.1131762E+03  0.7561462E-02  0.1254799E+00
          1   -1    0    0  501    0  0.00000000000E+00  0.00000000000E+00  0.82677414792E+02  0.82677414792E+02  0.00000000000E+00 0. -1.
         -1   -1    0    0    0  501 -0.00000000000E+00 -0.00000000000E+00 -0.16289883860E+03  0.16289883860E+03  0.00000000000E+00 0.  1.
         25    2    1    2    0    0 -0.39530263556E+02 -0.20620039695E+02 -0.47335207767E+02  0.14098312903E+03  0.12509113879E+03 0.  0.
          5    1    3    3  502    0 -0.54984302696E+02  0.37982452321E+02 -0.44041417931E+02  0.80143989922E+02  0.41800000000E+01 0. -1.
         -5    1    3    3    0  502  0.15454039140E+02 -0.58602492016E+02 -0.32937898355E+01  0.60839139110E+02  0.41800000000E+01 0. -1.
        -11    1    1    2    0    0  0.64842936634E+02 -0.17451280717E+01 -0.15908595507E+02  0.66788736433E+02  0.00000000000E+00 0. -1.
         11    1    1    2    0    0 -0.25312673078E+02  0.22365167767E+02 -0.16977620537E+02  0.37804387929E+02  0.00000000000E+00 0.  1.
</event>
<event>
 7    1  0.2693725E-009  0.1638798E+03  0.7561462E-02  0.1184385E+00
         -1   -1    0    0    0  501 -0.00000000000E+00  0.00000000000E+00  0.15095569078E+03  0.15095569078E+03  0.00000000000E+00 0.  1.
          1   -1    0    0  501    0  0.00000000000E+00 -0.00000000000E+00 -0.46646900837E+03  0.46646900837E+03  0.00000000000E+00 0. -1.
         25    2    1    2    0    0 -0.15740948744E+02  0.15069142729E+03  0.57188739515E+02  0.20463072825E+03  0.12508996479E+03 0.  0.
          5    1    3    3  502    0 -0.68151621405E+01  0.50281449988E+02 -0.39843469863E+02  0.64650175086E+02  0.41800000000E+01 0.  1.
         -5    1    3    3    0  502 -0.89257866035E+01  0.10040997730E+03  0.97032209378E+02  0.13998055316E+03  0.41800000000E+01 0.  1.
        -11    1    1    2    0    0  0.49824129486E+02 -0.54206492839E+02 -0.12998759139E+03  0.14939063445E+03  0.00000000000E+00 0.  1.
         11    1    1    2    0    0 -0.34083180742E+02 -0.96484934446E+02 -0.24271446572E+03  0.26340333645E+03  0.00000000000E+00 0. -1.
</event>
<event>
 7    1  0.2693725E-009  0.8988178E+02  0.7561462E-02  0.1303138E+00
         -4   -1    0    0    0  501 -0.00000000000E+00  0.00000000000E+00  0.25849401438E+03  0.25849401438E+03  0.00000000000E+00 0.  1.
          4   -1    0    0  501    0  0.00000000000E+00 -0.00000000000E+00 -0.65359663044E+02  0.65359663044E+02  0.00000000000E+00 0. -1.
         25    2    1    2    0    0  0.13826698712E+02 -0.16817432418E+02  0.19484192194E+03  0.23256205254E+03  0.12509088738E+03 0.  0.
          5    1    3    3  502    0 -0.46238434677E+02  0.13969300575E+02  0.37467457411E+02  0.61273297322E+02  0.41800000000E+01 0. -1.
         -5    1    3    3    0  502  0.60065133389E+02 -0.30786732993E+02  0.15737446453E+03  0.17128875522E+03  0.41800000000E+01 0. -1.
        -11    1    1    2    0    0 -0.36803566593E+02  0.31899105250E+01  0.31586996181E+02  0.48604694947E+02  0.00000000000E+00 0.  1.
         11    1    1    2    0    0  0.22976867882E+02  0.13627521893E+02 -0.33294566783E+02  0.42686929941E+02  0.00000000000E+00 0. -1.
</event>
<event>
 7    1  0.2693725E-009  0.9142254E+02  0.7561462E-02  0.1299443E+00
         -1   -1    0    0    0  501 -0.00000000000E+00  0.00000000000E+00  0.27238242900E+03  0.27238242900E+03  0.00000000000E+00 0.  1.
          1   -1    0    0  501    0  0.00000000000E+00 -0.00000000000E+00 -0.65282088972E+02  0.65282088972E+02  0.00000000000E+00 0. -1.
         25    2    1    2    0    0 -0.19466304263E+02  0.18268458367E+02  0.20662626533E+03  0.24301209183E+03  0.12509112550E+03 0.  0.
          5    1    3    3  502    0 -0.25990432717E+02 -0.30757925403E+02  0.12101616814E+02  0.42254870695E+02  0.41800000000E+01 0. -1.
         -5    1    3    3    0  502  0.65241284540E+01  0.49026383770E+02  0.19452464852E+03  0.20075722114E+03  0.41800000000E+01 0. -1.
        -11    1    1    2    0    0 -0.33332916123E+02 -0.21766496488E+02 -0.92020825646E+01  0.40860029248E+02  0.00000000000E+00 0. -1.
         11    1    1    2    0    0  0.52799220385E+02  0.34980381209E+01  0.96761572589E+01  0.53792396891E+02  0.00000000000E+00 0.  1.
</event>
<event>
 7    1  0.2693725E-009  0.7071712E+02  0.7561462E-02  0.1357671E+00
         -2   -1    0    0    0  501 -0.00000000000E+00  0.00000000000E+00  0.23691167256E+02  0.23691167256E+02  0.00000000000E+00 0.  1.
          2   -1    0    0  501    0  0.00000000000E+00 -0.00000000000E+00 -0.56657899745E+03  0.56657899745E+03  0.00000000000E+00 0. -1.
         25    2    1    2    0    0  0.26627809920E+02 -0.22919366427E+01 -0.38393476009E+03  0.40468202931E+03  0.12508937447E+03 0.  0.
          5    1    3    3  502    0  0.26603450638E+01 -0.26989516199E+02 -0.36330562191E+03  0.36434044345E+03  0.41800000000E+01 0. -1.
         -5    1    3    3    0  502  0.23967464856E+02  0.24697579557E+02 -0.20629138174E+02  0.40341585857E+02  0.41800000000E+01 0. -1.
        -11    1    1    2    0    0  0.21239752148E+02 -0.17506983428E+02 -0.12474161500E+02  0.30219633439E+02  0.00000000000E+00 0.  1.
         11    1    1    2    0    0 -0.47867562068E+02  0.19798920071E+02 -0.14647890861E+03  0.15536850196E+03  0.00000000000E+00 0. -1.
</event>
<event>
 7    1  0.2693725E-009  0.1526909E+03  0.7561462E-02  0.1197205E+00
         -1   -1    0    0    0  501 -0.00000000000E+00  0.00000000000E+00  0.56935258538E+02  0.56935258538E+02  0.00000000000E+00 0.  1.
          1   -1    0    0  501    0  0.00000000000E+00 -0.00000000000E+00 -0.50365378129E+03  0.50365378129E+03  0.00000000000E+00 0. -1.
         25    2    1    2    0    0  0.22776437404E+02 -0.12379643950E+03 -0.30149138018E+03  0.34984138603E+03  0.12509044137E+03 0.  0.
          5    1    3    3  502    0 -0.33279339839E+02 -0.16126470511E+02 -0.17823759056E+02  0.41264225404E+02  0.41800000000E+01 0. -1.
         -5    1    3    3    0  502  0.56055777243E+02 -0.10766996899E+03 -0.28366762112E+03  0.30857716062E+03  0.41800000000E+01 0. -1.
        -11    1    1    2    0    0  0.27155980224E+02  0.58584900430E+02 -0.93681581031E+02  0.11377994746E+03  0.00000000000E+00 0. -1.
         11    1    1    2    0    0 -0.49932417627E+02  0.65211539069E+02 -0.51545561543E+02  0.96967706339E+02  0.00000000000E+00 0.  1.
</event>
<event>
 7    1  0.2693725E-009  0.1113170E+03  0.7561462E-02  0.1258150E+00
         -1   -1    0    0    0  501 -0.00000000000E+00  0.00000000000E+00  0.42751511676E+02  0.42751511676E+02  0.00000000000E+00 0.  1.
          1   -1    0    0  501    0  0.00000000000E+00 -0.00000000000E+00 -0.29994736461E+03  0.29994736461E+03  0.00000000000E+00 0. -1.
         25    2    1    2    0    0 -0.19758607689E+02  0.22780005197E+02 -0.12242896376E+03  0.17760680171E+03  0.12508394633E+03 0.  0.
          5    1    3    3  502    0  0.41246451768E+02 -0.27289105172E+02 -0.46658275583E+02  0.68120717296E+02  0.41800000000E+01 0.  1.
         -5    1    3    3    0  502 -0.61005059457E+02  0.50069110369E+02 -0.75770688177E+02  0.10948608441E+03  0.41800000000E+01 0.  1.
        -11    1    1    2    0    0  0.31766377292E+02  0.27659168795E+02 -0.74575911163E+02  0.85648694505E+02  0.00000000000E+00 0.  1.
         11    1    1    2    0    0 -0.12007769603E+02 -0.50439173992E+02 -0.60190978007E+02  0.79443380072E+02  0.00000000000E+00 0. -1.
</event>
<event>
 7    1  0.2693725E-009  0.1341878E+03  0.7561462E-02  0.1221371E+00
         -2   -1    0    0    0  501 -0.00000000000E+00  0.00000000000E+00  0.73879457278E+02  0.73879457278E+02  0.00000000000E+00 0. -1.
          2   -1    0    0  501    0  0.00000000000E+00 -0.00000000000E+00 -0.41793264691E+03  0.41793264691E+03  0.00000000000E+00 0.  1.
         25    2    1    2    0    0 -0.25269113673E+02 -0.10517222845E+03 -0.61515216596E+02  0.17643978915E+03  0.12508857493E+03 0.  0.
          5    1    3    3  502    0  0.10957013513E+02 -0.87505972632E+02 -0.90644616876E+02  0.12653564857E+03  0.41800000000E+01 0.  1.
         -5    1    3    3    0  502 -0.36226127186E+02 -0.17666255822E+02  0.29129400279E+02  0.49904140573E+02  0.41800000000E+01 0.  1.
        -11    1    1    2    0    0  0.49326958463E+02  0.10443470535E+03 -0.24364111487E+03  0.26963076487E+03  0.00000000000E+00 0.  1.
         11    1    1    2    0    0 -0.24057844790E+02  0.73752310017E+00 -0.38896858169E+02  0.45741550167E+02  0.00000000000E+00 0. -1.
</event>
<event>
 7    1  0.2693725E-009  0.8331107E+02  0.7561462E-02  0.1319909E+00
          1   -1    0    0  501    0  0.00000000000E+00  0.00000000000E+00  0.33112558562E+03  0.33112558562E+03  0.00000000000E+00 0. -1.
         -1   -1    0    0    0  501 -0.00000000000E+00 -0.00000000000E+00 -0.45407494292E+02  0.45407494292E+02  0.00000000000E+00 0.  1.
         25    2    1    2    0    0 -0.50934183906E+02  0.24972556005E+02  0.16427259106E+03  0.21411854430E+03  0.12507336725E+03 0.  0.
          5    1    3    3  502    0 -0.24322671483E+02  0.23327048732E+02  0.17980247210E+03  0.18298126932E+03  0.41800000000E+01 0. -1.
         -5    1    3    3    0  502 -0.26611512422E+02  0.16455072728E+01 -0.15529881040E+02  0.31137274972E+02  0.41800000000E+01 0. -1.
        -11    1    1    2    0    0  0.72301451495E+02  0.66021071297E+00  0.67107372545E+02  0.98647530209E+02  0.00000000000E+00 0. -1.
         11    1    1    2    0    0 -0.21367267589E+02 -0.25632766718E+02  0.54338127726E+02  0.63767005408E+02  0.00000000000E+00 0.  1.
</event>
<event>
 7    1  0.2693725E-009  0.1004594E+03  0.7561462E-02  0.1279333E+00
          2   -1    0    0  501    0  0.00000000000E+00  0.00000000000E+00  0.54117145849E+03  0.54117145849E+03  0.00000000000E+00 0. -1.
         -2   -1    0    0    0  501 -0.00000000000E+00 -0.00000000000E+00 -0.21604261557E+02  0.21604261557E+02  0.00000000000E+00 0.  1.
         25    2    1    2    0    0 -0.33540552526E+00 -0.91142084618E+01  0.31221159215E+03  0.33645636762E+03  0.12507448879E+03 0.  0.
          5    1    3    3  502    0  0.24810627667E+02 -0.58946821044E+02  0.21425012370E+03  0.22363113124E+03  0.41800000000E+01 0.  1.
         -5    1    3    3    0  502 -0.25146033192E+02  0.49832612582E+02  0.97961468455E+02  0.11282523638E+03  0.41800000000E+01 0.  1.
        -11    1    1    2    0    0 -0.27002239718E+02 -0.25231294424E+02  0.14770193116E+03  0.15225504799E+03  0.00000000000E+00 0. -1.
         11    1    1    2    0    0  0.27337645243E+02  0.34345502885E+02  0.59653673615E+02  0.74064304437E+02  0.00000000000E+00 0.  1.
</event>
<event>
 7    1  0.2693725E-009  0.1372891E+03  0.7561462E-02  0.1217024E+00
          2   -1    0    0  501    0  0.00000000000E+00  0.00000000000E+00  0.59088515037E+02  0.59088515037E+02  0.00000000000E+00 0. -1.
         -2   -1    0    0    0  501 -0.00000000000E+00 -0.00000000000E+00 -0.34891137784E+03  0.34891137784E+03  0.00000000000E+00 0.  1.
         25    2    1    2    0    0  0.21060757418E+02  0.88008404029E+02 -0.18280066222E+03  0.23926943956E+03  0.12507896672E+03 0.  0.
          5    1    3    3  502    0  0.42162506942E+02  0.11171691544E+03 -0.12324045057E+03  0.17165088769E+03  0.41800000000E+01 0. -1.
         -5    1    3    3    0  502 -0.21101749524E+02 -0.23708511407E+02 -0.59560211643E+02  0.67618551871E+02  0.41800000000E+01 0. -1.
        -11    1    1    2    0    0  0.25700525950E+02 -0.27547725553E+01 -0.24927033117E+01  0.25967660190E+02  0.00000000000E+00 0.  1.
         11    1    1    2    0    0 -0.46761283368E+02 -0.85253631474E+02 -0.10452949728E+03  0.14276279313E+03  0.00000000000E+00 0. -1.
</event>
<event>
 7    1  0.2693725E-009  0.1699559E+03  0.7561462E-02  0.1177894E+00
          1   -1    0    0  501    0  0.00000000000E+00  0.00000000000E+00  0.79970836462E+03  0.79970836462E+03  0.00000000000E+00 0.  1.
         -1   -1    0    0    0  501 -0.00000000000E+00 -0.00000000000E+00 -0.40636747897E+02  0.40636747897E+02  0.00000000000E+00 0. -1.
         25    2    1    2    0    0 -0.13454048647E+03 -0.36500779153E+02  0.31810701630E+03  0.36915103794E+03  0.12508783160E+03 0.  0.
          5    1    3    3  502    0 -0.36457117690E+02 -0.68550406134E+02  0.18503265119E+03  0.20070583952E+03  0.41800000000E+01 0.  1.
         -5    1    3    3    0  502 -0.98083368776E+02  0.32049626981E+02  0.13307436511E+03  0.16844519842E+03  0.41800000000E+01 0.  1.
        -11    1    1    2    0    0  0.11352035945E+03 -0.36353914866E+01  0.24479702537E+03  0.26986231992E+03  0.00000000000E+00 0. -1.
         11    1    1    2    0    0  0.21020127014E+02  0.40136170639E+02  0.19616757505E+03  0.20133175466E+03  0.00000000000E+00 0.  1.
</event>
<event>
 7    1  0.2693725E-009  0.1056434E+03  0.7561462E-02  0.1268857E+00
          2   -1    0    0  501    0  0.00000000000E+00  0.00000000000E+00  0.30128771137E+03  0.30128771137E+03  0.00000000000E+00 0. -1.
         -2   -1    0    0    0  501 -0.00000000000E+00 -0.00000000000E+00 -0.49780106974E+02  0.49780106974E+02  0.00000000000E+00 0.  1.
         25    2    1    2    0    0  0.46899214867E+02 -0.34001509627E+02  0.13392911376E+03  0.19219791284E+03  0.12508953263E+03 0.  0.
          5    1    3    3  502    0 -0.30423831552E+02  0.10402648435E+02  0.83726043201E+02  0.89785006158E+02  0.41800000000E+01 0.  1.
         -5    1    3    3    0  502  0.77323046419E+02 -0.44404158062E+02  0.50203070561E+02  0.10241290668E+03  0.41800000000E+01 0.  1.
        -11    1    1    2    0    0  0.17827502334E+02  0.10778241499E+02 -0.20000960066E+01  0.20928227668E+02  0.00000000000E+00 0.  1.
         11    1    1    2    0    0 -0.64726717201E+02  0.23223268128E+02  0.11957858665E+03  0.13794167784E+03  0.00000000000E+00 0. -1.
</event>
<event>
 7    1  0.2693725E-009  0.1210581E+03  0.7561462E-02  0.1241362E+00
         -3   -1    0    0    0  501 -0.00000000000E+00  0.00000000000E+00  0.46219676427E+03  0.46219676427E+03  0.00000000000E+00 0.  1.
          3   -1    0    0  501    0  0.00000000000E+00 -0.00000000000E+00 -0.45363648263E+02  0.45363648263E+02  0.00000000000E+00 0. -1.
         25    2    1    2    0    0  0.28757701929E+02 -0.85091187132E+02  0.29307129883E+03  0.33106842489E+03  0.12509196701E+03 0.  0.
          5    1    3    3  502    0 -0.31522913552E+02 -0.20961158288E+02  0.19724950678E+03  0.20089276882E+03  0.41800000000E+01 0. -1.
         -5    1    3    3    0  502  0.60280615481E+02 -0.64130028844E+02  0.95821792049E+02  0.13017565607E+03  0.41800000000E+01 0. -1.
        -11    1    1    2    0    0 -0.13693242495E+02 -0.11669474474E+02 -0.84426542316E+00  0.18010949687E+02  0.00000000000E+00 0. -1.
         11    1    1    2    0    0 -0.15064459434E+02  0.96760661606E+02  0.12460608260E+03  0.15848103796E+03  0.00000000000E+00 0.  1.
</event>
<event>
 7    1  0.2693725E-009  0.1009840E+03  0.7561462E-02  0.1278240E+00
         -2   -1    0    0    0  501 -0.00000000000E+00  0.00000000000E+00  0.19234851514E+02  0.19234851514E+02  0.00000000000E+00 0.  1.
          2   -1    0    0  501    0  0.00000000000E+00 -0.00000000000E+00 -0.67253512320E+03  0.67253512320E+03  0.00000000000E+00 0. -1.
         25    2    1    2    0    0 -0.15572385626E+02  0.32792369968E+02 -0.35421834448E+03  0.37740576851E+03  0.12508652932E+03 0.  0.
          5    1    3    3  502    0 -0.63598116112E+02 -0.77157379412E+01 -0.21953981566E+03  0.22873446624E+03  0.41800000000E+01 0.  1.
         -5    1    3    3    0  502  0.48025730486E+02  0.40508107909E+02 -0.13467852882E+03  0.14867130228E+03  0.41800000000E+01 0.  1.
        -11    1    1    2    0    0  0.40499204457E+02 -0.28461854415E+02 -0.27505299655E+03  0.27947166874E+03  0.00000000000E+00 0. -1.
         11    1    1    2    0    0 -0.24926818831E+02 -0.43305155526E+01 -0.24028930661E+02  0.34892537464E+02  0.00000000000E+00 0.  1.
</event>
<event>
 7    1  0.2693725E-009  0.1525314E+03  0.7561462E-02  0.1197397E+00
          3   -1    0    0  501    0  0.00000000000E+00  0.00000000000E+00  0.19647658262E+03  0.19647658262E+03  0.00000000000E+00 0. -1.
         -3   -1    0    0    0  501 -0.00000000000E+00 -0.00000000000E+00 -0.14605652048E+03  0.14605652048E+03  0.00000000000E+00 0.  1.
         25    2    1    2    0    0 -0.84450060042E+02  0.75797275050E+02 -0.41895385859E+02  0.17400810644E+03  0.12508620309E+03 0.  0.
          5    1    3    3  502    0 -0.12593898088E+02  0.91938190028E+02 -0.37299757342E+02  0.10009985691E+03  0.41800000000E+01 0.  1.
         -5    1    3    3    0  502 -0.71856161955E+02 -0.16140914978E+02 -0.45956285173E+01  0.73908249530E+02  0.41800000000E+01 0.  1.
        -11    1    1    2    0    0  0.43331692787E+02 -0.85771641365E+02  0.48597506865E+02  0.10768531811E+03  0.00000000000E+00 0. -1.
         11    1    1    2    0    0  0.41118367256E+02  0.99743663143E+01  0.43717941137E+02  0.60839678553E+02  0.00000000000E+00 0.  1.
</event>
<event>
 7    1  0.2693725E-009  0.1503451E+03  0.7561462E-02  0.1200050E+00
         -1   -1    0    0    0  501 -0.00000000000E+00  0.00000000000E+00  0.80768037807E+02  0.80768037807E+02  0.00000000000E+00 0.  1.
          1   -1    0    0  501    0  0.00000000000E+00 -0.00000000000E+00 -0.37117690312E+03  0.37117690312E+03  0.00000000000E+00 0. -1.
         25    2    1    2    0    0 -0.98576002356E+02 -0.60355482460E+02 -0.63606447700E+02  0.18180546018E+03  0.12508969846E+03 0.  0.
          5    1    3    3  502    0 -0.12677258034E+03 -0.63116238243E+02 -0.52754773103E+02  0.15118030673E+03  0.41800000000E+01 0. -1.
         -5    1    3    3    0  502  0.28196577987E+02  0.27607557833E+01 -0.10851674596E+02  0.30625153456E+02  0.41800000000E+01 0. -1.
        -11    1    1    2    0    0  0.73619971660E+02  0.10159730994E+02 -0.64414231003E+02  0.98347920755E+02  0.00000000000E+00 0.  1.
         11    1    1    2    0    0  0.24956030696E+02  0.50195751466E+02 -0.16238818661E+03  0.17179155999E+03  0.00000000000E+00 0. -1.
</event>
<event>
 7    1  0.2711497E-009  0.1171619E+03  0.7561462E-02  0.1247854E+00
          1   -1    0    0  501    0  0.00000000000E+00  0.00000000000E+00  0.48705433662E+03  0.48705433662E+03  0.00000000000E+00 0. -1.
         -1   -1    0    0    0  501 -0.00000000000E+00 -0.00000000000E+00 -0.38017968726E+02  0.38017968726E+02  0.00000000000E+00 0.  1.
         25    2    1    2    0    0  0.43726745261E+02  0.49331976946E+02  0.15363561465E+03  0.20879223876E+03  0.12507847408E+03 0.  0.
          5    1    3    3  502    0  0.52973610220E+02  0.79671073397E+02  0.14804044103E+03  0.17631542160E+03  0.41800000000E+01 0.  1.
         -5    1    3    3    0  502 -0.92468649591E+01 -0.30339096451E+02  0.55951736244E+01  0.32476817161E+02  0.41800000000E+01 0.  1.
        -11    1    1    2    0    0 -0.64223511648E+01 -0.65568080311E+02  0.12743975702E+03  0.14346188142E+03  0.00000000000E+00 0.  1.
         11    1    1    2    0    0 -0.37304394096E+02  0.16236103365E+02  0.16796099622E+03  0.17281818516E+03  0.00000000000E+00 0. -1.
</event>
<event>
 7    1  0.2693725E-009  0.1109447E+03  0.7561462E-02  0.1258830E+00
          2   -1    0    0  501    0  0.00000000000E+00  0.00000000000E+00  0.52321924545E+03  0.52321924545E+03  0.00000000000E+00 0. -1.
         -2   -1    0    0    0  501 -0.00000000000E+00 -0.00000000000E+00 -0.27895443813E+02  0.27895443813E+02  0.00000000000E+00 0.  1.
         25    2    1    2    0    0 -0.10764129082E+02  0.31404252372E+02  0.35647902872E+03  0.37924482251E+03  0.12508894411E+03 0.  0.
          5    1    3    3  502    0 -0.37282804080E+02  0.71465420005E+02  0.23861990228E+03  0.25190125823E+03  0.41800000000E+01 0.  1.
         -5    1    3    3    0  502  0.26518674998E+02 -0.40061167633E+02  0.11785912645E+03  0.12734356428E+03  0.41800000000E+01 0.  1.
        -11    1    1    2    0    0  0.41787356321E+02 -0.42879164957E+02  0.53328580680E+02  0.80179445328E+02  0.00000000000E+00 0.  1.
         11    1    1    2    0    0 -0.31023227239E+02  0.11474912585E+02  0.85516192231E+02  0.91690421424E+02  0.00000000000E+00 0. -1.
</event>
<event>
 7    1  0.2693725E-009  0.1208038E+03  0.7561462E-02  0.1241777E+00
          3   -1    0    0  501    0  0.00000000000E+00  0.00000000000E+00  0.72647032809E+02  0.72647032809E+02  0.00000000000E+00 0. -1.
         -3   -1    0    0    0  501 -0.00000000000E+00 -0.00000000000E+00 -0.39905414786E+03  0.39905414786E+03  0.00000000000E+00 0.  1.
         25    2    1    2    0    0 -0.21048310365E+02  0.73351849415E+02 -0.24955123737E+02  0.14864203891E+03  0.12509265506E+03 0.  0.
          5    1    3    3  502    0  0.28012312713E+02  0.88583625856E+02 -0.42503666440E+01  0.93098262336E+02  0.41800000000E+01 0.  1.
         -5    1    3    3    0  502 -0.49060623078E+02 -0.15231776441E+02 -0.20704757093E+02  0.55543776579E+02  0.41800000000E+01 0.  1.
        -11    1    1    2    0    0 -0.14619871141E+02  0.94551019025E+00 -0.51823245694E+01  0.15539984222E+02  0.00000000000E+00 0. -1.
         11    1    1    2    0    0  0.35668181505E+02 -0.74297359605E+02 -0.29626966674E+03  0.30751915753E+03  0.00000000000E+00 0.  1.
</event>
<event>
 7    1  0.2693725E-009  0.1843724E+03  0.7561462E-02  0.1163637E+00
         -1   -1    0    0    0  501 -0.00000000000E+00  0.00000000000E+00  0.37725311594E+02  0.37725311594E+02  0.00000000000E+00 0.  1.
          1   -1    0    0  501    0  0.00000000000E+00 -0.00000000000E+00 -0.10909653259E+04  0.10909653259E+04  0.00000000000E+00 0. -1.
         25    2    1    2    0    0  0.46755058561E+02  0.16020398964E+03 -0.45437217505E+03  0.49995256513E+03  0.12508852915E+03 0.  0.
          5    1    3    3  502    0  0.25251507134E+01 -0.11907589863E+02 -0.12514124780E+03  0.12580131710E+03  0.41800000000E+01 0. -1.
         -5    1    3    3    0  502  0.44229907848E+02  0.17211157951E+03 -0.32923092725E+03  0.37415124804E+03  0.41800000000E+01 0. -1.
        -11    1    1    2    0    0 -0.32714233794E+02 -0.22502789863E+02 -0.56968949514E+02  0.69441038681E+02  0.00000000000E+00 0. -1.
         11    1    1    2    0    0 -0.14040824767E+02 -0.13770119978E+03 -0.54189888978E+03  0.55929703372E+03  0.00000000000E+00 0.  1.
</event>
<event>
 7    1  0.2693725E-009  0.7618986E+02  0.7561462E-02  0.1340226E+00
         -1   -1    0    0    0  501 -0.00000000000E+00  0.00000000000E+00  0.10737418431E+03  0.10737418431E+03  0.00000000000E+00 0.  1.
          1   -1    0    0  501    0  0.00000000000E+00 -0.00000000000E+00 -0.15040992029E+03  0.15040992029E+03  0.00000000000E+00 0. -1.
         25    2    1    2    0    0  0.39826702256E+02  0.39162403318E+02  0.17447960754E+02  0.13810060204E+03  0.12508990727E+03 0.  0.
          5    1    3    3  502    0  0.34416416604E+02  0.24041295982E+02  0.70695296555E+02  0.82327219067E+02  0.41800000000E+01 0.  1.
         -5    1    3    3    0  502  0.54102856522E+01  0.15121107336E+02 -0.53247335801E+02  0.55773382969E+02  0.41800000000E+01 0.  1.
        -11    1    1    2    0    0 -0.18022699859E+02  0.22129896724E+02 -0.44213148403E+02  0.52624638060E+02  0.00000000000E+00 0. -1.
         11    1    1    2    0    0 -0.21804002398E+02 -0.61292300043E+02 -0.16270548334E+02  0.67058864501E+02  0.00000000000E+00 0.  1.
</event>
<event>
 7    1  0.2693725E-009  0.1078518E+03  0.7561462E-02  0.1264601E+00
          1   -1    0    0  501    0  0.00000000000E+00  0.00000000000E+00  0.15623103248E+03  0.15623103248E+03  0.00000000000E+00 0. -1.
         -1   -1    0    0    0  501 -0.00000000000E+00 -0.00000000000E+00 -0.85483595258E+02  0.85483595258E+02  0.00000000000E+00 0.  1.
         25    2    1    2    0    0 -0.14038199963E+02  0.36896476033E+02  0.57116700933E+02  0.14307175348E+03  0.12509511628E+03 0.  0.
          5    1    3    3  502    0  0.50197297688E+02  0.35863630078E+01 -0.46940622887E+00  0.50500727094E+02  0.41800000000E+01 0.  1.
         -5    1    3    3    0  502 -0.64235497651E+02  0.33310113026E+02  0.57586107162E+02  0.92571026387E+02  0.41800000000E+01 0.  1.
        -11    1    1    2    0    0  0.48536887235E+02 -0.31357822518E+02  0.23429373707E+02  0.62354454595E+02  0.00000000000E+00 0. -1.
         11    1    1    2    0    0 -0.34498687272E+02 -0.55386535154E+01 -0.97986374192E+01  0.36288419661E+02  0.00000000000E+00 0.  1.
</event>
<event>
 7    1  0.2693725E-009  0.9534154E+02  0.7561462E-02  0.1290409E+00
         -2   -1    0    0    0  501 -0.00000000000E+00  0.00000000000E+00  0.41884775484E+03  0.41884775484E+03  0.00000000000E+00 0.  1.
          2   -1    0    0  501    0  0.00000000000E+00 -0.00000000000E+00 -0.36531708120E+02  0.36531708120E+02  0.00000000000E+00 0. -1.
         25    2    1    2    0    0 -0.31064248696E+02 -0.38317771599E+02  0.15102383955E+03  0.20221105834E+03  0.12509145788E+03 0.  0.
          5    1    3    3  502    0 -0.28580641396E+02  0.18291879173E+02 -0.64570467035E+01  0.34793846559E+02  0.41800000000E+01 0. -1.
         -5    1    3    3    0  502 -0.24836073006E+01 -0.56609650772E+02  0.15748088625E+03  0.16741721178E+03  0.41800000000E+01 0. -1.
        -11    1    1    2    0    0  0.45323585002E+02 -0.12401765959E+02  0.14106146569E+03  0.14868210471E+03  0.00000000000E+00 0.  1.
         11    1    1    2    0    0 -0.14259336306E+02  0.50719537558E+02  0.90230741483E+02  0.10448629992E+03  0.00000000000E+00 0. -1.
</event>
<event>
 7    1  0.2693725E-009  0.1142657E+03  0.7561462E-02  0.1252868E+00
          1   -1    0    0  501    0  0.00000000000E+00  0.00000000000E+00  0.15267429494E+03  0.15267429494E+03  0.00000000000E+00 0. -1.
         -1   -1    0    0    0  501 -0.00000000000E+00 -0.00000000000E+00 -0.11482633320E+03  0.11482633320E+03  0.00000000000E+00 0.  1.
         25    2    1    2    0    0 -0.67303526196E+02  0.21660088702E+02 -0.61779117803E+01  0.14382073471E+03  0.12508922038E+03 0.  0.
          5    1    3    3  502    0 -0.77759386369E+02 -0.13693188288E+02 -0.44293737267E+02  0.90627993110E+02  0.41800000000E+01 0. -1.
         -5    1    3    3    0  502  0.10455860173E+02  0.35353276991E+02  0.38115825486E+02  0.53192741596E+02  0.41800000000E+01 0. -1.
        -11    1    1    2    0    0  0.24780361220E+02  0.34152623683E+02  0.30892055664E+02  0.52295192033E+02  0.00000000000E+00 0. -1.
         11    1    1    2    0    0  0.42523164977E+02 -0.55812712386E+02  0.13133817857E+02  0.71384701407E+02  0.00000000000E+00 0.  1.
</event>
<event>
 7    1  0.2693725E-009  0.6255034E+02  0.7561462E-02  0.1387430E+00
         -2   -1    0    0    0  501 -0.00000000000E+00  0.00000000000E+00  0.18732685975E+03  0.18732685975E+03  0.00000000000E+00 0.  1.
          2   -1    0    0  501    0  0.00000000000E+00 -0.00000000000E+00 -0.74139346291E+02  0.74139346291E+02  0.00000000000E+00 0. -1.
         25    2    1    2    0    0  0.19192927800E+02 -0.98825285012E+01  0.18981636584E+02  0.12835080949E+03  0.12509034704E+03 0.  0.
          5    1    3    3  502    0 -0.15500328277E+02 -0.47893733776E+01  0.66821228021E+02  0.68889383712E+02  0.41800000000E+01 0. -1.
         -5    1    3    3    0  502  0.34693256078E+02 -0.50931551236E+01 -0.47839591437E+02  0.59461425776E+02  0.41800000000E+01 0. -1.
        -11    1    1    2    0    0 -0.45647133984E+02  0.92349481621E+01  0.95888367830E+02  0.10659983205E+03  0.00000000000E+00 0.  1.
         11    1    1    2    0    0  0.26454206184E+02  0.64758033910E+00 -0.16824909509E+01  0.26515564503E+02  0.00000000000E+00 0. -1.
</event>
<event>
 7    1  0.2693725E-009  0.1089930E+03  0.7561462E-02  0.1262446E+00
         -1   -1    0    0    0  501 -0.00000000000E+00  0.00000000000E+00  0.21091145201E+02  0.21091145201E+02  0.00000000000E+00 0.  1.
          1   -1    0    0  501    0  0.00000000000E+00 -0.00000000000E+00 -0.76789834099E+03  0.76789834099E+03  0.00000000000E+00 0. -1.
         25    2    1    2    0    0 -0.67322677885E+01 -0.62196399588E+02 -0.48909548534E+03  0.50870033560E+03  0.12509165481E+03 0.  0.
          5    1    3    3  502    0 -0.35855486455E+02 -0.74036540649E+02 -0.45394425408E+03  0.46135656869E+03  0.41800000000E+01 0. -1.
         -5    1    3    3    0  502  0.29123218666E+02  0.11840141062E+02 -0.35151231262E+02  0.47343766908E+02  0.41800000000E+01 0. -1.
        -11    1    1    2    0    0 -0.34526702249E+02  0.50215164363E+02 -0.19477959040E+03  0.20409004076E+03  0.00000000000E+00 0. -1.
         11    1    1    2    0    0  0.41258970037E+02  0.11981235225E+02 -0.62932120050E+02  0.76199109837E+02  0.00000000000E+00 0.  1.
</event>
<event>
 7    1  0.2693725E-009  0.1134964E+03  0.7561462E-02  0.1254229E+00
          1   -1    0    0  501    0  0.00000000000E+00  0.00000000000E+00  0.36099557929E+02  0.36099557929E+02  0.00000000000E+00 0. -1.
         -1   -1    0    0    0  501 -0.00000000000E+00 -0.00000000000E+00 -0.45189408745E+03  0.45189408745E+03  0.00000000000E+00 0.  1.
         25    2    1    2    0    0 -0.61199176339E+02 -0.18335741211E+02 -0.21918571077E+03  0.26033149962E+03  0.12509426564E+03 0.  0.
          5    1    3    3  502    0 -0.84359254201E+02 -0.31018303317E+02 -0.85924308823E+02  0.12441494346E+03  0.41800000000E+01 0. -1.
         -5    1    3    3    0  502  0.23160077861E+02  0.12682562106E+02 -0.13326140195E+03  0.13591655616E+03  0.41800000000E+01 0. -1.
        -11    1    1    2    0    0  0.84333448948E+02  0.72997635178E+01 -0.11979148884E+03  0.14668134836E+03  0.00000000000E+00 0. -1.
         11    1    1    2    0    0 -0.23134272608E+02  0.11035977693E+02 -0.76817329906E+02  0.80980797394E+02  0.00000000000E+00 0.  1.
</event>
<event>
 7    1  0.2693725E-009  0.1516999E+03  0.7561462E-02  0.1198400E+00
          1   -1    0    0  501    0  0.00000000000E+00  0.00000000000E+00  0.85919999712E+02  0.85919999712E+02  0.00000000000E+00 0. -1.
         -1   -1    0    0    0  501 -0.00000000000E+00 -0.00000000000E+00 -0.40593718241E+03  0.40593718241E+03  0.00000000000E+00 0.  1.
         25    2    1    2    0    0 -0.85397209502E+02 -0.10371374212E+03 -0.25876227946E+03  0.31726184707E+03  0.12509172091E+03 0.  0.
          5    1    3    3  502    0  0.23391450453E+02 -0.25868394598E+02 -0.11762276894E+03  0.12275553741E+03  0.41800000000E+01 0. -1.
         -5    1    3    3    0  502 -0.10878865996E+03 -0.77845347526E+02 -0.14113951052E+03  0.19450630966E+03  0.41800000000E+01 0. -1.
        -11    1    1    2    0    0  0.77042880899E+02  0.91127430755E+02 -0.84022493042E+01  0.11962613396E+03  0.00000000000E+00 0. -1.
         11    1    1    2    0    0  0.83543286032E+01  0.12586311369E+02 -0.52852653940E+02  0.54969201093E+02  0.00000000000E+00 0.  1.
</event>
<event>
 7    1  0.2693725E-009  0.2166831E+03  0.7561462E-02  0.1136380E+00
          2   -1    0    0  501    0  0.00000000000E+00  0.00000000000E+00  0.19254616974E+03  0.19254616974E+03  0.00000000000E+00 0. -1.
         -2   -1    0    0    0  501 -0.00000000000E+00 -0.00000000000E+00 -0.25043792322E+03  0.25043792322E+03  0.00000000000E+00 0.  1.
         25    2    1    2    0    0  0.17755673324E+03 -0.73216880196E+02 -0.27536592031E+02  0.23084996203E+03  0.12508531489E+03 0.  0.
          5    1    3    3  502    0  0.53049846859E+02  0.33579104533E+02  0.65368463815E+01  0.63261720445E+02  0.41800000000E+01 0.  1.
         -5    1    3    3    0  502  0.12450688638E+03 -0.10679598473E+03 -0.34073438412E+02  0.16758824158E+03  0.41800000000E+01 0.  1.
        -11    1    1    2    0    0 -0.94424914011E+02  0.78871197492E+02 -0.37192458831E+02  0.12853018779E+03  0.00000000000E+00 0. -1.
         11    1    1    2    0    0 -0.83131819232E+02 -0.56543172969E+01  0.68372973768E+01  0.83603943138E+02  0.00000000000E+00 0.  1.
</event>
<event>
 7    1  0.2693725E-009  0.1310827E+03  0.7561462E-02  0.1225858E+00
         -2   -1    0    0    0  501 -0.00000000000E+00  0.00000000000E+00  0.75986841309E+02  0.75986841309E+02  0.00000000000E+00 0.  1.
          2   -1    0    0  501    0  0.00000000000E+00 -0.00000000000E+00 -0.30487724585E+03  0.30487724585E+03  0.00000000000E+00 0. -1.
         25    2    1    2    0    0 -0.24823162984E+02  0.96351537499E+02 -0.16907285948E+03  0.23266562403E+03  0.12509137698E+03 0.  0.
          5    1    3    3  502    0  0.46373406317E+02  0.61425462506E+02 -0.10700485530E+03  0.13187528849E+03  0.41800000000E+01 0. -1.
         -5    1    3    3    0  502 -0.71196569302E+02  0.34926074993E+02 -0.62068004181E+02  0.10079033554E+03  0.41800000000E+01 0. -1.
        -11    1    1    2    0    0  0.82174375055E+01 -0.85375055203E+02 -0.81813896559E+02  0.11853244282E+03  0.00000000000E+00 0. -1.
         11    1    1    2    0    0  0.16605725479E+02 -0.10976482296E+02  0.21996351494E+02  0.29666020314E+02  0.00000000000E+00 0.  1.
</event>
<event>
 7    1  0.2693725E-009  0.1225073E+03  0.7561462E-02  0.1239017E+00
          3   -1    0    0  501    0  0.00000000000E+00  0.00000000000E+00  0.65915526476E+03  0.65915526476E+03  0.00000000000E+00 0. -1.
         -3   -1    0    0    0  501 -0.00000000000E+00 -0.00000000000E+00 -0.27810175466E+02  0.27810175466E+02  0.00000000000E+00 0.  1.
         25    2    1    2    0    0 -0.54189544149E+02  0.38709032568E+02  0.46002226414E+03  0.48135544488E+03  0.12509070676E+03 0.  0.
          5    1    3    3  502    0 -0.93507746420E+02  0.34547069213E+02  0.36403090707E+03  0.37745618598E+03  0.41800000000E+01 0. -1.
         -5    1    3    3    0  502  0.39318202271E+02  0.41619633545E+01  0.95991357073E+02  0.10389925891E+03  0.41800000000E+01 0. -1.
        -11    1    1    2    0    0  0.51099674996E+02 -0.62931227590E+02  0.15850472897E+03  0.17803164128E+03  0.00000000000E+00 0. -1.
         11    1    1    2    0    0  0.30898691534E+01  0.24222195022E+02  0.12818096186E+02  0.27578354064E+02  0.00000000000E+00 0.  1.
</event>
<event>
 7    1  0.2693725E-009  0.1051331E+03  0.7561462E-02  0.1269858E+00
         -1   -1    0    0    0  501 -0.00000000000E+00  0.00000000000E+00  0.40916494541E+02  0.40916494541E+02  0.00000000000E+00 0.  1.
          1   -1    0    0  501    0  0.00000000000E+00 -0.00000000000E+00 -0.34347102957E+03  0.34347102957E+03  0.00000000000E+00 0. -1.
         25    2    1    2    0    0  0.20799189819E+02 -0.38353073227E+02 -0.13570184942E+03  0.18964797809E+03  0.12509116330E+03 0.  0.
          5    1    3    3  502    0  0.17313570848E+02 -0.72818722975E+02 -0.34354655999E+02  0.82462360747E+02  0.41800000000E+01 0.  1.
         -5    1    3    3    0  502  0.34856189706E+01  0.34465649748E+02 -0.10134719342E+03  0.10718561735E+03  0.41800000000E+01 0.  1.
        -11    1    1    2    0    0 -0.48756662238E+02 -0.47977236059E+01 -0.82736166503E+02  0.96153541339E+02  0.00000000000E+00 0.  1.
         11    1    1    2    0    0  0.27957472419E+02  0.43150796833E+02 -0.84116519110E+02  0.98586004679E+02  0.00000000000E+00 0. -1.
</event>
<event>
 7    1  0.2693725E-009  0.1041696E+03  0.7561462E-02  0.1271764E+00
         -1   -1    0    0    0  501 -0.00000000000E+00  0.00000000000E+00  0.25860112643E+02  0.25860112643E+02  0.00000000000E+00 0.  1.
          1   -1    0    0  501    0  0.00000000000E+00 -0.00000000000E+00 -0.91386642713E+03  0.91386642713E+03  0.00000000000E+00 0. -1.
         25    2    1    2    0    0 -0.17169738798E+02 -0.12701532010E+02 -0.81115525186E+03  0.82102215488E+03  0.12509359433E+03 0.  0.
          5    1    3    3  502    0 -0.11639086417E+02 -0.68762863780E+02 -0.48608492122E+03  0.49108026106E+03  0.41800000000E+01 0.  1.
         -5    1    3    3    0  502 -0.55306523813E+01  0.56061331771E+02 -0.32507033064E+03  0.32994189382E+03  0.41800000000E+01 0.  1.
        -11    1    1    2    0    0 -0.30534280203E+02 -0.53122182394E+01 -0.55201606749E+02  0.63307024237E+02  0.00000000000E+00 0. -1.
         11    1    1    2    0    0  0.47704019002E+02  0.18013750249E+02 -0.21649455872E+02  0.55397360646E+02  0.00000000000E+00 0.  1.
</event>
<event>
 7    1  0.2693725E-009  0.8988638E+02  0.7561462E-02  0.1303127E+00
          3   -1    0    0  501    0  0.00000000000E+00  0.00000000000E+00  0.33472457355E+02  0.33472457355E+02  0.00000000000E+00 0. -1.
         -3   -1    0    0    0  501 -0.00000000000E+00 -0.00000000000E+00 -0.69912319088E+03  0.69912319088E+03  0.00000000000E+00 0.  1.
         25    2    1    2    0    0 -0.40020245217E+02 -0.53440333662E+02 -0.15709140396E+03  0.21161761210E+03  0.12508723062E+03 0.  0.
          5    1    3    3  502    0 -0.13347568751E+02 -0.22067918610E+02  0.17982649285E+02  0.31717482539E+02  0.41800000000E+01 0.  1.
         -5    1    3    3    0  502 -0.26672676466E+02 -0.31372415053E+02 -0.17507405325E+03  0.17990012956E+03  0.41800000000E+01 0.  1.
        -11    1    1    2    0    0  0.56403228188E+02  0.44691637147E-01 -0.22424520307E+03  0.23122983641E+03  0.00000000000E+00 0.  1.
         11    1    1    2    0    0 -0.16382982971E+02  0.53395642025E+02 -0.28431412649E+03  0.28974819972E+03  0.00000000000E+00 0. -1.
</event>
<event>
 7    1  0.2693725E-009  0.1382819E+03  0.7561462E-02  0.1215660E+00
          1   -1    0    0  501    0  0.00000000000E+00  0.00000000000E+00  0.60090251510E+03  0.60090251510E+03  0.00000000000E+00 0.  1.
         -1   -1    0    0    0  501 -0.00000000000E+00 -0.00000000000E+00 -0.83021553444E+02  0.83021553444E+02  0.00000000000E+00 0. -1.
         25    2    1    2    0    0 -0.12952538269E+03 -0.27903265549E+02  0.48867879218E+03  0.52154852942E+03  0.12510191699E+03 0.  0.
          5    1    3    3  502    0 -0.11448842670E+03 -0.40706400125E+02  0.48624598890E+03  0.50121576689E+03  0.41800000000E+01 0. -1.
         -5    1    3    3    0  502 -0.15036955989E+02  0.12803134576E+02  0.24328032741E+01  0.20332762532E+02  0.41800000000E+01 0. -1.
        -11    1    1    2    0    0  0.32339578078E+02 -0.38171135004E+01 -0.29968373610E+02  0.44255192719E+02  0.00000000000E+00 0. -1.
         11    1    1    2    0    0  0.97185804609E+02  0.31720379049E+02  0.59170543093E+02  0.11812034640E+03  0.00000000000E+00 0.  1.
</event>
<event>
 7    1  0.2693725E-009  0.5471130E+02  0.7561462E-02  0.1421469E+00
          2   -1    0    0  501    0  0.00000000000E+00  0.00000000000E+00  0.11124907509E+03  0.11124907509E+03  0.00000000000E+00 0. -1.
         -2   -1    0    0    0  501 -0.00000000000E+00 -0.00000000000E+00 -0.10904919920E+03  0.10904919920E+03  0.00000000000E+00 0.  1.
         25    2    1    2    0    0 -0.18739957026E+02 -0.83058922666E+01  0.23348412554E+02  0.12889150856E+03  0.12509076214E+03 0.  0.
          5    1    3    3  502    0  0.14825499260E+02 -0.11847208560E+01  0.69519215018E+02  0.71215115309E+02  0.41800000000E+01 0. -1.
         -5    1    3    3    0  502 -0.33565456287E+02 -0.71211714106E+01 -0.46170802464E+02  0.57676393248E+02  0.41800000000E+01 0. -1.
        -11    1    1    2    0    0  0.21098958057E+02 -0.21139812568E+02 -0.44608681172E+02  0.53684188942E+02  0.00000000000E+00 0.  1.
         11    1    1    2    0    0 -0.23590010304E+01  0.29445704834E+02  0.23460144505E+02  0.37722576784E+02  0.00000000000E+00 0. -1.
</event>
<event>
 7    1  0.2693725E-009  0.9422069E+02  0.7561462E-02  0.1292941E+00
         -1   -1    0    0    0  501 -0.00000000000E+00  0.00000000000E+00  0.14832036142E+02  0.14832036142E+02  0.00000000000E+00 0. -1.
          1   -1    0    0  501    0  0.00000000000E+00 -0.00000000000E+00 -0.82787236335E+03  0.82787236335E+03  0.00000000000E+00 0.  1.
         25    2    1    2    0    0 -0.14649679504E+01  0.21904513982E+02 -0.47654177474E+03  0.49317490158E+03  0.12508983418E+03 0.  0.
          5    1    3    3  502    0 -0.39453226033E+02  0.47765420900E+02 -0.39174494393E+03  0.39663543207E+03  0.41800000000E+01 0.  1.
         -5    1    3    3    0  502  0.37988258083E+02 -0.25860906918E+02 -0.84796830808E+02  0.96539469513E+02  0.41800000000E+01 0.  1.
        -11    1    1    2    0    0  0.94849944496E+01  0.28049301043E+02 -0.46332535850E+02  0.54985746217E+02  0.00000000000E+00 0. -1.
         11    1    1    2    0    0 -0.80200264992E+01 -0.49953815025E+02 -0.29016601662E+03  0.29454375170E+03  0.00000000000E+00 0.  1.
</event>
<event>
 7    1  0.2693725E-009  0.1202725E+03  0.7561462E-02  0.1242648E+00
         -2   -1    0    0    0  501 -0.00000000000E+00  0.00000000000E+00  0.11979129857E+02  0.11979129857E+02  0.00000000000E+00 0. -1.
          2   -1    0    0  501    0  0.00000000000E+00 -0.00000000000E+00 -0.18402992521E+04  0.18402992521E+04  0.00000000000E+00 0.  1.
         25    2    1    2    0    0 -0.55434180063E+02 -0.33504933384E+02 -0.14826456348E+04  0.14893218292E+04  0.12508358681E+03 0.  0.
          5    1    3    3  502    0 -0.74529234288E+02 -0.60858426971E+02 -0.78812460453E+03  0.79398754371E+03  0.41800000000E+01 0. -1.
         -5    1    3    3    0  502  0.19095054225E+02  0.27353493588E+02 -0.69452103029E+03  0.69533428552E+03  0.41800000000E+01 0. -1.
        -11    1    1    2    0    0  0.80004566038E+02  0.31426901309E+02 -0.27309751843E+03  0.28630514366E+03  0.00000000000E+00 0. -1.
         11    1    1    2    0    0 -0.24570385975E+02  0.20780320742E+01 -0.72576969010E+02  0.76651409086E+02  0.00000000000E+00 0.  1.
</event>
<event>
 7    1  0.2693725E-009  0.2871772E+03  0.7561462E-02  0.1091832E+00
         -1   -1    0    0    0  501 -0.00000000000E+00  0.00000000000E+00  0.13007285527E+03  0.13007285527E+03  0.00000000000E+00 0.  1.
          1   -1    0    0  501    0  0.00000000000E+00 -0.00000000000E+00 -0.12053591474E+04  0.12053591474E+04  0.00000000000E+00 0. -1.
         25    2    1    2    0    0 -0.99313138193E+02 -0.25193708794E+03 -0.99449215048E+03  0.10382665752E+04  0.12508975987E+03 0.  0.
          5    1    3    3  502    0 -0.10724324312E+03 -0.10402059354E+03 -0.53361982890E+03  0.55415610731E+03  0.41800000000E+01 0. -1.
         -5    1    3    3    0  502  0.79301049267E+01 -0.14791649440E+03 -0.46087232158E+03  0.48411046785E+03  0.41800000000E+01 0. -1.
        -11    1    1    2    0    0  0.66212863635E+02  0.91829256410E+02 -0.70457406294E+02  0.13334542266E+03  0.00000000000E+00 0. -1.
         11    1    1    2    0    0  0.33100274558E+02  0.16010783153E+03 -0.10336735364E+02  0.16382000486E+03  0.00000000000E+00 0.  1.
</event>
<event>
 7    1  0.2693725E-009  0.9613040E+02  0.7561462E-02  0.1288650E+00
          2   -1    0    0  501    0  0.00000000000E+00  0.00000000000E+00  0.68936626306E+03  0.68936626306E+03  0.00000000000E+00 0. -1.
         -2   -1    0    0    0  501 -0.00000000000E+00 -0.00000000000E+00 -0.35193527673E+02  0.35193527673E+02  0.00000000000E+00 0.  1.
         25    2    1    2    0    0 -0.71684189237E+02  0.60720986337E+02  0.21489058074E+03  0.26580175832E+03  0.12508777665E+03 0.  0.
          5    1    3    3  502    0 -0.75134497008E+01  0.11694227601E+02 -0.15736886001E+02  0.21408616644E+02  0.41800000000E+01 0. -1.
         -5    1    3    3    0  502 -0.64170739537E+02  0.49026758736E+02  0.23062746674E+03  0.24439314168E+03  0.41800000000E+01 0. -1.
        -11    1    1    2    0    0  0.25199221146E+02 -0.76572585710E+01  0.18699886155E+02  0.32300465900E+02  0.00000000000E+00 0.  1.
         11    1    1    2    0    0  0.46484968092E+02 -0.53063727766E+02  0.42058226850E+03  0.42645756652E+03  0.00000000000E+00 0. -1.
</event>
<event>
 7    1  0.2693725E-009  0.1083366E+03  0.7561462E-02  0.1263682E+00
          3   -1    0    0  501    0  0.00000000000E+00  0.00000000000E+00  0.15327973709E+03  0.15327973709E+03  0.00000000000E+00 0. -1.
         -3   -1    0    0    0  501 -0.00000000000E+00 -0.00000000000E+00 -0.84947636783E+02  0.84947636783E+02  0.00000000000E+00 0.  1.
         25    2    1    2    0    0 -0.19005162306E+02 -0.28530272180E+02  0.32111686565E+02  0.13362053823E+03  0.12509242662E+03 0.  0.
          5    1    3    3  502    0  0.49136422744E+02 -0.18560783391E+02 -0.87820825853E+01  0.53418050271E+02  0.41800000000E+01 0. -1.
         -5    1    3    3    0  502 -0.68141585050E+02 -0.99694887890E+01  0.40893769151E+02  0.80202487961E+02  0.41800000000E+01 0. -1.
        -11    1    1    2    0    0  0.14483080954E+02 -0.31561794341E+02  0.86065881077E+00  0.34736828144E+02  0.00000000000E+00 0. -1.
         11    1    1    2    0    0  0.45220813518E+01  0.60092066521E+02  0.35359754927E+02  0.69870007493E+02  0.00000000000E+00 0.  1.
</event>
<event>
 7    1  0.2693725E-009  0.9127203E+02  0.7561462E-02  0.1299800E+00
         -1   -1    0    0    0  501 -0.00000000000E+00  0.00000000000E+00  0.28961061909E+03  0.28961061909E+03  0.00000000000E+00 0. -1.
          1   -1    0    0  501    0  0.00000000000E+00 -0.00000000000E+00 -0.49391296536E+02  0.49391296536E+02  0.00000000000E+00 0.  1.
         25    2    1    2    0    0  0.44879034161E+02 -0.39678319481E+01  0.13174474423E+03  0.18717421546E+03  0.12509051883E+03 0.  0.
          5    1    3    3  502    0  0.38677170629E+02  0.41759456631E+02  0.12864405202E+03  0.14073571070E+03  0.41800000000E+01 0.  1.
         -5    1    3    3    0  502  0.62018635313E+01 -0.45727288580E+02  0.31006922164E+01  0.46438504760E+02  0.41800000000E+01 0.  1.
        -11    1    1    2    0    0  0.42700348578E+01 -0.22782812998E+02 -0.64018653764E+01  0.24047320975E+02  0.00000000000E+00 0.  1.
         11    1    1    2    0    0 -0.49149069019E+02  0.26750644946E+02  0.11487644369E+03  0.12778037919E+03  0.00000000000E+00 0. -1.
</event>
<event>
 7    1  0.2858518E-009  0.1327059E+03  0.7561462E-02  0.1223495E+00
         -1   -1    0    0    0  501 -0.00000000000E+00  0.00000000000E+00  0.13496417933E+03  0.13496417933E+03  0.00000000000E+00 0.  1.
          1   -1    0    0  501    0  0.00000000000E+00 -0.00000000000E+00 -0.24470208713E+03  0.24470208713E+03  0.00000000000E+00 0. -1.
         25    2    1    2    0    0 -0.64664973901E+02  0.95952565320E+02 -0.14950625184E+03  0.22668800735E+03  0.12508748816E+03 0.  0.
          5    1    3    3  502    0 -0.74582434017E+02  0.65766828863E+02 -0.31475292435E+02  0.10438381904E+03  0.41800000000E+01 0. -1.
         -5    1    3    3    0  502  0.99174601158E+01  0.30185736457E+02 -0.11803095941E+03  0.12230418832E+03  0.41800000000E+01 0. -1.
        -11    1    1    2    0    0  0.39298129056E+02 -0.52386938713E+01  0.43312655737E+02  0.58717740145E+02  0.00000000000E+00 0.  1.
         11    1    1    2    0    0  0.25366844845E+02 -0.90713871448E+02 -0.35443116861E+01  0.94260518967E+02  0.00000000000E+00 0. -1.
</event>
<event>
 7    1  0.2693725E-009  0.9680580E+02  0.7561462E-02  0.1287160E+00
          1   -1    0    0  501    0  0.00000000000E+00  0.00000000000E+00  0.39302574533E+02  0.39302574533E+02  0.00000000000E+00 0. -1.
         -1   -1    0    0    0  501 -0.00000000000E+00 -0.00000000000E+00 -0.33284132987E+03  0.33284132987E+03  0.00000000000E+00 0.  1.
         25    2    1    2    0    0 -0.65914549817E+02  0.11818803934E+02 -0.13472803069E+03  0.19566661277E+03  0.12509743840E+03 0.  0.
          5    1    3    3  502    0 -0.65177016014E+02  0.52607359683E+02 -0.40977341628E+02  0.93339127038E+02  0.41800000000E+01 0. -1.
         -5    1    3    3    0  502 -0.73753380326E+00 -0.40788555749E+02 -0.93750689063E+02  0.10232748573E+03  0.41800000000E+01 0. -1.
        -11    1    1    2    0    0  0.56338669419E+02 -0.41862777517E+01 -0.15265170123E+03  0.16277012159E+03  0.00000000000E+00 0.  1.
         11    1    1    2    0    0  0.95758803985E+01 -0.76325261822E+01 -0.61590234222E+01  0.13707170052E+02  0.00000000000E+00 0. -1.
</event>
<event>
 7    1  0.2693725E-009  0.1295183E+03  0.7561462E-02  0.1228172E+00
         -3   -1    0    0    0  501 -0.00000000000E+00  0.00000000000E+00  0.74622629754E+02  0.74622629754E+02  0.00000000000E+00 0.  1.
          3   -1    0    0  501    0  0.00000000000E+00 -0.00000000000E+00 -0.29631974510E+03  0.29631974510E+03  0.00000000000E+00 0. -1.
         25    2    1    2    0    0  0.77746587672E+02 -0.53745332176E+02 -0.74059649611E+02  0.17339525769E+03  0.12509193046E+03 0.  0.
          5    1    3    3  502    0  0.10698111143E+03 -0.20990293689E+02 -0.35266861134E+02  0.11465938481E+03  0.41800000000E+01 0.  1.
         -5    1    3    3    0  502 -0.29234523754E+02 -0.32755038486E+02 -0.38792788478E+02  0.58735872882E+02  0.41800000000E+01 0.  1.
        -11    1    1    2    0    0 -0.42979301190E+02  0.14104263855E+01 -0.70741900686E+01  0.43580429077E+02  0.00000000000E+00 0.  1.
         11    1    1    2    0    0 -0.34767286482E+02  0.52334905790E+02 -0.14056327567E+03  0.15396668808E+03  0.00000000000E+00 0. -1.
</event>
<event>
 7    1  0.2693725E-009  0.1230042E+03  0.7561462E-02  0.1238222E+00
         -2   -1    0    0    0  501 -0.00000000000E+00  0.00000000000E+00  0.45398763219E+02  0.45398763219E+02  0.00000000000E+00 0.  1.
          2   -1    0    0  501    0  0.00000000000E+00 -0.00000000000E+00 -0.38345647914E+03  0.38345647914E+03  0.00000000000E+00 0. -1.
         25    2    1    2    0    0 -0.19823592108E+02  0.73133855219E+02 -0.22613694809E+03  0.26930855891E+03  0.12509054731E+03 0.  0.
          5    1    3    3  502    0 -0.67852441416E+02  0.21987687047E+02 -0.80738235385E+02  0.10781255604E+03  0.41800000000E+01 0.  1.
         -5    1    3    3    0  502  0.48028849308E+02  0.51146168172E+02 -0.14539871271E+03  0.16149600287E+03  0.41800000000E+01 0.  1.
        -11    1    1    2    0    0  0.41635705920E+02 -0.18719618503E+02 -0.18501925418E+02  0.49257257014E+02  0.00000000000E+00 0.  1.
         11    1    1    2    0    0 -0.21812113811E+02 -0.54414236716E+02 -0.93418842414E+02  0.11028942644E+03  0.00000000000E+00 0. -1.
</event>
<event>
 7    1  0.2693725E-009  0.1376182E+03  0.7561462E-02  0.1216570E+00
          1   -1    0    0  501    0  0.00000000000E+00  0.00000000000E+00  0.23866662268E+02  0.23866662268E+02  0.00000000000E+00 0. -1.
         -1   -1    0    0    0  501 -0.00000000000E+00 -0.00000000000E+00 -0.11965517433E+04  0.11965517433E+04  0.00000000000E+00 0.  1.
         25    2    1    2    0    0 -0.13279079959E+02 -0.10830594740E+03 -0.87467008821E+03  0.89028222628E+03  0.12509263373E+03 0.  0.
          5    1    3    3  502    0 -0.10702691192E+02  0.13899344178E+02 -0.20098035622E+02  0.27002644374E+02  0.41800000000E+01 0. -1.
         -5    1    3    3    0  502 -0.25763887665E+01 -0.12220529158E+03 -0.85457205259E+03  0.86327958191E+03  0.41800000000E+01 0. -1.
        -11    1    1    2    0    0  0.32588146955E+02  0.91051635308E+01 -0.36491332954E+02  0.49764532607E+02  0.00000000000E+00 0. -1.
         11    1    1    2    0    0 -0.19309066996E+02  0.99200783873E+02 -0.26152365982E+03  0.28037164663E+03  0.00000000000E+00 0.  1.
</event>
<event>
 7    1  0.2693725E-009  0.1015880E+03  0.7561462E-02  0.1276992E+00
         -2   -1    0    0    0  501 -0.00000000000E+00  0.00000000000E+00  0.44255476044E+02  0.44255476044E+02  0.00000000000E+00 0.  1.
          2   -1    0    0  501    0  0.00000000000E+00 -0.00000000000E+00 -0.35379119789E+03  0.35379119789E+03  0.00000000000E+00 0. -1.
         25    2    1    2    0    0 -0.35142054176E+02  0.20972169073E+02 -0.25123264872E+03  0.28362003452E+03  0.12509070450E+03 0.  0.
          5    1    3    3  502    0 -0.56998345134E+02 -0.23618154278E+02 -0.60603110743E+02  0.86584282588E+02  0.41800000000E+01 0. -1.
         -5    1    3    3    0  502  0.21856290958E+02  0.44590323351E+02 -0.19062953798E+03  0.19703575194E+03  0.41800000000E+01 0. -1.
        -11    1    1    2    0    0 -0.10985452194E+02 -0.40091572203E+02 -0.58024230034E+01  0.41972400865E+02  0.00000000000E+00 0.  1.
         11    1    1    2    0    0  0.46127506370E+02  0.19119403130E+02 -0.52500650117E+02  0.72454238542E+02  0.00000000000E+00 0. -1.
</event>
<event>
 7    1  0.2693725E-009  0.1219433E+03  0.7561462E-02  0.1239925E+00
         -1   -1    0    0    0  501 -0.00000000000E+00  0.00000000000E+00  0.40810253472E+02  0.40810253472E+02  0.00000000000E+00 0.  1.
          1   -1    0    0  501    0  0.00000000000E+00 -0.00000000000E+00 -0.48825001406E+03  0.48825001406E+03  0.00000000000E+00 0. -1.
         25    2    1    2    0    0 -0.76187184410E+02  0.43503819952E+02 -0.30941643594E+03  0.34508383511E+03  0.12508898034E+03 0.  0.
          5    1    3    3  502    0 -0.15022900943E+02 -0.43506256341E+02 -0.10039537699E+03  0.11052233265E+03  0.41800000000E+01 0.  1.
         -5    1    3    3    0  502 -0.61164283467E+02  0.87010076293E+02 -0.20902105895E+03  0.23456150245E+03  0.41800000000E+01 0.  1.
        -11    1    1    2    0    0  0.55508534953E+02 -0.17907748529E+02 -0.13932961358E+03  0.15104511289E+03  0.00000000000E+00 0. -1.
         11    1    1    2    0    0  0.20678649457E+02 -0.25596071423E+02  0.13062889252E+01  0.32931319536E+02  0.00000000000E+00 0.  1.
</event>
<event>
 7    1  0.2693725E-009  0.1103501E+03  0.7561462E-02  0.1259923E+00
         -1   -1    0    0    0  501 -0.00000000000E+00  0.00000000000E+00  0.37555645863E+03  0.37555645863E+03  0.00000000000E+00 0.  1.
          1   -1    0    0  501    0  0.00000000000E+00 -0.00000000000E+00 -0.38103192857E+02  0.38103192857E+02  0.00000000000E+00 0. -1.
         25    2    1    2    0    0  0.23562720782E+02  0.46522233663E+01  0.26321998004E+03  0.29241977351E+03  0.12509085121E+03 0.  0.
          5    1    3    3  502    0 -0.46743762725E+02 -0.20826036736E+02  0.12662604453E+03  0.13663941860E+03  0.41800000000E+01 0.  1.
         -5    1    3    3    0  502  0.70306483507E+02  0.25478260103E+02  0.13659393551E+03  0.15578035492E+03  0.41800000000E+01 0.  1.
        -11    1    1    2    0    0 -0.49856894567E+02  0.24202594028E+02  0.53530053705E+02  0.77051555100E+02  0.00000000000E+00 0.  1.
         11    1    1    2    0    0  0.26294173785E+02 -0.28854817394E+02  0.20703232022E+02  0.44188322870E+02  0.00000000000E+00 0. -1.
</event>
<event>
 7    1  0.2693725E-009  0.1450297E+03  0.7561462E-02  0.1206717E+00
          2   -1    0    0  501    0  0.00000000000E+00  0.00000000000E+00  0.46320964213E+03  0.46320964213E+03  0.00000000000E+00 0. -1.
         -2   -1    0    0    0  501 -0.00000000000E+00 -0.00000000000E+00 -0.96352177628E+02  0.96352177628E+02  0.00000000000E+00 0.  1.
         25    2    1    2    0    0 -0.95887305446E+02 -0.10292859149E+03  0.33549569288E+03  0.38470318578E+03  0.12510200204E+03 0.  0.
          5    1    3    3  502    0 -0.27557285983E+02 -0.58820446308E+02  0.27671756079E+03  0.28426981860E+03  0.41800000000E+01 0. -1.
         -5    1    3    3    0  502 -0.68330019462E+02 -0.44108145186E+02  0.58778132088E+02  0.10043336718E+03  0.41800000000E+01 0. -1.
        -11    1    1    2    0    0  0.86842739639E+02  0.76970321513E+02  0.63730839703E+02  0.13239226470E+03  0.00000000000E+00 0. -1.
         11    1    1    2    0    0  0.90445658062E+01  0.25958269981E+02 -0.32369068087E+02  0.42466369280E+02  0.00000000000E+00 0.  1.
</event>
<event>
 7    1  0.2693725E-009  0.8653255E+02  0.7561462E-02  0.1311473E+00
          1   -1    0    0  501    0  0.00000000000E+00  0.00000000000E+00  0.66977495308E+02  0.66977495308E+02  0.00000000000E+00 0. -1.
         -1   -1    0    0    0  501 -0.00000000000E+00 -0.00000000000E+00 -0.25313781565E+03  0.25313781565E+03  0.00000000000E+00 0.  1.
         25    2    1    2    0    0  0.53407096377E+02  0.11948547968E+02 -0.44325491363E+02  0.14354988123E+03  0.12508690369E+03 0.  0.
          5    1    3    3  502    0  0.83204149997E+01 -0.23935871416E+02  0.36234871650E+02  0.44413889378E+02  0.41800000000E+01 0.  1.
         -5    1    3    3    0  502  0.45086681377E+02  0.35884419384E+02 -0.80560363013E+02  0.99135991854E+02  0.41800000000E+01 0.  1.
        -11    1    1    2    0    0 -0.29075361526E+01 -0.34270559517E+02 -0.10424223192E+03  0.10976961297E+03  0.00000000000E+00 0.  1.
         11    1    1    2    0    0 -0.50499560224E+02  0.22322011549E+02 -0.37592597062E+02  0.66795816758E+02  0.00000000000E+00 0. -1.
</event>
<event>
 7    1  0.2693725E-009  0.1030624E+03  0.7561462E-02  0.1273985E+00
         -2   -1    0    0    0  501 -0.00000000000E+00  0.00000000000E+00  0.85340093525E+03  0.85340093525E+03  0.00000000000E+00 0.  1.
          2   -1    0    0  501    0  0.00000000000E+00 -0.00000000000E+00 -0.30718035646E+02  0.30718035646E+02  0.00000000000E+00 0. -1.
         25    2    1    2    0    0  0.48273970439E+02 -0.39455266602E+02  0.71366547855E+03  0.72722268481E+03  0.12508926309E+03 0.  0.
          5    1    3    3  502    0 -0.84054100984E+01 -0.48208197953E+02  0.57518108769E+03  0.57727414397E+03  0.41800000000E+01 0. -1.
         -5    1    3    3    0  502  0.56679380538E+02  0.87529313509E+01  0.13848439086E+03  0.14994854083E+03  0.41800000000E+01 0. -1.
        -11    1    1    2    0    0  0.11487182827E+02  0.38032692688E+02  0.82363821498E+02  0.91445285139E+02  0.00000000000E+00 0.  1.
         11    1    1    2    0    0 -0.59761153266E+02  0.14225739140E+01  0.26653599559E+02  0.65451000953E+02  0.00000000000E+00 0. -1.
</event>
<event>
 7    1  0.2693725E-009  0.2109429E+03  0.7561462E-02  0.1140821E+00
          2   -1    0    0  501    0  0.00000000000E+00  0.00000000000E+00  0.58156216220E+03  0.58156216220E+03  0.00000000000E+00 0. -1.
         -2   -1    0    0    0  501 -0.00000000000E+00 -0.00000000000E+00 -0.76717258052E+02  0.76717258052E+02  0.00000000000E+00 0.  1.
         25    2    1    2    0    0  0.16741120637E+03  0.67356844749E+02  0.27310483745E+03  0.35042435976E+03  0.12509006007E+03 0.  0.
          5    1    3    3  502    0  0.17627832565E+03  0.27515468900E+02  0.22564573229E+03  0.28768840440E+03  0.41800000000E+01 0.  1.
         -5    1    3    3    0  502 -0.88671192810E+01  0.39841375849E+02  0.47459105152E+02  0.62735955366E+02  0.41800000000E+01 0.  1.
        -11    1    1    2    0    0 -0.75491980105E+02 -0.79551260496E+02  0.11768586788E+03  0.16086455671E+03  0.00000000000E+00 0. -1.
         11    1    1    2    0    0 -0.91919226262E+02  0.12194415747E+02  0.11405419882E+03  0.14699050378E+03  0.00000000000E+00 0.  1.
</event>
<event>
 7    1  0.2693725E-009  0.3076177E+03  0.7561462E-02  0.1081493E+00
          1   -1    0    0  501    0  0.00000000000E+00  0.00000000000E+00  0.58062425527E+03  0.58062425527E+03  0.00000000000E+00 0. -1.
         -1   -1    0    0    0  501 -0.00000000000E+00 -0.00000000000E+00 -0.17558702947E+03  0.17558702947E+03  0.00000000000E+00 0.  1.
         25    2    1    2    0    0  0.12186401215E+03 -0.27188526667E+03  0.21435182700E+03  0.38777111091E+03  0.12508914034E+03 0.  0.
          5    1    3    3  502    0  0.13698545693E+03 -0.19459031291E+03  0.19199125652E+03  0.30579162884E+03  0.41800000000E+01 0. -1.
         -5    1    3    3    0  502 -0.15121444780E+02 -0.77294953757E+02  0.22360570477E+02  0.81979482071E+02  0.41800000000E+01 0. -1.
        -11    1    1    2    0    0 -0.56770892505E+02  0.10788656299E+03  0.21123249000E+02  0.12372807425E+03  0.00000000000E+00 0.  1.
         11    1    1    2    0    0 -0.65093119641E+02  0.16399870368E+03  0.16956214980E+03  0.24471209958E+03  0.00000000000E+00 0. -1.
</event>
<event>
 7    1  0.2693725E-009  0.1356348E+03  0.7561462E-02  0.1219326E+00
          1   -1    0    0  501    0  0.00000000000E+00  0.00000000000E+00  0.48484132134E+03  0.48484132134E+03  0.00000000000E+00 0. -1.
         -1   -1    0    0    0  501 -0.00000000000E+00 -0.00000000000E+00 -0.48051554526E+02  0.48051554526E+02  0.00000000000E+00 0.  1.
         25    2    1    2    0    0 -0.54628547796E+02 -0.64174832486E+02  0.35299277466E+03  0.38386920527E+03  0.12509588495E+03 0.  0.
          5    1    3    3  502    0  0.34323453636E+02  0.68344691936E+01  0.10998285549E+03  0.11549246876E+03  0.41800000000E+01 0.  1.
         -5    1    3    3    0  502 -0.88952001432E+02 -0.71009301680E+02  0.24300991917E+03  0.26837673651E+03  0.41800000000E+01 0.  1.
        -11    1    1    2    0    0  0.78669891354E+02  0.40903516795E+02  0.69398972308E+02  0.11259781014E+03  0.00000000000E+00 0.  1.
         11    1    1    2    0    0 -0.24041343558E+02  0.23271315691E+02  0.14398019842E+02  0.36425860449E+02  0.00000000000E+00 0. -1.
</event>
<event>
 7    1  0.2693725E-009  0.1272444E+03  0.7561462E-02  0.1231603E+00
          3   -1    0    0  501    0  0.00000000000E+00  0.00000000000E+00  0.48945656074E+03  0.48945656074E+03  0.00000000000E+00 0. -1.
         -3   -1    0    0    0  501 -0.00000000000E+00 -0.00000000000E+00 -0.36931727176E+02  0.36931727176E+02  0.00000000000E+00 0.  1.
         25    2    1    2    0    0  0.71865908857E+02  0.34385486891E+02  0.27035522897E+03  0.30836259092E+03  0.12509383312E+03 0.  0.
          5    1    3    3  502    0 -0.31846840471E+02  0.15513309936E+02  0.32898892106E+02  0.48525184543E+02  0.41800000000E+01 0.  1.
         -5    1    3    3    0  502  0.10371274933E+03  0.18872176956E+02  0.23745633686E+03  0.25983740638E+03  0.41800000000E+01 0.  1.
        -11    1    1    2    0    0 -0.42307219512E+02  0.23448014090E+02  0.11415906609E+03  0.12398388024E+03  0.00000000000E+00 0. -1.
         11    1    1    2    0    0 -0.29558689346E+02 -0.57833500982E+02  0.68010538496E+02  0.94041816753E+02  0.00000000000E+00 0.  1.
</event>
<event>
 7    1  0.2693725E-009  0.1390577E+03  0.7561462E-02  0.1214603E+00
          2   -1    0    0  501    0  0.00000000000E+00  0.00000000000E+00  0.11039060199E+04  0.11039060199E+04  0.00000000000E+00 0. -1.
         -2   -1    0    0    0  501 -0.00000000000E+00 -0.00000000000E+00 -0.24559856357E+02  0.24559856357E+02  0.00000000000E+00 0.  1.
         25    2    1    2    0    0 -0.36370916563E+02 -0.11611666486E+03  0.64855459430E+03  0.67162529927E+03  0.12510618449E+03 0.  0.
          5    1    3    3  502    0 -0.32459678691E+02  0.66274793736E+01  0.30375300206E+03  0.30558290672E+03  0.41800000000E+01 0. -1.
         -5    1    3    3    0  502 -0.39112378716E+01 -0.12274414423E+03  0.34480159225E+03  0.36604239255E+03  0.41800000000E+01 0. -1.
        -11    1    1    2    0    0  0.24324494159E+02  0.86976209902E+02  0.40814691097E+03  0.41801966824E+03  0.00000000000E+00 0. -1.
         11    1    1    2    0    0  0.12046422404E+02  0.29140454958E+02  0.22644658286E+02  0.38820908757E+02  0.00000000000E+00 0.  1.
</event>
<event>
 7    1  0.2693725E-009  0.1077172E+03  0.7561462E-02  0.1264857E+00
         -2   -1    0    0    0  501 -0.00000000000E+00  0.00000000000E+00  0.11861610747E+03  0.11861610747E+03  0.00000000000E+00 0. -1.
          2   -1    0    0  501    0  0.00000000000E+00 -0.00000000000E+00 -0.16402717602E+03  0.16402717602E+03  0.00000000000E+00 0.  1.
         25    2    1    2    0    0 -0.22750385068E+02  0.32169072774E+02  0.54452850280E+02  0.14200350019E+03  0.12508977535E+03 0.  0.
          5    1    3    3  502    0  0.49861545981E+02 -0.31029951003E+01  0.24497755362E+02  0.55797981720E+02  0.41800000000E+01 0. -1.
         -5    1    3    3    0  502 -0.72611931049E+02  0.35272067875E+02  0.29955094917E+02  0.86205518468E+02  0.41800000000E+01 0. -1.
        -11    1    1    2    0    0 -0.23013492774E+02 -0.31103716597E+02 -0.10274281880E+02  0.40032772874E+02  0.00000000000E+00 0. -1.
         11    1    1    2    0    0  0.45763877842E+02 -0.10653561776E+01 -0.89589636951E+02  0.10060701043E+03  0.00000000000E+00 0.  1.
</event>
<event>
 7    1  0.2693725E-009  0.1082290E+03  0.7561462E-02  0.1263885E+00
          3   -1    0    0  501    0  0.00000000000E+00  0.00000000000E+00  0.94059248310E+02  0.94059248310E+02  0.00000000000E+00 0. -1.
         -3   -1    0    0    0  501 -0.00000000000E+00 -0.00000000000E+00 -0.14188039609E+03  0.14188039609E+03  0.00000000000E+00 0.  1.
         25    2    1    2    0    0 -0.30376122088E+02  0.29064511101E+02 -0.28515284560E+02  0.13501389275E+03  0.12509266638E+03 0.  0.
          5    1    3    3  502    0  0.44159891454E+02  0.17129627700E+00 -0.32305517031E+02  0.54874804659E+02  0.41800000000E+01 0.  1.
         -5    1    3    3    0  502 -0.74536013542E+02  0.28893214824E+02  0.37902324712E+01  0.80139088089E+02  0.41800000000E+01 0.  1.
        -11    1    1    2    0    0  0.49102666062E+02  0.87289553097E+01  0.82407015496E+01  0.50548745160E+02  0.00000000000E+00 0. -1.
         11    1    1    2    0    0 -0.18726543974E+02 -0.37793466411E+02 -0.27546564770E+02  0.50377006493E+02  0.00000000000E+00 0.  1.
</event>
<event>
 7    1  0.2693725E-009  0.7735233E+02  0.7561462E-02  0.1336738E+00
         -2   -1    0    0    0  501 -0.00000000000E+00  0.00000000000E+00  0.19646477809E+02  0.19646477809E+02  0.00000000000E+00 0.  1.
          2   -1    0    0  501    0  0.00000000000E+00 -0.00000000000E+00 -0.69706762296E+03  0.69706762296E+03  0.00000000000E+00 0. -1.
         25    2    1    2    0    0  0.35387441715E+02  0.23478132563E+02 -0.41739742563E+03  0.43780326731E+03  0.12509035215E+03 0.  0.
          5    1    3    3  502    0  0.49661568784E+02 -0.12885925387E+02 -0.63555516694E+02  0.81786885192E+02  0.41800000000E+01 0. -1.
         -5    1    3    3    0  502 -0.14274127070E+02  0.36364057950E+02 -0.35384190894E+03  0.35601638212E+03  0.41800000000E+01 0. -1.
        -11    1    1    2    0    0  0.32865206157E+01  0.11398519982E+02  0.17641743158E+01  0.11993322582E+02  0.00000000000E+00 0.  1.
         11    1    1    2    0    0 -0.38673962330E+02 -0.34876652545E+02 -0.26178789383E+03  0.26691751088E+03  0.00000000000E+00 0. -1.
</event>
<event>
 7    1  0.2693725E-009  0.1093845E+03  0.7561462E-02  0.1261714E+00
         -2   -1    0    0    0  501 -0.00000000000E+00  0.00000000000E+00  0.28141587215E+02  0.28141587215E+02  0.00000000000E+00 0.  1.
          2   -1    0    0  501    0  0.00000000000E+00 -0.00000000000E+00 -0.53865540886E+03  0.53865540886E+03  0.00000000000E+00 0. -1.
         25    2    1    2    0    0  0.27986757346E+02 -0.23419103511E+02 -0.39778314433E+03  0.41858157911E+03  0.12508954976E+03 0.  0.
          5    1    3    3  502    0  0.66251559077E+02 -0.45248032421E+02 -0.31046235317E+03  0.32068832011E+03  0.41800000000E+01 0.  1.
         -5    1    3    3    0  502 -0.38264801730E+02  0.21828928910E+02 -0.87320791162E+02  0.97893259002E+02  0.41800000000E+01 0.  1.
        -11    1    1    2    0    0  0.21809881171E+02  0.36656667757E+02 -0.66416953193E+02  0.78934110999E+02  0.00000000000E+00 0. -1.
         11    1    1    2    0    0 -0.49796638517E+02 -0.13237564246E+02 -0.46313724124E+02  0.69281305971E+02  0.00000000000E+00 0.  1.
</event>
<event>
 7    1  0.2693725E-009  0.5764774E+02  0.7561462E-02  0.1407977E+00
          2   -1    0    0  501    0  0.00000000000E+00  0.00000000000E+00  0.34037321764E+03  0.34037321764E+03  0.00000000000E+00 0.  1.
         -2   -1    0    0    0  501 -0.00000000000E+00 -0.00000000000E+00 -0.41560827849E+02  0.41560827849E+02  0.00000000000E+00 0. -1.
         25    2    1    2    0    0  0.34715942955E+02 -0.27776669524E+02  0.13722089002E+03  0.19092701721E+03  0.12508722228E+03 0.  0.
          5    1    3    3  502    0  0.39702487043E+01 -0.12330175078E+02  0.15245841575E+03  0.15306481315E+03  0.41800000000E+01 0.  1.
         -5    1    3    3    0  502  0.30745694251E+02 -0.15446494446E+02 -0.15237525732E+02  0.37862204057E+02  0.41800000000E+01 0.  1.
        -11    1    1    2    0    0  0.78013452049E+01  0.22942027463E+02  0.14180859750E+03  0.14386408842E+03  0.00000000000E+00 0.  1.
         11    1    1    2    0    0 -0.42517288160E+02  0.48346420604E+01  0.19782902270E+02  0.47142939859E+02  0.00000000000E+00 0. -1.
</event>
<event>
 7    1  0.2693725E-009  0.1659429E+03  0.7561462E-02  0.1182146E+00
          2   -1    0    0  501    0  0.00000000000E+00  0.00000000000E+00  0.95162914706E+03  0.95162914706E+03  0.00000000000E+00 0. -1.
         -2   -1    0    0    0  501 -0.00000000000E+00 -0.00000000000E+00 -0.11099116040E+03  0.11099116040E+03  0.00000000000E+00 0.  1.
         25    2    1    2    0    0 -0.94363044386E+02 -0.60112633158E+02  0.83455769614E+03  0.85126490865E+03  0.12508990245E+03 0.  0.
          5    1    3    3  502    0  0.85092008935E+00 -0.71574026120E+02  0.37363508575E+03  0.38045264487E+03  0.41800000000E+01 0.  1.
         -5    1    3    3    0  502 -0.95213964476E+02  0.11461392962E+02  0.46092261039E+03  0.47081226378E+03  0.41800000000E+01 0.  1.
        -11    1    1    2    0    0  0.76485412634E+02 -0.22453338981E+02  0.69471140400E+02  0.10573745848E+03  0.00000000000E+00 0. -1.
         11    1    1    2    0    0  0.17877631753E+02  0.82565972138E+02 -0.63390849875E+02  0.10561794033E+03  0.00000000000E+00 0.  1.
</event>
<event>
 7    1  0.2693725E-009  0.1335033E+03  0.7561462E-02  0.1222348E+00
          1   -1    0    0  501    0  0.00000000000E+00  0.00000000000E+00  0.20885608863E+03  0.20885608863E+03  0.00000000000E+00 0. -1.
         -1   -1    0    0    0  501 -0.00000000000E+00 -0.00000000000E+00 -0.98504377505E+02  0.98504377505E+02  0.00000000000E+00 0.  1.
         25    2    1    2    0    0  0.29899210194E+02  0.76855844056E+02  0.19331527005E+02  0.15106743923E+03  0.12508748828E+03 0.  0.
          5    1    3    3  502    0  0.26952840454E+01 -0.33487672578E+02 -0.64339133132E+01  0.34460940371E+02  0.41800000000E+01 0. -1.
         -5    1    3    3    0  502  0.27203926149E+02  0.11034351663E+03  0.25765440319E+02  0.11660649886E+03  0.41800000000E+01 0. -1.
        -11    1    1    2    0    0 -0.57273777361E+02 -0.28765711497E+02  0.21853486764E+02  0.67715039798E+02  0.00000000000E+00 0.  1.
         11    1    1    2    0    0  0.27374567167E+02 -0.48090132559E+02  0.69166697356E+02  0.88577987109E+02  0.00000000000E+00 0. -1.
</event>
<event>
 7    1  0.2693725E-009  0.9117520E+02  0.7561462E-02  0.1300030E+00
          2   -1    0    0  501    0  0.00000000000E+00  0.00000000000E+00  0.53031706770E+03  0.53031706770E+03  0.00000000000E+00 0. -1.
         -2   -1    0    0    0  501 -0.00000000000E+00 -0.00000000000E+00 -0.28486790331E+02  0.28486790331E+02  0.00000000000E+00 0.  1.
         25    2    1    2    0    0  0.35051860486E+02 -0.26936054499E+02  0.36526468514E+03  0.38861172259E+03  0.12508635724E+03 0.  0.
          5    1    3    3  502    0  0.53804501830E+02 -0.44975025102E+02  0.10095905254E+03  0.12299544703E+03  0.41800000000E+01 0. -1.
         -5    1    3    3    0  502 -0.18752641344E+02  0.18038970604E+02  0.26430563260E+03  0.26561627556E+03  0.41800000000E+01 0. -1.
        -11    1    1    2    0    0 -0.74969204312E+01  0.49540976347E+02  0.31351097982E+02  0.59105020921E+02  0.00000000000E+00 0.  1.
         11    1    1    2    0    0 -0.27554940055E+02 -0.22604921848E+02  0.10521449425E+03  0.11108711452E+03  0.00000000000E+00 0. -1.
</event>
<event>
 7    1  0.2693725E-009  0.1743224E+03  0.7561462E-02  0.1173414E+00
          2   -1    0    0  501    0  0.00000000000E+00  0.00000000000E+00  0.14323851548E+03  0.14323851548E+03  0.00000000000E+00 0. -1.
         -2   -1    0    0    0  501 -0.00000000000E+00 -0.00000000000E+00 -0.22164213456E+03  0.22164213456E+03  0.00000000000E+00 0.  1.
         25    2    1    2    0    0 -0.49404173966E+02  0.12754170861E+03 -0.47105146157E+01  0.18541255821E+03  0.12509183808E+03 0.  0.
          5    1    3    3  502    0 -0.28020313620E+01 -0.25033448418E+02  0.25360157989E+01  0.25659865463E+02  0.41800000000E+01 0. -1.
         -5    1    3    3    0  502 -0.46602142604E+02  0.15257515703E+03 -0.72465304146E+01  0.15975269275E+03  0.41800000000E+01 0. -1.
        -11    1    1    2    0    0 -0.22402581791E+02 -0.63392224020E+02 -0.33662278777E+02  0.75190416607E+02  0.00000000000E+00 0.  1.
         11    1    1    2    0    0  0.71806755757E+02 -0.64149484590E+02 -0.40030825690E+02  0.10427767523E+03  0.00000000000E+00 0. -1.
</event>
<event>
 7    1  0.2693725E-009  0.1631146E+03  0.7561462E-02  0.1185225E+00
         -4   -1    0    0    0  501 -0.00000000000E+00  0.00000000000E+00  0.10736722966E+03  0.10736722966E+03  0.00000000000E+00 0.  1.
          4   -1    0    0  501    0  0.00000000000E+00 -0.00000000000E+00 -0.35096756519E+03  0.35096756519E+03  0.00000000000E+00 0. -1.
         25    2    1    2    0    0 -0.73311711035E+02 -0.12277061693E+03 -0.41930642419E+02  0.19455710530E+03  0.12508819727E+03 0.  0.
          5    1    3    3  502    0  0.42957805106E+00 -0.95666788786E+02 -0.61084986138E+02  0.11358330399E+03  0.41800000000E+01 0. -1.
         -5    1    3    3    0  502 -0.73741289087E+02 -0.27103828142E+02  0.19154343718E+02  0.80973801315E+02  0.41800000000E+01 0. -1.
        -11    1    1    2    0    0 -0.76764581734E+01  0.16344811658E+02 -0.83127513274E+02  0.85066235025E+02  0.00000000000E+00 0.  1.
         11    1    1    2    0    0  0.80988169209E+02  0.10642580527E+03 -0.11854217983E+03  0.17871145452E+03  0.00000000000E+00 0. -1.
</event>
<event>
 7    1  0.2693725E-009  0.1703244E+03  0.7561462E-02  0.1177510E+00
         -2   -1    0    0    0  501 -0.00000000000E+00  0.00000000000E+00  0.40834528820E+02  0.40834528820E+02  0.00000000000E+00 0.  1.
          2   -1    0    0  501    0  0.00000000000E+00 -0.00000000000E+00 -0.95729922534E+03  0.95729922534E+03  0.00000000000E+00 0. -1.
         25    2    1    2    0    0  0.39100132452E+02 -0.15301597491E+03 -0.36353076557E+03  0.41562629096E+03  0.12509151563E+03 0.  0.
          5    1    3    3  502    0  0.67090408710E+02 -0.81152427212E+02 -0.11785174000E+03  0.15809283477E+03  0.41800000000E+01 0.  1.
         -5    1    3    3    0  502 -0.27990276258E+02 -0.71863547698E+02 -0.24567902557E+03  0.25753345619E+03  0.41800000000E+01 0.  1.
        -11    1    1    2    0    0 -0.34885548605E+02  0.12803629702E+03 -0.53564195015E+03  0.55183565816E+03  0.00000000000E+00 0. -1.
         11    1    1    2    0    0 -0.42145838469E+01  0.24979677890E+02 -0.17291980795E+02  0.30671805038E+02  0.00000000000E+00 0.  1.
</event>
<event>
 7    1  0.2693725E-009  0.8003358E+02  0.7561462E-02  0.1328956E+00
          2   -1    0    0  501    0  0.00000000000E+00  0.00000000000E+00  0.17922450524E+03  0.17922450524E+03  0.00000000000E+00 0.  1.
         -2   -1    0    0    0  501 -0.00000000000E+00 -0.00000000000E+00 -0.89005521917E+02  0.89005521917E+02  0.00000000000E+00 0. -1.
         25    2    1    2    0    0 -0.49507229113E+02 -0.42532387443E+02  0.44417001265E+02  0.14791998146E+03  0.12508989247E+03 0.  0.
          5    1    3    3  502    0 -0.33402517480E+02 -0.44697900518E+01 -0.40820534974E+02  0.53098923460E+02  0.41800000000E+01 0. -1.
         -5    1    3    3    0  502 -0.16104711633E+02 -0.38062597391E+02  0.85237536239E+02  0.94821058004E+02  0.41800000000E+01 0. -1.
        -11    1    1    2    0    0  0.22087626574E+01 -0.12103509426E+02  0.46440120819E+02  0.48042256344E+02  0.00000000000E+00 0.  1.
         11    1    1    2    0    0  0.47298466456E+02  0.54635896869E+02 -0.63813876434E+00  0.72267789345E+02  0.00000000000E+00 0. -1.
</event>
<event>
 7    1  0.2693725E-009  0.1124911E+03  0.7561462E-02  0.1256025E+00
          2   -1    0    0  501    0  0.00000000000E+00  0.00000000000E+00  0.24010407064E+03  0.24010407064E+03  0.00000000000E+00 0.  1.
         -2   -1    0    0    0  501 -0.00000000000E+00 -0.00000000000E+00 -0.69594211833E+02  0.69594211833E+02  0.00000000000E+00 0. -1.
         25    2    1    2    0    0  0.61205024330E+02 -0.29715547775E+02  0.11439091913E+03  0.18265090207E+03  0.12508797251E+03 0.  0.
          5    1    3    3  502    0  0.75575529763E+02 -0.64380980790E+02  0.58839431212E+02  0.11548213044E+03  0.41800000000E+01 0. -1.
         -5    1    3    3    0  502 -0.14370505434E+02  0.34665433015E+02  0.55551487916E+02  0.67168771629E+02  0.41800000000E+01 0. -1.
        -11    1    1    2    0    0 -0.56720789987E+02 -0.10844625904E+01 -0.65172234430E+01  0.57104275473E+02  0.00000000000E+00 0.  1.
         11    1    1    2    0    0 -0.44842343428E+01  0.30800010365E+02  0.62636163125E+02  0.69943104929E+02  0.00000000000E+00 0. -1.
</event>
<event>
 7    1  0.2693725E-009  0.1023986E+03  0.7561462E-02  0.1275331E+00
         -2   -1    0    0    0  501 -0.00000000000E+00  0.00000000000E+00  0.19137793973E+03  0.19137793973E+03  0.00000000000E+00 0. -1.
          2   -1    0    0  501    0  0.00000000000E+00 -0.00000000000E+00 -0.68059091270E+02  0.68059091270E+02  0.00000000000E+00 0.  1.
         25    2    1    2    0    0  0.10391126681E+02  0.28923158969E+02  0.95496271591E+02  0.16035505192E+03  0.12509868164E+03 0.  0.
          5    1    3    3  502    0 -0.17476804649E+02 -0.45665351442E+02  0.37380452802E+02  0.61689007730E+02  0.41800000000E+01 0. -1.
         -5    1    3    3    0  502  0.27867931331E+02  0.74588510411E+02  0.58115818789E+02  0.98666044187E+02  0.41800000000E+01 0. -1.
        -11    1    1    2    0    0 -0.38972611932E+02 -0.26862560971E+02  0.45299533435E+02  0.65517244998E+02  0.00000000000E+00 0. -1.
         11    1    1    2    0    0  0.28581485250E+02 -0.20605979977E+01 -0.17476956567E+02  0.33564734083E+02  0.00000000000E+00 0.  1.
</event>
<event>
 7    1  0.2693725E-009  0.1105355E+03  0.7561462E-02  0.1259581E+00
         -2   -1    0    0    0  501 -0.00000000000E+00  0.00000000000E+00  0.10779775254E+03  0.10779775254E+03  0.00000000000E+00 0.  1.
          2   -1    0    0  501    0  0.00000000000E+00 -0.00000000000E+00 -0.13502081848E+03  0.13502081848E+03  0.00000000000E+00 0. -1.
         25    2    1    2    0    0 -0.45634089301E+02  0.19598617132E+02  0.48393818681E+01  0.13466519636E+03  0.12507885351E+03 0.  0.
          5    1    3    3  502    0 -0.10906704709E+02 -0.51285256454E+02  0.15668406561E+02  0.54882648454E+02  0.41800000000E+01 0. -1.
         -5    1    3    3    0  502 -0.34727384592E+02  0.70883873586E+02 -0.10829024693E+02  0.79782547910E+02  0.41800000000E+01 0. -1.
        -11    1    1    2    0    0 -0.35047461543E+01  0.23686130909E+02  0.14326672955E+02  0.27902860087E+02  0.00000000000E+00 0.  1.
         11    1    1    2    0    0  0.49138835455E+02 -0.43284748041E+02 -0.46389120765E+02  0.80250514567E+02  0.00000000000E+00 0. -1.
</event>
<event>
 7    1  0.2693725E-009  0.1313611E+03  0.7561462E-02  0.1225450E+00
         -3   -1    0    0    0  501 -0.00000000000E+00  0.00000000000E+00  0.55926161655E+03  0.55926161655E+03  0.00000000000E+00 0.  1.
          3   -1    0    0  501    0  0.00000000000E+00 -0.00000000000E+00 -0.38225028808E+02  0.38225028808E+02  0.00000000000E+00 0. -1.
         25    2    1    2    0    0 -0.95264466193E+02 -0.19370106418E+02  0.30658262809E+03  0.34509582885E+03  0.12509078184E+03 0.  0.
          5    1    3    3  502    0  0.21891256169E+02  0.14256042096E+02  0.18561288340E+02  0.32318039200E+02  0.41800000000E+01 0. -1.
         -5    1    3    3    0  502 -0.11715572236E+03 -0.33626148514E+02  0.28802133975E+03  0.31277778965E+03  0.41800000000E+01 0. -1.
        -11    1    1    2    0    0  0.70117180476E+02 -0.15017015495E+02  0.19042815308E+03  0.20348172212E+03  0.00000000000E+00 0.  1.
         11    1    1    2    0    0  0.25147285717E+02  0.34387121913E+02  0.24025806571E+02  0.48909094387E+02  0.00000000000E+00 0. -1.
</event>
<event>
 7    1  0.2693725E-009  0.1359516E+03  0.7561462E-02  0.1218883E+00
         -2   -1    0    0    0  501 -0.00000000000E+00  0.00000000000E+00  0.79130122395E+02  0.79130122395E+02  0.00000000000E+00 0.  1.
          2   -1    0    0  501    0  0.00000000000E+00 -0.00000000000E+00 -0.26671374828E+03  0.26671374828E+03  0.00000000000E+00 0. -1.
         25    2    1    2    0    0 -0.85097593116E+02  0.16446345911E+02 -0.52175139784E+02  0.16087909483E+03  0.12509098807E+03 0.  0.
          5    1    3    3  502    0  0.31567262198E+02  0.11846656652E+02 -0.29531089517E+01  0.34103204673E+02  0.41800000000E+01 0. -1.
         -5    1    3    3    0  502 -0.11666485531E+03  0.45996892587E+01 -0.49222030833E+02  0.12677589016E+03  0.41800000000E+01 0. -1.
        -11    1    1    2    0    0  0.70676436124E+01 -0.39188848193E+02 -0.70424478404E+02  0.80903180206E+02  0.00000000000E+00 0. -1.
         11    1    1    2    0    0  0.78029949504E+02  0.22742502282E+02 -0.64984007692E+02  0.10406159563E+03  0.00000000000E+00 0.  1.
</event>
<event>
 7    1  0.2693725E-009  0.6494276E+02  0.7561462E-02  0.1378187E+00
          2   -1    0    0  501    0  0.00000000000E+00  0.00000000000E+00  0.18191245128E+03  0.18191245128E+03  0.00000000000E+00 0. -1.
         -2   -1    0    0    0  501 -0.00000000000E+00 -0.00000000000E+00 -0.80000950437E+02  0.80000950437E+02  0.00000000000E+00 0.  1.
         25    2    1    2    0    0  0.28703186265E+02  0.31117713462E+02  0.21992683274E+02  0.13388026660E+03  0.12509221669E+03 0.  0.
          5    1    3    3  502    0 -0.16722572563E+02  0.36725575438E+01  0.63799930520E+02  0.66189392250E+02  0.41800000000E+01 0.  1.
         -5    1    3    3    0  502  0.45425758828E+02  0.27445155918E+02 -0.41807247246E+02  0.67690874353E+02  0.41800000000E+01 0.  1.
        -11    1    1    2    0    0 -0.11879719029E+01 -0.31484198540E+02 -0.10742549370E+02  0.33287661407E+02  0.00000000000E+00 0.  1.
         11    1    1    2    0    0 -0.27515214362E+02  0.36648507792E+00  0.90661366937E+02  0.94745473705E+02  0.00000000000E+00 0. -1.
</event>
<event>
 7    1  0.2693725E-009  0.9401921E+02  0.7561462E-02  0.1293400E+00
         -2   -1    0    0    0  501 -0.00000000000E+00  0.00000000000E+00  0.39574778175E+02  0.39574778175E+02  0.00000000000E+00 0.  1.
          2   -1    0    0  501    0  0.00000000000E+00 -0.00000000000E+00 -0.38884191221E+03  0.38884191221E+03  0.00000000000E+00 0. -1.
         25    2    1    2    0    0 -0.10424361636E+02 -0.58334723113E+02 -0.17961681130E+03  0.22676453406E+03  0.12509335622E+03 0.  0.
          5    1    3    3  502    0  0.19120589869E+02 -0.53395599815E+02 -0.18714625437E+03  0.19559621663E+03  0.41800000000E+01 0. -1.
         -5    1    3    3    0  502 -0.29544951505E+02 -0.49391232978E+01  0.75294430707E+01  0.31168317428E+02  0.41800000000E+01 0. -1.
        -11    1    1    2    0    0 -0.35712208554E+02  0.31048944194E+02 -0.42263632213E+02  0.63447721655E+02  0.00000000000E+00 0.  1.
         11    1    1    2    0    0  0.46136570189E+02  0.27285778919E+02 -0.12738669053E+03  0.13820443467E+03  0.00000000000E+00 0. -1.
</event>
<event>
 7    1  0.2693725E-009  0.9377417E+02  0.7561462E-02  0.1293961E+00
         -2   -1    0    0    0  501 -0.00000000000E+00  0.00000000000E+00  0.16746301312E+03  0.16746301312E+03  0.00000000000E+00 0.  1.
          2   -1    0    0  501    0  0.00000000000E+00 -0.00000000000E+00 -0.74505152298E+02  0.74505152298E+02  0.00000000000E+00 0. -1.
         25    2    1    2    0    0  0.74357839127E+01  0.26352557344E+02  0.51246449757E+02  0.13792653726E+03  0.12509109843E+03 0.  0.
          5    1    3    3  502    0 -0.99717811508E+01 -0.48997544352E+02  0.14674564769E+02  0.52278207917E+02  0.41800000000E+01 0.  1.
         -5    1    3    3    0  502  0.17407565063E+02  0.75350101696E+02  0.36571884988E+02  0.85648329339E+02  0.41800000000E+01 0.  1.
        -11    1    1    2    0    0 -0.22149023029E+02  0.71981121337E+01  0.59075036827E+02  0.63500015871E+02  0.00000000000E+00 0.  1.
         11    1    1    2    0    0  0.14713239116E+02 -0.33550669478E+02 -0.17363625761E+02  0.40541612292E+02  0.00000000000E+00 0. -1.
</event>
<event>
 7    1  0.2693725E-009  0.1229951E+03  0.7561462E-02  0.1238236E+00
         -3   -1    0    0    0  501 -0.00000000000E+00  0.00000000000E+00  0.29410403487E+02  0.29410403487E+02  0.00000000000E+00 0.  1.
          3   -1    0    0  501    0  0.00000000000E+00 -0.00000000000E+00 -0.58521107393E+03  0.58521107393E+03  0.00000000000E+00 0. -1.
         25    2    1    2    0    0 -0.15593095893E+02 -0.57855603936E+02 -0.20964789943E+03  0.25137668284E+03  0.12509028497E+03 0.  0.
          5    1    3    3  502    0 -0.49237936526E+02  0.20049988187E+02 -0.90391360199E+02  0.10494973472E+03  0.41800000000E+01 0.  1.
         -5    1    3    3    0  502  0.33644840632E+02 -0.77905592123E+02 -0.11925653923E+03  0.14642694812E+03  0.41800000000E+01 0.  1.
        -11    1    1    2    0    0 -0.13400475612E+02  0.73529350135E+02 -0.27230387446E+03  0.28237481850E+03  0.00000000000E+00 0. -1.
         11    1    1    2    0    0  0.28993571506E+02 -0.15673746199E+02 -0.73848896551E+02  0.80869976075E+02  0.00000000000E+00 0.  1.
</event>
<event>
 7    1  0.2693725E-009  0.1371242E+03  0.7561462E-02  0.1217252E+00
          2   -1    0    0  501    0  0.00000000000E+00  0.00000000000E+00  0.43845512152E+03  0.43845512152E+03  0.00000000000E+00 0. -1.
         -2   -1    0    0    0  501 -0.00000000000E+00 -0.00000000000E+00 -0.59412856329E+02  0.59412856329E+02  0.00000000000E+00 0.  1.
         25    2    1    2    0    0 -0.82927550852E+02 -0.83876419351E+02  0.17943432775E+03  0.24850199143E+03  0.12507729352E+03 0.  0.
          5    1    3    3  502    0 -0.76271733232E+02 -0.47666735304E+01  0.14047166290E+03  0.15996830606E+03  0.41800000000E+01 0.  1.
         -5    1    3    3    0  502 -0.66558176201E+01 -0.79109745821E+02  0.38962664848E+02  0.88533685364E+02  0.41800000000E+01 0.  1.
        -11    1    1    2    0    0  0.48271495251E+02  0.54291956159E+02  0.39072119770E+02  0.82488691956E+02  0.00000000000E+00 0.  1.
         11    1    1    2    0    0  0.34656055601E+02  0.29584463193E+02  0.16053581767E+03  0.16687729447E+03  0.00000000000E+00 0. -1.
</event>
<event>
 7    1  0.2693725E-009  0.1214901E+03  0.7561462E-02  0.1240659E+00
         -2   -1    0    0    0  501 -0.00000000000E+00  0.00000000000E+00  0.26700972390E+02  0.26700972390E+02  0.00000000000E+00 0.  1.
          2   -1    0    0  501    0  0.00000000000E+00 -0.00000000000E+00 -0.75633664559E+03  0.75633664559E+03  0.00000000000E+00 0. -1.
         25    2    1    2    0    0  0.15759220189E+02 -0.78999911079E+02 -0.52206875302E+03  0.54285609154E+03  0.12509042438E+03 0.  0.
          5    1    3    3  502    0  0.52443979272E+02  0.85361588533E+00 -0.28868910147E+03  0.29344500222E+03  0.41800000000E+01 0. -1.
         -5    1    3    3    0  502 -0.36684759083E+02 -0.79853526964E+02 -0.23337965155E+03  0.24941108932E+03  0.41800000000E+01 0. -1.
        -11    1    1    2    0    0  0.20036636453E+02  0.56884694920E+02 -0.18010926033E+03  0.18993862422E+03  0.00000000000E+00 0. -1.
         11    1    1    2    0    0 -0.35795856642E+02  0.22115216159E+02 -0.27457659859E+02  0.50242902219E+02  0.00000000000E+00 0.  1.
</event>
<event>
 7    1  0.2693725E-009  0.1292764E+03  0.7561462E-02  0.1228533E+00
          2   -1    0    0  501    0  0.00000000000E+00  0.00000000000E+00  0.75652339847E+03  0.75652339847E+03  0.00000000000E+00 0.  1.
         -2   -1    0    0    0  501 -0.00000000000E+00 -0.00000000000E+00 -0.25891719350E+02  0.25891719350E+02  0.00000000000E+00 0. -1.
         25    2    1    2    0    0  0.76047959533E+02 -0.44066698173E+02  0.44667209148E+03  0.47211061623E+03  0.12508921062E+03 0.  0.
          5    1    3    3  502    0  0.97159678954E+02 -0.52861700251E+02  0.24188330192E+03  0.26600632834E+03  0.41800000000E+01 0.  1.
         -5    1    3    3    0  502 -0.21111719421E+02  0.87950020777E+01  0.20478878956E+03  0.20610428789E+03  0.41800000000E+01 0.  1.
        -11    1    1    2    0    0 -0.67240870999E+02 -0.11619279792E+02  0.14148152522E+03  0.15707757439E+03  0.00000000000E+00 0. -1.
         11    1    1    2    0    0 -0.88070885342E+01  0.55685977965E+02  0.14247806241E+03  0.15322692720E+03  0.00000000000E+00 0.  1.
</event>
<event>
 7    1  0.2693725E-009  0.9620320E+02  0.7561462E-02  0.1288489E+00
         -2   -1    0    0    0  501 -0.00000000000E+00  0.00000000000E+00  0.21493925755E+02  0.21493925755E+02  0.00000000000E+00 0. -1.
          2   -1    0    0  501    0  0.00000000000E+00 -0.00000000000E+00 -0.84206970744E+03  0.84206970744E+03  0.00000000000E+00 0.  1.
         25    2    1    2    0    0  0.43794446871E+02  0.15848464505E+02 -0.65522577647E+03  0.66868511622E+03  0.12509931695E+03 0.  0.
          5    1    3    3  502    0  0.54440475622E+02 -0.22473918796E+02 -0.58418103702E+03  0.58715738846E+03  0.41800000000E+01 0. -1.
         -5    1    3    3    0  502 -0.10646028751E+02  0.38322383301E+02 -0.71044739452E+02  0.81527727761E+02  0.41800000000E+01 0. -1.
        -11    1    1    2    0    0 -0.34567205012E+02 -0.48432728188E+02 -0.14137097643E+03  0.15338309489E+03  0.00000000000E+00 0. -1.
         11    1    1    2    0    0 -0.92272418586E+01  0.32584263683E+02 -0.23979028779E+02  0.41495422076E+02  0.00000000000E+00 0.  1.
</event>
<event>
 7    1  0.2693725E-009  0.2024848E+03  0.7561462E-02  0.1147659E+00
         -2   -1    0    0    0  501 -0.00000000000E+00  0.00000000000E+00  0.45566101467E+02  0.45566101467E+02  0.00000000000E+00 0.  1.
          2   -1    0    0  501    0  0.00000000000E+00 -0.00000000000E+00 -0.12074213687E+04  0.12074213687E+04  0.00000000000E+00 0. -1.
         25    2    1    2    0    0  0.13232732389E+03 -0.14184555239E+03 -0.40642543958E+03  0.46739661067E+03  0.12508905763E+03 0.  0.
          5    1    3    3  502    0  0.99162697636E+02 -0.12293098600E+03 -0.18779117324E+03  0.24541447608E+03  0.41800000000E+01 0.  1.
         -5    1    3    3    0  502  0.33164626259E+02 -0.18914566390E+02 -0.21863426634E+03  0.22198213459E+03  0.41800000000E+01 0. -1.
        -11    1    1    2    0    0 -0.39793324682E+02  0.98794914764E+02 -0.48467676884E+03  0.49624138696E+03  0.00000000000E+00 0. -1.
         11    1    1    2    0    0 -0.92533999213E+02  0.43050637628E+02 -0.27075305885E+03  0.28934947259E+03  0.00000000000E+00 0.  1.
</event>
<event>
 7    1  0.2693725E-009  0.1469817E+03  0.7561462E-02  0.1204232E+00
         -2   -1    0    0    0  501 -0.00000000000E+00  0.00000000000E+00  0.10460285744E+03  0.10460285744E+03  0.00000000000E+00 0.  1.
          2   -1    0    0  501    0  0.00000000000E+00 -0.00000000000E+00 -0.27722372990E+03  0.27722372990E+03  0.00000000000E+00 0. -1.
         25    2    1    2    0    0  0.80891575558E+02 -0.11288221940E+03 -0.97605560934E+02  0.21085725305E+03  0.12509233864E+03 0.  0.
          5    1    3    3  502    0  0.18020250200E+01 -0.58240173762E+02 -0.98629113159E+02  0.11463131988E+03  0.41800000000E+01 0. -1.
         -5    1    3    3    0  502  0.79089550538E+02 -0.54642045642E+02  0.10235522251E+01  0.96225933175E+02  0.41800000000E+01 0. -1.
        -11    1    1    2    0    0 -0.59208668678E+02  0.90623575646E+02 -0.23445408088E+02  0.11076094108E+03  0.00000000000E+00 0.  1.
         11    1    1    2    0    0 -0.21682906880E+02  0.22258643758E+02 -0.51569903435E+02  0.60208393211E+02  0.00000000000E+00 0. -1.
</event>
<event>
 7    1  0.2693725E-009  0.1489976E+03  0.7561462E-02  0.1201710E+00
          1   -1    0    0  501    0  0.00000000000E+00  0.00000000000E+00  0.28232897733E+03  0.28232897733E+03  0.00000000000E+00 0. -1.
         -1   -1    0    0    0  501 -0.00000000000E+00 -0.00000000000E+00 -0.13859485796E+03  0.13859485796E+03  0.00000000000E+00 0.  1.
         25    2    1    2    0    0 -0.12694157970E+03  0.48749634388E+02  0.17475632966E+03  0.25432236162E+03  0.12509755135E+03 0.  0.
          5    1    3    3  502    0 -0.71006988359E+02  0.62225472869E+02  0.31060600117E+02  0.99479822824E+02  0.41800000000E+01 0.  1.
         -5    1    3    3    0  502 -0.55934591338E+02 -0.13475838481E+02  0.14369572955E+03  0.15484253880E+03  0.41800000000E+01 0.  1.
        -11    1    1    2    0    0  0.82572485055E+02 -0.38256524743E+01 -0.54751007498E+02  0.99148997610E+02  0.00000000000E+00 0.  1.
         11    1    1    2    0    0  0.44369094642E+02 -0.44923981914E+02  0.23728797199E+02  0.67452476062E+02  0.00000000000E+00 0. -1.
</event>
<event>
 7    1  0.2693725E-009  0.1364756E+03  0.7561462E-02  0.1218152E+00
         -3   -1    0    0    0  501 -0.00000000000E+00  0.00000000000E+00  0.26458305676E+03  0.26458305676E+03  0.00000000000E+00 0.  1.
          3   -1    0    0  501    0  0.00000000000E+00 -0.00000000000E+00 -0.93685599461E+02  0.93685599461E+02  0.00000000000E+00 0. -1.
         25    2    1    2    0    0 -0.10582671893E+03 -0.59781272359E+01  0.14122275578E+03  0.21639442093E+03  0.12509055206E+03 0.  0.
          5    1    3    3  502    0 -0.23391665257E+02 -0.41471236904E+02 -0.14146473374E+01  0.47817435324E+02  0.41800000000E+01 0. -1.
         -5    1    3    3    0  502 -0.82435053669E+02  0.35493109668E+02  0.14263740312E+03  0.16857698560E+03  0.41800000000E+01 0. -1.
        -11    1    1    2    0    0  0.18508555005E+02 -0.34431314614E+02  0.23165011702E+02  0.45438967875E+02  0.00000000000E+00 0.  1.
         11    1    1    2    0    0  0.87318163920E+02  0.40409441850E+02  0.65096898201E+01  0.96435267421E+02  0.00000000000E+00 0. -1.
</event>
<event>
 7    1  0.2693725E-009  0.9538095E+02  0.7561462E-02  0.1290320E+00
         -2   -1    0    0    0  501 -0.00000000000E+00  0.00000000000E+00  0.12166726513E+03  0.12166726513E+03  0.00000000000E+00 0.  1.
          2   -1    0    0  501    0  0.00000000000E+00 -0.00000000000E+00 -0.96592233240E+02  0.96592233240E+02  0.00000000000E+00 0. -1.
         25    2    1    2    0    0  0.30799023305E+01 -0.96146229790E+01  0.15821934481E+02  0.12648783218E+03  0.12508761451E+03 0.  0.
          5    1    3    3  502    0 -0.16685554884E+02 -0.51831235135E+02 -0.28872170560E+02  0.61773451500E+02  0.41800000000E+01 0. -1.
         -5    1    3    3    0  502  0.19765457215E+02  0.42216612156E+02  0.44694105040E+02  0.64714380675E+02  0.41800000000E+01 0. -1.
        -11    1    1    2    0    0  0.39332401259E+02  0.22127917442E+02  0.14114929831E+02  0.47285449805E+02  0.00000000000E+00 0.  1.
         11    1    1    2    0    0 -0.42412303589E+02 -0.12513294463E+02 -0.48618324213E+01  0.44486216389E+02  0.00000000000E+00 0. -1.
</event>
<event>
 7    1  0.2693725E-009  0.8964133E+02  0.7561462E-02  0.1303723E+00
         -1   -1    0    0    0  501 -0.00000000000E+00  0.00000000000E+00  0.22780984329E+02  0.22780984329E+02  0.00000000000E+00 0.  1.
          1   -1    0    0  501    0  0.00000000000E+00 -0.00000000000E+00 -0.69326461696E+03  0.69326461696E+03  0.00000000000E+00 0. -1.
         25    2    1    2    0    0  0.10548305741E+02  0.72719761074E+02 -0.45896513592E+03  0.48134932307E+03  0.12509494163E+03 0.  0.
          5    1    3    3  502    0  0.39277513072E+01  0.13762313827E+01 -0.35481669964E+03  0.35486572670E+03  0.41800000000E+01 0. -1.
         -5    1    3    3    0  502  0.66205544337E+01  0.71343529691E+02 -0.10414843628E+03  0.12648359637E+03  0.41800000000E+01 0. -1.
        -11    1    1    2    0    0  0.29490320877E+02 -0.20989365158E+02 -0.70810741937E+02  0.79526056415E+02  0.00000000000E+00 0.  1.
         11    1    1    2    0    0 -0.40038626618E+02 -0.51730395916E+02 -0.14070775477E+03  0.15517022180E+03  0.00000000000E+00 0. -1.
</event>
<event>
 7    1  0.2693725E-009  0.2666726E+03  0.7561462E-02  0.1103199E+00
          2   -1    0    0  501    0  0.00000000000E+00  0.00000000000E+00  0.69207255252E+03  0.69207255252E+03  0.00000000000E+00 0. -1.
         -2   -1    0    0    0  501 -0.00000000000E+00 -0.00000000000E+00 -0.15275791701E+03  0.15275791701E+03  0.00000000000E+00 0.  1.
         25    2    1    2    0    0 -0.11989882711E+03 -0.23518830151E+03  0.73442337622E+02  0.30121517518E+03  0.12509012308E+03 0.  0.
          5    1    3    3  502    0  0.53865193066E+00 -0.16469962470E+02 -0.27118951179E+02  0.32007182361E+02  0.41800000000E+01 0. -1.
         -5    1    3    3    0  502 -0.12043747904E+03 -0.21871833904E+03  0.10056128880E+03  0.26920799281E+03  0.41800000000E+01 0. -1.
        -11    1    1    2    0    0  0.79308053285E+02  0.11443156283E+03  0.32564452311E+03  0.35415915253E+03  0.00000000000E+00 0. -1.
         11    1    1    2    0    0  0.40590773827E+02  0.12075673867E+03  0.14022777479E+03  0.18945614183E+03  0.00000000000E+00 0.  1.
</event>
<event>
 7    1  0.2693725E-009  0.1274984E+03  0.7561462E-02  0.1231216E+00
          1   -1    0    0  501    0  0.00000000000E+00  0.00000000000E+00  0.11625891610E+03  0.11625891610E+03  0.00000000000E+00 0. -1.
         -1   -1    0    0    0  501 -0.00000000000E+00 -0.00000000000E+00 -0.25587086638E+03  0.25587086638E+03  0.00000000000E+00 0.  1.
         25    2    1    2    0    0 -0.56822652174E+02  0.46951026236E+02  0.45257127302E+02  0.15208343126E+03  0.12509176563E+03 0.  0.
          5    1    3    3  502    0  0.39845378875E+02  0.16976230965E+02  0.18732349189E+02  0.47373198558E+02  0.41800000000E+01 0.  1.
         -5    1    3    3    0  502 -0.96668031049E+02  0.29974795271E+02  0.26524778113E+02  0.10471023270E+03  0.41800000000E+01 0.  1.
        -11    1    1    2    0    0  0.77490447308E+02 -0.28756466245E+02 -0.16933717202E+03  0.18843243246E+03  0.00000000000E+00 0.  1.
         11    1    1    2    0    0 -0.20667795134E+02 -0.18194559991E+02 -0.15531905558E+02  0.31613918758E+02  0.00000000000E+00 0. -1.
</event>
<event>
 7    1  0.2693725E-009  0.1178310E+03  0.7561462E-02  0.1246719E+00
         -2   -1    0    0    0  501 -0.00000000000E+00  0.00000000000E+00  0.25998162326E+03  0.25998162326E+03  0.00000000000E+00 0. -1.
          2   -1    0    0  501    0  0.00000000000E+00 -0.00000000000E+00 -0.65853650513E+02  0.65853650513E+02  0.00000000000E+00 0.  1.
         25    2    1    2    0    0  0.70645442957E+02 -0.20058790884E+02  0.10090346943E+03  0.17669606494E+03  0.12508739154E+03 0.  0.
          5    1    3    3  502    0  0.77627971376E+02  0.19195055351E+02  0.10954046473E+03  0.13568764831E+03  0.41800000000E+01 0. -1.
         -5    1    3    3    0  502 -0.69825284189E+01 -0.39253846235E+02 -0.86369952994E+01  0.41008416638E+02  0.41800000000E+01 0. -1.
        -11    1    1    2    0    0 -0.80111112611E+02  0.42827528390E+02  0.65234832094E+02  0.11183725171E+03  0.00000000000E+00 0.  1.
         11    1    1    2    0    0  0.94656696545E+01 -0.22768737506E+02  0.27989671223E+02  0.37301957118E+02  0.00000000000E+00 0. -1.
</event>
<event>
 7    1  0.2693725E-009  0.1462087E+03  0.7561462E-02  0.1205211E+00
          2   -1    0    0  501    0  0.00000000000E+00  0.00000000000E+00  0.69567430901E+03  0.69567430901E+03  0.00000000000E+00 0. -1.
         -2   -1    0    0    0  501 -0.00000000000E+00 -0.00000000000E+00 -0.32873327086E+02  0.32873327086E+02  0.00000000000E+00 0.  1.
         25    2    1    2    0    0  0.25691145890E+02  0.99701023961E+02  0.30473825721E+03  0.34512670255E+03  0.12508679487E+03 0.  0.
          5    1    3    3  502    0 -0.50310554884E+02  0.48959809158E+02  0.14109978024E+03  0.15765416337E+03  0.41800000000E+01 0. -1.
         -5    1    3    3    0  502  0.76001700774E+02  0.50741214803E+02  0.16363847698E+03  0.18747253918E+03  0.41800000000E+01 0. -1.
        -11    1    1    2    0    0 -0.22076656034E+02  0.75264879396E+01  0.28463351889E+02  0.36799309275E+02  0.00000000000E+00 0.  1.
         11    1    1    2    0    0 -0.36144898559E+01 -0.10722751190E+03  0.32959937282E+03  0.34662162426E+03  0.00000000000E+00 0. -1.
</event>
<event>
 7    1  0.2693725E-009  0.6776766E+02  0.7561462E-02  0.1367853E+00
         -2   -1    0    0    0  501 -0.00000000000E+00  0.00000000000E+00  0.12079642919E+03  0.12079642919E+03  0.00000000000E+00 0.  1.
          2   -1    0    0  501    0  0.00000000000E+00 -0.00000000000E+00 -0.12207940095E+03  0.12207940095E+03  0.00000000000E+00 0. -1.
         25    2    1    2    0    0  0.16608605516E+02 -0.87990529450E+01 -0.52296446257E+02  0.13687989539E+03  0.12509163986E+03 0.  0.
          5    1    3    3  502    0 -0.28832529564E+02 -0.26379856870E+02  0.24150681776E+02  0.46129593970E+02  0.41800000000E+01 0. -1.
         -5    1    3    3    0  502  0.45441135080E+02  0.17580803925E+02 -0.76447128033E+02  0.90750301423E+02  0.41800000000E+01 0. -1.
        -11    1    1    2    0    0  0.11553307533E+02  0.14558322484E+02  0.69418701897E+02  0.71863619737E+02  0.00000000000E+00 0.  1.
         11    1    1    2    0    0 -0.28161913049E+02 -0.57592695393E+01 -0.18405227402E+02  0.34132315010E+02  0.00000000000E+00 0. -1.
</event>
<event>
 7    1  0.2693725E-009  0.9460031E+02  0.7561462E-02  0.1292079E+00
          4   -1    0    0  501    0  0.00000000000E+00  0.00000000000E+00  0.91017940083E+02  0.91017940083E+02  0.00000000000E+00 0. -1.
         -4   -1    0    0    0  501 -0.00000000000E+00 -0.00000000000E+00 -0.23205590218E+03  0.23205590218E+03  0.00000000000E+00 0.  1.
         25    2    1    2    0    0 -0.57651126250E+02 -0.58378376964E+02 -0.13448974298E+03  0.20116222005E+03  0.12508821109E+03 0.  0.
          5    1    3    3  502    0 -0.43640604176E+02 -0.36601514568E+02 -0.15670590051E+03  0.16678844342E+03  0.41800000000E+01 0.  1.
         -5    1    3    3    0  502 -0.14010522073E+02 -0.21776862397E+02  0.22216157534E+02  0.34373776636E+02  0.41800000000E+01 0.  1.
        -11    1    1    2    0    0 -0.12666264205E+02 -0.24293085102E+01 -0.24074029252E+02  0.27311072355E+02  0.00000000000E+00 0.  1.
         11    1    1    2    0    0  0.70317390454E+02  0.60807685475E+02  0.17525810131E+02  0.94600549860E+02  0.00000000000E+00 0. -1.
</event>
<event>
 7    1  0.2693725E-009  0.7916979E+02  0.7561462E-02  0.1331424E+00
          1   -1    0    0  501    0  0.00000000000E+00  0.00000000000E+00  0.12170001470E+03  0.12170001470E+03  0.00000000000E+00 0. -1.
         -1   -1    0    0    0  501 -0.00000000000E+00 -0.00000000000E+00 -0.98745036946E+02  0.98745036946E+02  0.00000000000E+00 0.  1.
         25    2    1    2    0    0 -0.11246937151E+02 -0.11332364199E+02  0.16391353157E+02  0.12716651920E+03  0.12509089125E+03 0.  0.
          5    1    3    3  502    0  0.13071638224E+02 -0.54718579065E+02  0.42694181515E+02  0.70747834992E+02  0.41800000000E+01 0. -1.
         -5    1    3    3    0  502 -0.24318575375E+02  0.43386214866E+02 -0.26302828358E+02  0.56418684213E+02  0.41800000000E+01 0. -1.
        -11    1    1    2    0    0  0.22696508954E+02 -0.12255671407E+02 -0.35397751066E+02  0.43798787436E+02  0.00000000000E+00 0.  1.
         11    1    1    2    0    0 -0.11449571803E+02  0.23588035606E+02  0.41961375663E+02  0.49479745005E+02  0.00000000000E+00 0. -1.
</event>
<event>
 7    1  0.2693725E-009  0.1215201E+03  0.7561462E-02  0.1240610E+00
          2   -1    0    0  501    0  0.00000000000E+00  0.00000000000E+00  0.34047157620E+03  0.34047157620E+03  0.00000000000E+00 0.  1.
         -2   -1    0    0    0  501 -0.00000000000E+00 -0.00000000000E+00 -0.75585842736E+02  0.75585842736E+02  0.00000000000E+00 0. -1.
         25    2    1    2    0    0  0.73312260040E+02 -0.64362087949E+02  0.22847648164E+03  0.27814876681E+03  0.12509223787E+03 0.  0.
          5    1    3    3  502    0  0.55619967273E+02 -0.87480324477E+02  0.92399561865E+02  0.13892998007E+03  0.41800000000E+01 0.  1.
         -5    1    3    3    0  502  0.17692292767E+02  0.23118236528E+02  0.13607691978E+03  0.13921878674E+03  0.41800000000E+01 0.  1.
        -11    1    1    2    0    0 -0.27951548755E+02  0.57594090929E+02 -0.18238634247E+02  0.66565878398E+02  0.00000000000E+00 0.  1.
         11    1    1    2    0    0 -0.45360711285E+02  0.67679970202E+01  0.54647886072E+02  0.71342773734E+02  0.00000000000E+00 0. -1.
</event>
<event>
 7    1  0.2693725E-009  0.8554719E+02  0.7561462E-02  0.1314008E+00
         -1   -1    0    0    0  501 -0.00000000000E+00  0.00000000000E+00  0.81302403522E+02  0.81302403522E+02  0.00000000000E+00 0.  1.
          1   -1    0    0  501    0  0.00000000000E+00 -0.00000000000E+00 -0.15736522673E+03  0.15736522673E+03  0.00000000000E+00 0. -1.
         25    2    1    2    0    0  0.32518985656E+02 -0.18523045468E+01 -0.42787152428E+02  0.13616042959E+03  0.12509199300E+03 0.  0.
          5    1    3    3  502    0  0.48814642798E+02  0.26286083514E+02 -0.72874788933E+02  0.91662613971E+02  0.41800000000E+01 0.  1.
         -5    1    3    3    0  502 -0.16295657142E+02 -0.28138388061E+02  0.30087636505E+02  0.44497815618E+02  0.41800000000E+01 0.  1.
        -11    1    1    2    0    0 -0.37705900019E+02 -0.31392776360E+02  0.75084673691E+01  0.49634850519E+02  0.00000000000E+00 0.  1.
         11    1    1    2    0    0  0.51869143625E+01  0.33245080907E+02 -0.40784138146E+02  0.52872350141E+02  0.00000000000E+00 0. -1.
</event>
<event>
 7    1  0.2693725E-009  0.1021828E+03  0.7561462E-02  0.1275772E+00
         -1   -1    0    0    0  501 -0.00000000000E+00  0.00000000000E+00  0.11299704247E+03  0.11299704247E+03  0.00000000000E+00 0.  1.
          1   -1    0    0  501    0  0.00000000000E+00 -0.00000000000E+00 -0.14951968411E+03  0.14951968411E+03  0.00000000000E+00 0. -1.
         25    2    1    2    0    0  0.65817079927E+02  0.19901821070E+02 -0.39609704530E+02  0.14813849579E+03  0.12509242483E+03 0.  0.
          5    1    3    3  502    0 -0.13709674748E+02 -0.25510854979E+02  0.22919647595E+02  0.37169094008E+02  0.41800000000E+01 0. -1.
         -5    1    3    3    0  502  0.79526754675E+02  0.45412676049E+02 -0.62529352126E+02  0.11096940178E+03  0.41800000000E+01 0. -1.
        -11    1    1    2    0    0 -0.35352717609E+02 -0.34721067627E+02  0.40433961221E+02  0.63955237467E+02  0.00000000000E+00 0.  1.
         11    1    1    2    0    0 -0.30464362318E+02  0.14819246557E+02 -0.37346898333E+02  0.50422993317E+02  0.00000000000E+00 0. -1.
</event>
<event>
 7    1  0.2693725E-009  0.1468446E+03  0.7561462E-02  0.1204405E+00
         -1   -1    0    0    0  501 -0.00000000000E+00  0.00000000000E+00  0.84655491782E+02  0.84655491782E+02  0.00000000000E+00 0.  1.
          1   -1    0    0  501    0  0.00000000000E+00 -0.00000000000E+00 -0.30948628370E+03  0.30948628370E+03  0.00000000000E+00 0. -1.
         25    2    1    2    0    0 -0.34025251150E+02 -0.11490357787E+03 -0.11069019841E+03  0.20557387318E+03  0.12509095645E+03 0.  0.
          5    1    3    3  502    0 -0.43041083935E+02 -0.13979743779E+03 -0.91089524247E+02  0.17236772420E+03  0.41800000000E+01 0. -1.
         -5    1    3    3    0  502  0.90158327852E+01  0.24893859917E+02 -0.19600674168E+02  0.33206148982E+02  0.41800000000E+01 0. -1.
        -11    1    1    2    0    0  0.18882049629E+02  0.84526721691E+02 -0.20552912943E+02  0.89015283567E+02  0.00000000000E+00 0.  1.
         11    1    1    2    0    0  0.15143201521E+02  0.30376856181E+02 -0.93587680556E+02  0.99552618728E+02  0.00000000000E+00 0. -1.
</event>
<event>
 7    1  0.2693725E-009  0.1244095E+03  0.7561462E-02  0.1235995E+00
          1   -1    0    0  501    0  0.00000000000E+00  0.00000000000E+00  0.12905525749E+04  0.12905525749E+04  0.00000000000E+00 0. -1.
         -1   -1    0    0    0  501 -0.00000000000E+00 -0.00000000000E+00 -0.25367421655E+02  0.25367421655E+02  0.00000000000E+00 0.  1.
         25    2    1    2    0    0 -0.27661979176E+02 -0.83136654788E+02  0.10854676225E+04  0.10961588701E+04  0.12508964991E+03 0.  0.
          5    1    3    3  502    0 -0.54369699037E+02 -0.88611700486E+01  0.72623385887E+03  0.72833211839E+03  0.41800000000E+01 0.  1.
         -5    1    3    3    0  502  0.26707719861E+02 -0.74275484739E+02  0.35923376362E+03  0.36782675169E+03  0.41800000000E+01 0.  1.
        -11    1    1    2    0    0  0.47207889426E+02  0.25465761301E+02  0.38652320450E+02  0.66114232196E+02  0.00000000000E+00 0.  1.
         11    1    1    2    0    0 -0.19545910250E+02  0.57670893488E+02  0.14106521027E+03  0.15364689424E+03  0.00000000000E+00 0. -1.
</event>
<event>
 7    1  0.2693725E-009  0.1060027E+03  0.7561462E-02  0.1268157E+00
          1   -1    0    0  501    0  0.00000000000E+00  0.00000000000E+00  0.68159867805E+03  0.68159867805E+03  0.00000000000E+00 0. -1.
         -1   -1    0    0    0  501 -0.00000000000E+00 -0.00000000000E+00 -0.19007162470E+02  0.19007162470E+02  0.00000000000E+00 0.  1.
         25    2    1    2    0    0  0.32137361916E+02 -0.45148441551E+01  0.32536499880E+03  0.35009180556E+03  0.12509474822E+03 0.  0.
          5    1    3    3  502    0 -0.21747634811E+02  0.40656855798E+02  0.61448698277E+02  0.76937341150E+02  0.41800000000E+01 0. -1.
         -5    1    3    3    0  502  0.53884996727E+02 -0.45171699953E+02  0.26391630052E+03  0.27315446441E+03  0.41800000000E+01 0. -1.
        -11    1    1    2    0    0  0.19467749422E+02  0.31503897361E+02  0.14541327435E+03  0.15005502049E+03  0.00000000000E+00 0. -1.
         11    1    1    2    0    0 -0.51605111338E+02 -0.26989053206E+02  0.19181324243E+03  0.20045901447E+03  0.00000000000E+00 0.  1.
</event>
<event>
 7    1  0.2693725E-009  0.1099558E+03  0.7561462E-02  0.1260652E+00
          2   -1    0    0  501    0  0.00000000000E+00  0.00000000000E+00  0.45995099869E+03  0.45995099869E+03  0.00000000000E+00 0. -1.
         -2   -1    0    0    0  501 -0.00000000000E+00 -0.00000000000E+00 -0.27550176454E+02  0.27550176454E+02  0.00000000000E+00 0.  1.
         25    2    1    2    0    0 -0.16573160204E+02 -0.24109751806E+02  0.26542246601E+03  0.29487675344E+03  0.12508902624E+03 0.  0.
          5    1    3    3  502    0 -0.13178911076E+02  0.50562257271E+02  0.90100211413E+02  0.10423888936E+03  0.41800000000E+01 0. -1.
         -5    1    3    3    0  502 -0.33942491279E+01 -0.74672009076E+02  0.17532225459E+03  0.19063786408E+03  0.41800000000E+01 0. -1.
        -11    1    1    2    0    0  0.27917308359E+02 -0.27855953664E+02  0.46796510889E+02  0.61198396155E+02  0.00000000000E+00 0.  1.
         11    1    1    2    0    0 -0.11344148155E+02  0.51965705469E+02  0.12018184534E+03  0.13142602555E+03  0.00000000000E+00 0. -1.
</event>
<event>
 7    1  0.2693725E-009  0.1061244E+03  0.7561462E-02  0.1267920E+00
         -2   -1    0    0    0  501 -0.00000000000E+00  0.00000000000E+00  0.25186467024E+02  0.25186467024E+02  0.00000000000E+00 0.  1.
          2   -1    0    0  501    0  0.00000000000E+00 -0.00000000000E+00 -0.71456382415E+03  0.71456382415E+03  0.00000000000E+00 0. -1.
         25    2    1    2    0    0  0.78002311725E+02 -0.28243659252E+01 -0.40619651516E+03  0.43212937770E+03  0.12509137647E+03 0.  0.
          5    1    3    3  502    0 -0.47598104154E+01  0.69795290541E+01  0.62609230341E+01  0.11315528191E+02  0.41800000000E+01 0. -1.
         -5    1    3    3    0  502  0.82762122141E+02 -0.98038949793E+01 -0.41245743819E+03  0.42081384951E+03  0.41800000000E+01 0. -1.
        -11    1    1    2    0    0  0.19403713993E+02  0.97694512470E+01 -0.66317911096E+02  0.69785468592E+02  0.00000000000E+00 0.  1.
         11    1    1    2    0    0 -0.97406025718E+02 -0.69450853218E+01 -0.21686293087E+03  0.23783544488E+03  0.00000000000E+00 0. -1.
</event>
<event>
 7    1  0.2693725E-009  0.2203871E+03  0.7561462E-02  0.1133595E+00
          2   -1    0    0  501    0  0.00000000000E+00  0.00000000000E+00  0.91304365731E+03  0.91304365731E+03  0.00000000000E+00 0. -1.
         -2   -1    0    0    0  501 -0.00000000000E+00 -0.00000000000E+00 -0.56221981691E+02  0.56221981691E+02  0.00000000000E+00 0.  1.
         25    2    1    2    0    0 -0.19834525931E+03 -0.11222557992E+02  0.41458541756E+03  0.47643909616E+03  0.12508539565E+03 0.  0.
          5    1    3    3  502    0 -0.86130491260E+02  0.46905005850E+02  0.25219532154E+03  0.27062611423E+03  0.41800000000E+01 0. -1.
         -5    1    3    3    0  502 -0.11221476805E+03 -0.58127563842E+02  0.16239009602E+03  0.20581298193E+03  0.41800000000E+01 0. -1.
        -11    1    1    2    0    0  0.60662584883E+02  0.43626710274E+02  0.12778515304E+03  0.14802798517E+03  0.00000000000E+00 0.  1.
         11    1    1    2    0    0  0.13768267443E+03 -0.32404152282E+02  0.31445110502E+03  0.34479855767E+03  0.00000000000E+00 0. -1.
</event>
<event>
 7    1  0.2693725E-009  0.1834454E+03  0.7561462E-02  0.1164510E+00
         -1   -1    0    0    0  501 -0.00000000000E+00  0.00000000000E+00  0.11537326637E+03  0.11537326637E+03  0.00000000000E+00 0.  1.
          1   -1    0    0  501    0  0.00000000000E+00 -0.00000000000E+00 -0.34181158441E+03  0.34181158441E+03  0.00000000000E+00 0. -1.
         25    2    1    2    0    0 -0.85139611600E+02 -0.12499803036E+03 -0.40966231131E+02  0.20049616901E+03  0.12508885097E+03 0.  0.
          5    1    3    3  502    0  0.13998498213E+02 -0.83629352184E+02  0.14976817239E+01  0.84909021602E+02  0.41800000000E+01 0. -1.
         -5    1    3    3    0  502 -0.99138109813E+02 -0.41368678175E+02 -0.42463912854E+02  0.11558714741E+03  0.41800000000E+01 0. -1.
        -11    1    1    2    0    0 -0.16492074428E+02  0.35196036672E+02 -0.23443220961E+02  0.45390903553E+02  0.00000000000E+00 0.  1.
         11    1    1    2    0    0  0.10163168603E+03  0.89801993687E+02 -0.16202886596E+03  0.21129777821E+03  0.00000000000E+00 0. -1.
</event>
<event>
 7    1  0.2693725E-009  0.2292158E+03  0.7561462E-02  0.1127193E+00
         -1   -1    0    0    0  501 -0.00000000000E+00  0.00000000000E+00  0.29480685740E+03  0.29480685740E+03  0.00000000000E+00 0.  1.
          1   -1    0    0  501    0  0.00000000000E+00 -0.00000000000E+00 -0.19838763453E+03  0.19838763453E+03  0.00000000000E+00 0. -1.
         25    2    1    2    0    0 -0.58397266541E+02 -0.20405581346E+03  0.31296243669E+01  0.24638813774E+03  0.12509318176E+03 0.  0.
          5    1    3    3  502    0  0.20094952392E+02 -0.14737469214E+03  0.10720688269E+02  0.14918281587E+03  0.41800000000E+01 0.  1.
         -5    1    3    3    0  502 -0.78492218933E+02 -0.56681121321E+02 -0.75910639021E+01  0.97205321863E+02  0.41800000000E+01 0.  1.
        -11    1    1    2    0    0  0.99782232899E+01  0.58042322880E+02 -0.12375325826E+02  0.60179937476E+02  0.00000000000E+00 0. -1.
         11    1    1    2    0    0  0.48419043251E+02  0.14601349058E+03  0.10566492433E+03  0.18662641672E+03  0.00000000000E+00 0.  1.
</event>
<event>
 7    1  0.2693725E-009  0.9162447E+02  0.7561462E-02  0.1298965E+00
          1   -1    0    0  501    0  0.00000000000E+00  0.00000000000E+00  0.18798192558E+03  0.18798192558E+03  0.00000000000E+00 0.  1.
         -1   -1    0    0    0  501 -0.00000000000E+00 -0.00000000000E+00 -0.10386845182E+03  0.10386845182E+03  0.00000000000E+00 0. -1.
         25    2    1    2    0    0 -0.29642283070E+02  0.11615807379E+01 -0.40652501958E+02  0.13483473832E+03  0.12509103296E+03 0.  0.
          5    1    3    3  502    0  0.18180231984E+02 -0.33186167545E+02  0.25771880066E+02  0.45972869754E+02  0.41800000000E+01 0. -1.
         -5    1    3    3    0  502 -0.47822515054E+02  0.34347748283E+02 -0.66424382024E+02  0.88861868568E+02  0.41800000000E+01 0. -1.
        -11    1    1    2    0    0  0.57590261778E+02  0.40081842867E+01  0.47736222860E+02  0.74909617312E+02  0.00000000000E+00 0. -1.
         11    1    1    2    0    0 -0.27947978708E+02 -0.51697650246E+01  0.77029752855E+02  0.82106021759E+02  0.00000000000E+00 0.  1.
</event>
<event>
 7    1  0.2693725E-009  0.1476751E+03  0.7561462E-02  0.1203359E+00
         -2   -1    0    0    0  501 -0.00000000000E+00  0.00000000000E+00  0.47263189005E+02  0.47263189005E+02  0.00000000000E+00 0. -1.
          2   -1    0    0  501    0  0.00000000000E+00 -0.00000000000E+00 -0.66883186169E+03  0.66883186169E+03  0.00000000000E+00 0.  1.
         25    2    1    2    0    0 -0.79007291659E+02 -0.10593782748E+03 -0.42434133791E+03  0.46171332444E+03  0.12509455417E+03 0.  0.
          5    1    3    3  502    0 -0.88423451083E+02 -0.44849276187E+02 -0.35554633086E+03  0.36913524630E+03  0.41800000000E+01 0.  1.
         -5    1    3    3    0  502  0.94161594237E+01 -0.61088551291E+02 -0.68795007056E+02  0.92578078145E+02  0.41800000000E+01 0.  1.
        -11    1    1    2    0    0  0.38053089251E+02  0.70012512745E+02 -0.42430098472E+02  0.90277919774E+02  0.00000000000E+00 0. -1.
         11    1    1    2    0    0  0.40954202408E+02  0.35925314733E+02 -0.15479723630E+03  0.16410380648E+03  0.00000000000E+00 0.  1.
</event>
<event>
 7    1  0.2693725E-009  0.1223970E+03  0.7561462E-02  0.1239194E+00
         -1   -1    0    0    0  501 -0.00000000000E+00  0.00000000000E+00  0.11645600192E+02  0.11645600192E+02  0.00000000000E+00 0.  1.
          1   -1    0    0  501    0  0.00000000000E+00 -0.00000000000E+00 -0.13572073614E+04  0.13572073614E+04  0.00000000000E+00 0. -1.
         25    2    1    2    0    0 -0.56812510902E+02  0.19010794455E+02 -0.88906253853E+03  0.89981547678E+03  0.12508646263E+03 0.  0.
          5    1    3    3  502    0 -0.94813888633E+02  0.26789619851E+02 -0.68432617563E+03  0.69139507105E+03  0.41800000000E+01 0. -1.
         -5    1    3    3    0  502  0.38001377732E+02 -0.77788253959E+01 -0.20473636290E+03  0.20842040573E+03  0.41800000000E+01 0. -1.
        -11    1    1    2    0    0  0.77984567024E+02  0.10602153915E+01 -0.35242546106E+03  0.36095210535E+03  0.00000000000E+00 0.  1.
         11    1    1    2    0    0 -0.21172056122E+02 -0.20071009847E+02 -0.10407376158E+03  0.10808537943E+03  0.00000000000E+00 0. -1.
</event>
<event>
 7    1  0.2693725E-009  0.1310361E+03  0.7561462E-02  0.1225926E+00
          3   -1    0    0  501    0  0.00000000000E+00  0.00000000000E+00  0.16107495519E+03  0.16107495519E+03  0.00000000000E+00 0. -1.
         -3   -1    0    0    0  501 -0.00000000000E+00 -0.00000000000E+00 -0.19963297737E+03  0.19963297737E+03  0.00000000000E+00 0.  1.
         25    2    1    2    0    0 -0.81929048369E+02  0.28118934021E+02 -0.13268398922E+03  0.20187864376E+03  0.12508757890E+03 0.  0.
          5    1    3    3  502    0  0.31088702177E+02  0.20305560738E+02 -0.21597399381E+02  0.43159509496E+02  0.41800000000E+01 0. -1.
         -5    1    3    3    0  502 -0.11301775055E+03  0.78133732833E+01 -0.11108658984E+03  0.15871913427E+03  0.41800000000E+01 0. -1.
        -11    1    1    2    0    0 -0.47479504866E+01  0.14136244418E+02 -0.91806284772E+01  0.17511721198E+02  0.00000000000E+00 0.  1.
         11    1    1    2    0    0  0.86676998856E+02 -0.42255178439E+02  0.10330659551E+03  0.14131756760E+03  0.00000000000E+00 0. -1.
</event>
<event>
 7    1  0.2693725E-009  0.1125861E+03  0.7561462E-02  0.1255854E+00
         -1   -1    0    0    0  501 -0.00000000000E+00  0.00000000000E+00  0.31919139140E+02  0.31919139140E+02  0.00000000000E+00 0.  1.
          1   -1    0    0  501    0  0.00000000000E+00 -0.00000000000E+00 -0.44837172139E+03  0.44837172139E+03  0.00000000000E+00 0. -1.
         25    2    1    2    0    0  0.50638373676E+02  0.17307644160E+02 -0.24251722407E+03  0.27807831561E+03  0.12509654755E+03 0.  0.
          5    1    3    3  502    0  0.82230483832E+02 -0.19407320983E+02 -0.12533228202E+03  0.15120896103E+03  0.41800000000E+01 0.  1.
         -5    1    3    3    0  502 -0.31592110156E+02  0.36714965142E+02 -0.11718494205E+03  0.12686935458E+03  0.41800000000E+01 0.  1.
        -11    1    1    2    0    0  0.32644349840E+01  0.23894686598E+02 -0.12639147033E+02  0.27227938246E+02  0.00000000000E+00 0.  1.
         11    1    1    2    0    0 -0.53902808660E+02 -0.41202330758E+02 -0.16129621114E+03  0.17498460667E+03  0.00000000000E+00 0. -1.
</event>
<event>
 7    1  0.2693725E-009  0.1274690E+03  0.7561462E-02  0.1231260E+00
          2   -1    0    0  501    0  0.00000000000E+00  0.00000000000E+00  0.10045800980E+03  0.10045800980E+03  0.00000000000E+00 0. -1.
         -2   -1    0    0    0  501 -0.00000000000E+00 -0.00000000000E+00 -0.18380583597E+03  0.18380583597E+03  0.00000000000E+00 0.  1.
         25    2    1    2    0    0 -0.11554577879E+02  0.80981222188E+02 -0.58859357508E+02  0.16063551511E+03  0.12509147905E+03 0.  0.
          5    1    3    3  502    0 -0.16462111706E+02 -0.25623212557E+02  0.11412299764E+02  0.32791205063E+02  0.41800000000E+01 0.  1.
         -5    1    3    3    0  502  0.49075338273E+01  0.10660443474E+03 -0.70271657272E+02  0.12784431005E+03  0.41800000000E+01 0.  1.
        -11    1    1    2    0    0 -0.29732368867E+02 -0.67840582251E+02 -0.30073204379E+02  0.79942203999E+02  0.00000000000E+00 0.  1.
         11    1    1    2    0    0  0.41286946746E+02 -0.13140639937E+02  0.55847357104E+01  0.43686126660E+02  0.00000000000E+00 0. -1.
</event>
<event>
 7    1  0.2693725E-009  0.1307237E+03  0.7561462E-02  0.1226386E+00
          1   -1    0    0  501    0  0.00000000000E+00  0.00000000000E+00  0.29471163362E+03  0.29471163362E+03  0.00000000000E+00 0. -1.
         -1   -1    0    0    0  501 -0.00000000000E+00 -0.00000000000E+00 -0.96926581898E+02  0.96926581898E+02  0.00000000000E+00 0.  1.
         25    2    1    2    0    0 -0.40025138631E+02  0.11832464472E+03  0.69821906118E+02  0.19006695617E+03  0.12509043122E+03 0.  0.
          5    1    3    3  502    0 -0.27541537423E+02  0.47620898641E+02 -0.33226794710E+02  0.64403249590E+02  0.41800000000E+01 0. -1.
         -5    1    3    3    0  502 -0.12483601208E+02  0.70703746074E+02  0.10304870083E+03  0.12566370658E+03  0.41800000000E+01 0. -1.
        -11    1    1    2    0    0 -0.84613817119E+01 -0.49209644260E+02  0.20507282827E+01  0.49973888733E+02  0.00000000000E+00 0.  1.
         11    1    1    2    0    0  0.48486520343E+02 -0.69115000456E+02  0.12591241732E+03  0.15159737062E+03  0.00000000000E+00 0. -1.
</event>
<event>
 7    1  0.2693725E-009  0.1092560E+03  0.7561462E-02  0.1261954E+00
         -2   -1    0    0    0  501 -0.00000000000E+00  0.00000000000E+00  0.74157471927E+01  0.74157471927E+01  0.00000000000E+00 0.  1.
          2   -1    0    0  501    0  0.00000000000E+00 -0.00000000000E+00 -0.19934831185E+04  0.19934831185E+04  0.00000000000E+00 0. -1.
         25    2    1    2    0    0 -0.22182509124E+02  0.12166790638E+02 -0.15214879517E+04  0.15268307308E+04  0.12508556653E+03 0.  0.
          5    1    3    3  502    0 -0.49134000440E+02  0.54677965158E+02 -0.10689728309E+04  0.10715055835E+04  0.41800000000E+01 0.  1.
         -5    1    3    3    0  502  0.26951491316E+02 -0.42511174519E+02 -0.45251512077E+03  0.45532514731E+03  0.41800000000E+01 0.  1.
        -11    1    1    2    0    0  0.57877462724E+02 -0.83326508839E+01 -0.28813587473E+03  0.29400938092E+03  0.00000000000E+00 0. -1.
         11    1    1    2    0    0 -0.35694953600E+02 -0.38341397545E+01 -0.17644354487E+03  0.18005875393E+03  0.00000000000E+00 0.  1.
</event>
<event>
 7    1  0.2693725E-009  0.1310378E+03  0.7561462E-02  0.1225924E+00
          1   -1    0    0  501    0  0.00000000000E+00  0.00000000000E+00  0.13573310835E+03  0.13573310835E+03  0.00000000000E+00 0. -1.
         -1   -1    0    0    0  501 -0.00000000000E+00 -0.00000000000E+00 -0.16268783742E+03  0.16268783742E+03  0.00000000000E+00 0.  1.
         25    2    1    2    0    0  0.77724196815E+02  0.46000249893E+02  0.28838436010E+02  0.15696018924E+03  0.12509105425E+03 0.  0.
          5    1    3    3  502    0  0.55173141337E+02 -0.27395343129E+02  0.47420927751E+02  0.77851121629E+02  0.41800000000E+01 0.  1.
         -5    1    3    3    0  502  0.22551055478E+02  0.73395593022E+02 -0.18582491740E+02  0.79109067606E+02  0.41800000000E+01 0.  1.
        -11    1    1    2    0    0 -0.78563778414E+02 -0.11421180246E+01 -0.13346244486E+02  0.79697515358E+02  0.00000000000E+00 0. -1.
         11    1    1    2    0    0  0.83958159895E+00 -0.44858131869E+02 -0.42446920603E+02  0.61763241177E+02  0.00000000000E+00 0.  1.
</event>
<event>
 7    1  0.2693725E-009  0.1475913E+03  0.7561462E-02  0.1203464E+00
         -2   -1    0    0    0  501 -0.00000000000E+00  0.00000000000E+00  0.16263585613E+03  0.16263585613E+03  0.00000000000E+00 0.  1.
          2   -1    0    0  501    0  0.00000000000E+00 -0.00000000000E+00 -0.18191609786E+03  0.18191609786E+03  0.00000000000E+00 0. -1.
         25    2    1    2    0    0  0.33813922300E+02 -0.10864871205E+03  0.57424616614E+02  0.17858341931E+03  0.12508607871E+03 0.  0.
          5    1    3    3  502    0 -0.16664999543E+02  0.19940419222E+02  0.25692064684E+02  0.36781749772E+02  0.41800000000E+01 0. -1.
         -5    1    3    3    0  502  0.50478921843E+02 -0.12858913127E+03  0.31732551930E+02  0.14180166954E+03  0.41800000000E+01 0. -1.
        -11    1    1    2    0    0  0.18895581641E+02  0.38742297559E+02 -0.64490446826E+02  0.77569493730E+02  0.00000000000E+00 0. -1.
         11    1    1    2    0    0 -0.52709503941E+02  0.69906414489E+02 -0.12214411520E+02  0.88399040952E+02  0.00000000000E+00 0.  1.
</event>
<event>
 7    1  0.2693725E-009  0.1293292E+03  0.7561462E-02  0.1228455E+00
         -2   -1    0    0    0  501 -0.00000000000E+00  0.00000000000E+00  0.52403143648E+03  0.52403143648E+03  0.00000000000E+00 0.  1.
          2   -1    0    0  501    0  0.00000000000E+00 -0.00000000000E+00 -0.38611556973E+02  0.38611556973E+02  0.00000000000E+00 0. -1.
         25    2    1    2    0    0  0.82363420449E+02  0.37706546396E+02  0.24298795576E+03  0.28791818168E+03  0.12509282965E+03 0.  0.
          5    1    3    3  502    0  0.14442289027E+02 -0.42880701142E+02  0.10354734544E+03  0.11307899624E+03  0.41800000000E+01 0.  1.
         -5    1    3    3    0  502  0.67921131422E+02  0.80587247538E+02  0.13944061032E+03  0.17483918544E+03  0.41800000000E+01 0.  1.
        -11    1    1    2    0    0 -0.77866392187E+02 -0.86557149125E+01  0.89298508949E+02  0.11879528666E+03  0.00000000000E+00 0.  1.
         11    1    1    2    0    0 -0.44970282619E+01 -0.29050831483E+02  0.15313341480E+03  0.15592952511E+03  0.00000000000E+00 0. -1.
</event>
<event>
 7    1  0.2693725E-009  0.9445626E+02  0.7561462E-02  0.1292405E+00
         -1   -1    0    0    0  501 -0.00000000000E+00  0.00000000000E+00  0.19896343863E+02  0.19896343863E+02  0.00000000000E+00 0.  1.
          1   -1    0    0  501    0  0.00000000000E+00 -0.00000000000E+00 -0.74610368141E+03  0.74610368141E+03  0.00000000000E+00 0. -1.
         25    2    1    2    0    0 -0.31816521950E+01  0.52953711125E+02 -0.53665796942E+03  0.55359385702E+03  0.12510061535E+03 0.  0.
          5    1    3    3  502    0 -0.56951609822E+02 -0.42150467743E+01 -0.22046749652E+03  0.22778200522E+03  0.41800000000E+01 0. -1.
         -5    1    3    3    0  502  0.53769957627E+02  0.57168757899E+02 -0.31619047290E+03  0.32581185180E+03  0.41800000000E+01 0. -1.
        -11    1    1    2    0    0  0.19474293707E+01 -0.39707195243E+02 -0.19426515201E+03  0.19829120787E+03  0.00000000000E+00 0. -1.
         11    1    1    2    0    0  0.12342228243E+01 -0.13246515882E+02  0.47157838753E+01  0.14114960381E+02  0.00000000000E+00 0.  1.
</event>
<event>
 7    1  0.2693725E-009  0.1601220E+03  0.7561462E-02  0.1188559E+00
          2   -1    0    0  501    0  0.00000000000E+00  0.00000000000E+00  0.85451687911E+03  0.85451687911E+03  0.00000000000E+00 0. -1.
         -2   -1    0    0    0  501 -0.00000000000E+00 -0.00000000000E+00 -0.32393454683E+02  0.32393454683E+02  0.00000000000E+00 0.  1.
         25    2    1    2    0    0 -0.71749369720E+02 -0.95714476704E+02  0.53945665126E+03  0.56654265799E+03  0.12509145306E+03 0.  0.
          5    1    3    3  502    0  0.17544051799E+02 -0.80292840012E+02  0.26500335328E+03  0.27748690700E+03  0.41800000000E+01 0. -1.
         -5    1    3    3    0  502 -0.89293421519E+02 -0.15421636692E+02  0.27445329798E+03  0.28905575099E+03  0.41800000000E+01 0. -1.
        -11    1    1    2    0    0 -0.14991611143E+02  0.43462747331E+02  0.58614557978E+02  0.74494464340E+02  0.00000000000E+00 0.  1.
         11    1    1    2    0    0  0.86740980864E+02  0.52251729373E+02  0.22405221519E+03  0.24587321147E+03  0.00000000000E+00 0. -1.
</event>
<event>
 7    1  0.2693725E-009  0.1064063E+03  0.7561462E-02  0.1267373E+00
          2   -1    0    0  501    0  0.00000000000E+00  0.00000000000E+00  0.35548136655E+03  0.35548136655E+03  0.00000000000E+00 0. -1.
         -2   -1    0    0    0  501 -0.00000000000E+00 -0.00000000000E+00 -0.44135884101E+02  0.44135884101E+02  0.00000000000E+00 0.  1.
         25    2    1    2    0    0  0.25132512963E+02  0.57144710165E+02  0.15826255484E+03  0.21116916192E+03  0.12509283582E+03 0.  0.
          5    1    3    3  502    0  0.41502025699E+02 -0.71638776318E+01  0.13377870596E+03  0.14031376927E+03  0.41800000000E+01 0. -1.
         -5    1    3    3    0  502 -0.16369512736E+02  0.64308587796E+02  0.24483848885E+02  0.70855392652E+02  0.41800000000E+01 0. -1.
        -11    1    1    2    0    0 -0.32730791390E+02 -0.76498808895E+02  0.92602079660E+02  0.12449304248E+03  0.00000000000E+00 0.  1.
         11    1    1    2    0    0  0.75982784274E+01  0.19354098730E+02  0.60480847943E+02  0.63955046248E+02  0.00000000000E+00 0. -1.
</event>
<event>
 7    1  0.2693725E-009  0.9641417E+02  0.7561462E-02  0.1288022E+00
          2   -1    0    0  501    0  0.00000000000E+00  0.00000000000E+00  0.21833463628E+03  0.21833463628E+03  0.00000000000E+00 0. -1.
         -2   -1    0    0    0  501 -0.00000000000E+00 -0.00000000000E+00 -0.86104967167E+02  0.86104967167E+02  0.00000000000E+00 0.  1.
         25    2    1    2    0    0  0.21856983192E+02 -0.67303004138E+02  0.32726547181E+02  0.14739649829E+03  0.12508908320E+03 0.  0.
          5    1    3    3  502    0 -0.37685236547E+02 -0.15904725600E+02  0.52011858966E+02  0.66301155519E+02  0.41800000000E+01 0. -1.
         -5    1    3    3    0  502  0.59542219739E+02 -0.51398278538E+02 -0.19285311785E+02  0.81095342769E+02  0.41800000000E+01 0. -1.
        -11    1    1    2    0    0 -0.18400350756E+02  0.28106675450E+02  0.11106237006E+03  0.11603192732E+03  0.00000000000E+00 0. -1.
         11    1    1    2    0    0 -0.34566324363E+01  0.39196328687E+02 -0.11559248133E+02  0.41011177839E+02  0.00000000000E+00 0.  1.
</event>
<event>
 7    1  0.2693725E-009  0.1021712E+03  0.7561462E-02  0.1275795E+00
          2   -1    0    0  501    0  0.00000000000E+00  0.00000000000E+00  0.45265358204E+02  0.45265358204E+02  0.00000000000E+00 0. -1.
         -2   -1    0    0    0  501 -0.00000000000E+00 -0.00000000000E+00 -0.32747996055E+03  0.32747996055E+03  0.00000000000E+00 0.  1.
         25    2    1    2    0    0 -0.54196246264E+02 -0.74218333420E+01 -0.16718316928E+03  0.21584881811E+03  0.12509269951E+03 0.  0.
          5    1    3    3  502    0 -0.93494344001E+02  0.44555285650E+01 -0.13039249110E+03  0.16056375130E+03  0.41800000000E+01 0. -1.
         -5    1    3    3    0  502  0.39298097737E+02 -0.11877361907E+02 -0.36790678179E+02  0.55285066813E+02  0.41800000000E+01 0. -1.
        -11    1    1    2    0    0  0.42153824832E+02  0.24294319058E+02 -0.97844602288E+01  0.49627558356E+02  0.00000000000E+00 0. -1.
         11    1    1    2    0    0  0.12042421432E+02 -0.16872485716E+02 -0.10524697284E+03  0.10726894229E+03  0.00000000000E+00 0.  1.
</event>
<event>
 7    1  0.2693725E-009  0.1397369E+03  0.7561462E-02  0.1213683E+00
         -1   -1    0    0    0  501 -0.00000000000E+00  0.00000000000E+00  0.45074512607E+02  0.45074512607E+02  0.00000000000E+00 0.  1.
          1   -1    0    0  501    0  0.00000000000E+00 -0.00000000000E+00 -0.57887541941E+03  0.57887541941E+03  0.00000000000E+00 0. -1.
         25    2    1    2    0    0  0.98821257321E+02  0.47450458714E+02 -0.36937455676E+03  0.40509522353E+03  0.12508952798E+03 0.  0.
          5    1    3    3  502    0  0.11177068573E+03 -0.44767668978E+01 -0.23161678096E+03  0.25724799951E+03  0.41800000000E+01 0.  1.
         -5    1    3    3    0  502 -0.12949428406E+02  0.51927225612E+02 -0.13775777580E+03  0.14784722402E+03  0.41800000000E+01 0.  1.
        -11    1    1    2    0    0 -0.52737869203E+02 -0.83012900290E+01 -0.11784637193E+02  0.54672405636E+02  0.00000000000E+00 0.  1.
         11    1    1    2    0    0 -0.46083388118E+02 -0.39149168685E+02 -0.15264171285E+03  0.16418230285E+03  0.00000000000E+00 0. -1.
</event>
<event>
 7    1  0.2693725E-009  0.1376577E+03  0.7561462E-02  0.1216516E+00
         -1   -1    0    0    0  501 -0.00000000000E+00  0.00000000000E+00  0.36756788299E+03  0.36756788299E+03  0.00000000000E+00 0.  1.
          1   -1    0    0  501    0  0.00000000000E+00 -0.00000000000E+00 -0.69637682622E+02  0.69637682622E+02  0.00000000000E+00 0. -1.
         25    2    1    2    0    0  0.83814761792E+02  0.53666138468E+02  0.24569921526E+03  0.29312345458E+03  0.12509311147E+03 0.  0.
          5    1    3    3  502    0 -0.11313069579E+02 -0.22512850817E+02  0.93997645558E+01  0.27214738083E+02  0.41800000000E+01 0. -1.
         -5    1    3    3    0  502  0.95127831372E+02  0.76178989285E+02  0.23629945070E+03  0.26590871650E+03  0.41800000000E+01 0. -1.
        -11    1    1    2    0    0 -0.99893944104E+02 -0.44922067834E+02  0.59191000942E+02  0.12450046923E+03  0.00000000000E+00 0.  1.
         11    1    1    2    0    0  0.16079182312E+02 -0.87440706342E+01 -0.69600158284E+01  0.19581641795E+02  0.00000000000E+00 0. -1.
</event>
<event>
 7    1  0.2693725E-009  0.1007036E+03  0.7561462E-02  0.1278823E+00
         -3   -1    0    0    0  501 -0.00000000000E+00  0.00000000000E+00  0.36816202732E+02  0.36816202732E+02  0.00000000000E+00 0.  1.
          3   -1    0    0  501    0  0.00000000000E+00 -0.00000000000E+00 -0.46636545285E+03  0.46636545285E+03  0.00000000000E+00 0. -1.
         25    2    1    2    0    0  0.48052615389E+02  0.34966499244E+02 -0.15696265566E+03  0.20932466828E+03  0.12509129292E+03 0.  0.
          5    1    3    3  502    0 -0.37084700002E+02 -0.73889686406E+01 -0.73365116508E+02  0.82642510563E+02  0.41800000000E+01 0. -1.
         -5    1    3    3    0  502  0.85137315391E+02  0.42355467884E+02 -0.83597539152E+02  0.12668215772E+03  0.41800000000E+01 0. -1.
        -11    1    1    2    0    0 -0.38099398635E+02 -0.41451316077E+02 -0.27585054054E+03  0.28153738028E+03  0.00000000000E+00 0. -1.
         11    1    1    2    0    0 -0.99532167542E+01  0.64848168338E+01  0.32639460799E+01  0.12319607020E+02  0.00000000000E+00 0.  1.
</event>
<event>
 7    1  0.2693725E-009  0.1072476E+03  0.7561462E-02  0.1265754E+00
         -2   -1    0    0    0  501 -0.00000000000E+00  0.00000000000E+00  0.83498626873E+02  0.83498626873E+02  0.00000000000E+00 0.  1.
          2   -1    0    0  501    0  0.00000000000E+00 -0.00000000000E+00 -0.18944875422E+03  0.18944875422E+03  0.00000000000E+00 0. -1.
         25    2    1    2    0    0  0.31640243367E+02 -0.46207325484E+02 -0.33063022026E+02  0.14098427237E+03  0.12508868734E+03 0.  0.
          5    1    3    3  502    0  0.52587694093E+02  0.14791805203E+02 -0.49997026020E+02  0.74171679784E+02  0.41800000000E+01 0. -1.
         -5    1    3    3    0  502 -0.20947450726E+02 -0.60999130687E+02  0.16934003994E+02  0.66812592583E+02  0.41800000000E+01 0. -1.
        -11    1    1    2    0    0  0.24504790154E+02  0.39852396022E+01  0.67911820248E+01  0.25738823370E+02  0.00000000000E+00 0.  1.
         11    1    1    2    0    0 -0.56145033521E+02  0.42222085882E+02 -0.79678287349E+02  0.10622428536E+03  0.00000000000E+00 0. -1.
</event>
<event>
 7    1  0.2693725E-009  0.1225314E+03  0.7561462E-02  0.1238978E+00
          3   -1    0    0  501    0  0.00000000000E+00  0.00000000000E+00  0.46596533672E+02  0.46596533672E+02  0.00000000000E+00 0. -1.
         -3   -1    0    0    0  501 -0.00000000000E+00 -0.00000000000E+00 -0.36523215491E+03  0.36523215491E+03  0.00000000000E+00 0.  1.
         25    2    1    2    0    0 -0.37553638381E+02  0.61033866766E+02 -0.15812858184E+03  0.21398092763E+03  0.12509108820E+03 0.  0.
          5    1    3    3  502    0  0.15333115098E+02  0.74737565562E+02 -0.13369049128E+03  0.15398515508E+03  0.41800000000E+01 0.  1.
         -5    1    3    3    0  502 -0.52886753479E+02 -0.13703698795E+02 -0.24438090560E+02  0.59995772555E+02  0.41800000000E+01 0.  1.
        -11    1    1    2    0    0  0.65752530933E+02 -0.31099080696E+02 -0.11863557762E+03  0.13915799805E+03  0.00000000000E+00 0.  1.
         11    1    1    2    0    0 -0.28198892552E+02 -0.29934786070E+02 -0.41871461778E+02  0.58689762903E+02  0.00000000000E+00 0. -1.
</event>
<event>
 7    1  0.2693725E-009  0.1095431E+03  0.7561462E-02  0.1261418E+00
          1   -1    0    0  501    0  0.00000000000E+00  0.00000000000E+00  0.70428793767E+02  0.70428793767E+02  0.00000000000E+00 0. -1.
         -1   -1    0    0    0  501 -0.00000000000E+00 -0.00000000000E+00 -0.23520487462E+03  0.23520487462E+03  0.00000000000E+00 0.  1.
         25    2    1    2    0    0 -0.66948920841E+02  0.90470354776E+01 -0.75008535254E+02  0.16074096782E+03  0.12508945408E+03 0.  0.
          5    1    3    3  502    0 -0.48105408377E+02 -0.51204055388E+02 -0.11900035250E+02  0.71379750926E+02  0.41800000000E+01 0.  1.
         -5    1    3    3    0  502 -0.18843512464E+02  0.60251090866E+02 -0.63108500004E+02  0.89361216897E+02  0.41800000000E+01 0.  1.
        -11    1    1    2    0    0  0.33139480745E+02  0.21803438491E+02 -0.90826229820E+02  0.99111145374E+02  0.00000000000E+00 0.  1.
         11    1    1    2    0    0  0.33809440095E+02 -0.30850473969E+02  0.10586842182E+01  0.45781555194E+02  0.00000000000E+00 0. -1.
</event>
<event>
 7    1  0.2756131E-009  0.1692696E+03  0.7561462E-02  0.1178612E+00
         -2   -1    0    0    0  501 -0.00000000000E+00  0.00000000000E+00  0.45461539944E+02  0.45461539944E+02  0.00000000000E+00 0.  1.
          2   -1    0    0  501    0  0.00000000000E+00 -0.00000000000E+00 -0.75900894970E+03  0.75900894970E+03  0.00000000000E+00 0. -1.
         25    2    1    2    0    0 -0.11839800624E+03  0.87411150258E+02 -0.43978418160E+03  0.48032955777E+03  0.12509020988E+03 0.  0.
          5    1    3    3  502    0 -0.10056190242E+03  0.10611320660E+02 -0.15751881938E+03  0.18722966433E+03  0.41800000000E+01 0. -1.
         -5    1    3    3    0  502 -0.17836103823E+02  0.76799829599E+02 -0.28226536222E+03  0.29309989344E+03  0.41800000000E+01 0. -1.
        -11    1    1    2    0    0  0.51916037817E+02 -0.74259864206E+02 -0.87616687283E+02  0.12604160545E+03  0.00000000000E+00 0.  1.
         11    1    1    2    0    0  0.66481968427E+02 -0.13151286052E+02 -0.18614654087E+03  0.19809932642E+03  0.00000000000E+00 0. -1.
</event>
<event>
 7    1  0.2693725E-009  0.1162197E+03  0.7561462E-02  0.1249467E+00
          1   -1    0    0  501    0  0.00000000000E+00  0.00000000000E+00  0.18921644144E+03  0.18921644144E+03  0.00000000000E+00 0. -1.
         -1   -1    0    0    0  501 -0.00000000000E+00 -0.00000000000E+00 -0.10779491277E+03  0.10779491277E+03  0.00000000000E+00 0.  1.
         25    2    1    2    0    0 -0.20168691409E+02 -0.56371790017E+02  0.11841616977E+03  0.18236038236E+03  0.12509342497E+03 0.  0.
          5    1    3    3  502    0 -0.70933373529E+02 -0.27260426975E+02  0.87765850038E+02  0.11616794391E+03  0.41800000000E+01 0. -1.
         -5    1    3    3    0  502  0.50764682120E+02 -0.29111363042E+02  0.30650319732E+02  0.66192438455E+02  0.41800000000E+01 0. -1.
        -11    1    1    2    0    0 -0.20383334411E+02  0.53220679676E+02 -0.45705750519E+02  0.73054340715E+02  0.00000000000E+00 0.  1.
         11    1    1    2    0    0  0.40552025819E+02  0.31511103408E+01  0.87111094151E+01  0.41596631133E+02  0.00000000000E+00 0. -1.
</event>
<event>
 7    1  0.2693725E-009  0.1079935E+03  0.7561462E-02  0.1264331E+00
          1   -1    0    0  501    0  0.00000000000E+00  0.00000000000E+00  0.13622762513E+03  0.13622762513E+03  0.00000000000E+00 0. -1.
         -1   -1    0    0    0  501 -0.00000000000E+00 -0.00000000000E+00 -0.11037974292E+03  0.11037974292E+03  0.00000000000E+00 0.  1.
         25    2    1    2    0    0  0.48521477933E+02 -0.21958541955E+02 -0.13264726655E+02  0.13660460079E+03  0.12509337551E+03 0.  0.
          5    1    3    3  502    0  0.10194138669E+02 -0.68333202994E+02 -0.27766471352E+02  0.74577452531E+02  0.41800000000E+01 0.  1.
         -5    1    3    3    0  502  0.38327339264E+02  0.46374661040E+02  0.14501744698E+02  0.62027148257E+02  0.41800000000E+01 0.  1.
        -11    1    1    2    0    0 -0.51211197572E+02 -0.11836444100E+02  0.51807687919E+02  0.73801928791E+02  0.00000000000E+00 0. -1.
         11    1    1    2    0    0  0.26897196381E+01  0.33794986055E+02 -0.12695079052E+02  0.36200838475E+02  0.00000000000E+00 0.  1.
</event>
<event>
 7    1  0.2693725E-009  0.2070818E+03  0.7561462E-02  0.1143898E+00
          1   -1    0    0  501    0  0.00000000000E+00  0.00000000000E+00  0.28016068616E+03  0.28016068616E+03  0.00000000000E+00 0. -1.
         -1   -1    0    0    0  501 -0.00000000000E+00 -0.00000000000E+00 -0.19432315830E+03  0.19432315830E+03  0.00000000000E+00 0.  1.
         25    2    1    2    0    0 -0.33061768252E+02  0.19086592758E+03 -0.27993233022E+02  0.23228077992E+03  0.12509139377E+03 0.  0.
          5    1    3    3  502    0 -0.68124818355E+02  0.13469110640E+03  0.17239610192E+02  0.15197816152E+03  0.41800000000E+01 0. -1.
         -5    1    3    3    0  502  0.35063050103E+02  0.56174821180E+02 -0.45232843214E+02  0.80302618403E+02  0.41800000000E+01 0. -1.
        -11    1    1    2    0    0  0.20249217473E+01 -0.11262219879E+03  0.17025739276E+02  0.11391986555E+03  0.00000000000E+00 0.  1.
         11    1    1    2    0    0  0.31036846505E+02 -0.78243728785E+02  0.96805021601E+02  0.12828319899E+03  0.00000000000E+00 0. -1.
</event>
<event>
 7    1  0.3546872E-009  0.7797658E+02  0.7561462E-02  0.1334894E+00
         -3   -1    0    0    0  501 -0.00000000000E+00  0.00000000000E+00  0.81393609981E+02  0.81393609981E+02  0.00000000000E+00 0.  1.
          3   -1    0    0  501    0  0.00000000000E+00 -0.00000000000E+00 -0.17290587184E+03  0.17290587184E+03  0.00000000000E+00 0. -1.
         25    2    1    2    0    0 -0.22713778612E+02  0.15882340735E+02 -0.92803687262E+01  0.12846146463E+03  0.12509219866E+03 0.  0.
          5    1    3    3  502    0 -0.36245619124E+00  0.58681888799E+02 -0.39944233730E+02  0.71110545321E+02  0.41800000000E+01 0.  1.
         -5    1    3    3    0  502 -0.22351322420E+02 -0.42799548064E+02  0.30663865004E+02  0.57350919307E+02  0.41800000000E+01 0.  1.
        -11    1    1    2    0    0 -0.90027235525E+01 -0.14303302643E+02  0.15588594586E+02  0.22992124283E+02  0.00000000000E+00 0.  1.
         11    1    1    2    0    0  0.31716502164E+02 -0.15790380929E+01 -0.97820487715E+02  0.10284589291E+03  0.00000000000E+00 0. -1.
</event>
<event>
 7    1  0.2693725E-009  0.1094813E+03  0.7561462E-02  0.1261533E+00
         -1   -1    0    0    0  501 -0.00000000000E+00  0.00000000000E+00  0.16252907560E+02  0.16252907560E+02  0.00000000000E+00 0.  1.
          1   -1    0    0  501    0  0.00000000000E+00 -0.00000000000E+00 -0.10130824255E+04  0.10130824255E+04  0.00000000000E+00 0. -1.
         25    2    1    2    0    0  0.41744231276E+02 -0.50046965041E+01 -0.76532187306E+03  0.77661597234E+03  0.12508865372E+03 0.  0.
          5    1    3    3  502    0  0.77240911664E+02 -0.35147011752E+02 -0.51591609513E+03  0.52286552811E+03  0.41800000000E+01 0. -1.
         -5    1    3    3    0  502 -0.35496680388E+02  0.30142315248E+02 -0.24940577792E+03  0.25375044423E+03  0.41800000000E+01 0. -1.
        -11    1    1    2    0    0 -0.75620962695E+01 -0.34317507781E+02 -0.16247315204E+03  0.16622996654E+03  0.00000000000E+00 0. -1.
         11    1    1    2    0    0 -0.34182135007E+02  0.39322204285E+02 -0.69034492841E+02  0.86489394179E+02  0.00000000000E+00 0.  1.
</event>
<event>
 7    1  0.2693725E-009  0.1765175E+03  0.7561462E-02  0.1171217E+00
          1   -1    0    0  501    0  0.00000000000E+00  0.00000000000E+00  0.10548169276E+04  0.10548169276E+04  0.00000000000E+00 0. -1.
         -1   -1    0    0    0  501 -0.00000000000E+00 -0.00000000000E+00 -0.73656233343E+02  0.73656233343E+02  0.00000000000E+00 0.  1.
         25    2    1    2    0    0 -0.87415234814E+02  0.13487884467E+03  0.90623316681E+03  0.92883801294E+03  0.12509106938E+03 0.  0.
          5    1    3    3  502    0  0.21007062896E+02  0.15492476520E+02  0.31128154600E+03  0.31240196350E+03  0.41800000000E+01 0. -1.
         -5    1    3    3    0  502 -0.10842229771E+03  0.11938636815E+03  0.59495162081E+03  0.61643604944E+03  0.41800000000E+01 0. -1.
        -11    1    1    2    0    0  0.25974629173E+02 -0.75447954257E+02 -0.84311351304E+01  0.80238140568E+02  0.00000000000E+00 0.  1.
         11    1    1    2    0    0  0.61440605642E+02 -0.59430890415E+02  0.83358662571E+02  0.11939700743E+03  0.00000000000E+00 0. -1.
</event>
<event>
 7    1  0.2693725E-009  0.1348504E+03  0.7561462E-02  0.1220431E+00
          1   -1    0    0  501    0  0.00000000000E+00  0.00000000000E+00  0.47025912276E+03  0.47025912276E+03  0.00000000000E+00 0. -1.
         -1   -1    0    0    0  501 -0.00000000000E+00 -0.00000000000E+00 -0.56944821099E+02  0.56944821099E+02  0.00000000000E+00 0.  1.
         25    2    1    2    0    0 -0.10615373588E+03 -0.30350542209E+02  0.13103758035E+03  0.21215349900E+03  0.12509391919E+03 0.  0.
          5    1    3    3  502    0 -0.63674736664E+02 -0.52535355091E+02  0.14061066264E+03  0.16310507801E+03  0.41800000000E+01 0.  1.
         -5    1    3    3    0  502 -0.42478999219E+02  0.22184812882E+02 -0.95730822883E+01  0.49048420991E+02  0.41800000000E+01 0.  1.
        -11    1    1    2    0    0 -0.79175002511E+00  0.31972768506E+02  0.81719324599E+02  0.87754958873E+02  0.00000000000E+00 0.  1.
         11    1    1    2    0    0  0.10694548591E+03 -0.16222262970E+01  0.20055739671E+03  0.22729548598E+03  0.00000000000E+00 0. -1.
</event>
<event>
 7    1  0.2693725E-009  0.1122835E+03  0.7561462E-02  0.1256399E+00
          1   -1    0    0  501    0  0.00000000000E+00  0.00000000000E+00  0.35404747550E+03  0.35404747550E+03  0.00000000000E+00 0. -1.
         -1   -1    0    0    0  501 -0.00000000000E+00 -0.00000000000E+00 -0.38174148951E+02  0.38174148951E+02  0.00000000000E+00 0.  1.
         25    2    1    2    0    0  0.28333711264E+02 -0.19856636680E+02  0.21720727816E+03  0.25302565363E+03  0.12508355005E+03 0.  0.
          5    1    3    3  502    0 -0.31273711709E+02  0.34436176440E+02  0.10371788043E+03  0.11374869851E+03  0.41800000000E+01 0.  1.
         -5    1    3    3    0  502  0.59607422973E+02 -0.54292813119E+02  0.11348939773E+03  0.13927695512E+03  0.41800000000E+01 0.  1.
        -11    1    1    2    0    0 -0.48650044011E+00 -0.35318615408E+02  0.26350064098E+02  0.44067756410E+02  0.00000000000E+00 0. -1.
         11    1    1    2    0    0 -0.27847210824E+02  0.55175252088E+02  0.72315984297E+02  0.95128214419E+02  0.00000000000E+00 0.  1.
</event>
<event>
 7    1  0.2693725E-009  0.1382642E+03  0.7561462E-02  0.1215684E+00
         -1   -1    0    0    0  501 -0.00000000000E+00  0.00000000000E+00  0.11812476685E+03  0.11812476685E+03  0.00000000000E+00 0.  1.
          1   -1    0    0  501    0  0.00000000000E+00 -0.00000000000E+00 -0.22188374263E+03  0.22188374263E+03  0.00000000000E+00 0. -1.
         25    2    1    2    0    0 -0.80344948684E+02 -0.54373216014E+02  0.16988123387E+02  0.15921099348E+03  0.12509111363E+03 0.  0.
          5    1    3    3  502    0 -0.98681205261E+02 -0.67661246579E+02 -0.14071019633E+02  0.12054663228E+03  0.41800000000E+01 0.  1.
         -5    1    3    3    0  502  0.18336256577E+02  0.13288030565E+02  0.31059143020E+02  0.38664361196E+02  0.41800000000E+01 0.  1.
        -11    1    1    2    0    0  0.10051564106E+03  0.52817857124E+02 -0.94961896374E+02  0.14802324781E+03  0.00000000000E+00 0.  1.
         11    1    1    2    0    0 -0.20170692378E+02  0.15553588904E+01 -0.25785202799E+02  0.32774268195E+02  0.00000000000E+00 0. -1.
</event>
<event>
 7    1  0.2693725E-009  0.1148927E+03  0.7561462E-02  0.1251768E+00
         -1   -1    0    0    0  501 -0.00000000000E+00  0.00000000000E+00  0.14613100572E+03  0.14613100572E+03  0.00000000000E+00 0.  1.
          1   -1    0    0  501    0  0.00000000000E+00 -0.00000000000E+00 -0.17009160841E+03  0.17009160841E+03  0.00000000000E+00 0. -1.
         25    2    1    2    0    0 -0.10863354535E+02  0.95073988118E+02  0.49164728897E+02  0.16498970194E+03  0.12508939000E+03 0.  0.
          5    1    3    3  502    0  0.14080815671E+02  0.13247938417E+01  0.64959461100E+02  0.66612524611E+02  0.41800000000E+01 0. -1.
         -5    1    3    3    0  502 -0.24944170206E+02  0.93749194276E+02 -0.15794732202E+02  0.98377177333E+02  0.41800000000E+01 0. -1.
        -11    1    1    2    0    0 -0.28730697581E+02 -0.52147460727E+02 -0.71186067508E+02  0.92802299815E+02  0.00000000000E+00 0. -1.
         11    1    1    2    0    0  0.39594052115E+02 -0.42926527391E+02 -0.19392640814E+01  0.58430612370E+02  0.00000000000E+00 0.  1.
</event>
<event>
 7    1  0.2693725E-009  0.1781050E+03  0.7561462E-02  0.1169650E+00
         -2   -1    0    0    0  501 -0.00000000000E+00  0.00000000000E+00  0.11269071186E+03  0.11269071186E+03  0.00000000000E+00 0.  1.
          2   -1    0    0  501    0  0.00000000000E+00 -0.00000000000E+00 -0.42417851902E+03  0.42417851902E+03  0.00000000000E+00 0. -1.
         25    2    1    2    0    0 -0.16567410384E+03  0.39772695266E+02 -0.26363846903E+03  0.33790888250E+03  0.12508954612E+03 0.  0.
          5    1    3    3  502    0 -0.11975068394E+03 -0.10704565451E+01 -0.24632000299E+03  0.27392040532E+03  0.41800000000E+01 0.  1.
         -5    1    3    3    0  502 -0.45923419901E+02  0.40843151811E+02 -0.17318466042E+02  0.63988477177E+02  0.41800000000E+01 0.  1.
        -11    1    1    2    0    0  0.14298259868E+03 -0.19412072632E+02 -0.25001670520E+01  0.14431598291E+03  0.00000000000E+00 0.  1.
         11    1    1    2    0    0  0.22691505165E+02 -0.20360622634E+02 -0.45349171070E+02  0.54644365469E+02  0.00000000000E+00 0. -1.
</event>
<event>
 7    1  0.2693725E-009  0.1182878E+03  0.7561462E-02  0.1245949E+00
          2   -1    0    0  501    0  0.00000000000E+00  0.00000000000E+00  0.40224170880E+03  0.40224170880E+03  0.00000000000E+00 0. -1.
         -2   -1    0    0    0  501 -0.00000000000E+00 -0.00000000000E+00 -0.56757146092E+02  0.56757146092E+02  0.00000000000E+00 0.  1.
         25    2    1    2    0    0 -0.93644220566E+02  0.10133640604E+01  0.26438788291E+03  0.30711370372E+03  0.12509039703E+03 0.  0.
          5    1    3    3  502    0  0.93370582858E+00  0.38883333877E+02  0.23747052562E+02  0.45762215477E+02  0.41800000000E+01 0. -1.
         -5    1    3    3    0  502 -0.94577926394E+02 -0.37869969816E+02  0.24064083035E+03  0.26135148824E+03  0.41800000000E+01 0. -1.
        -11    1    1    2    0    0  0.42792733974E+02 -0.97689799590E+01 -0.11947701215E+02  0.45490643155E+02  0.00000000000E+00 0.  1.
         11    1    1    2    0    0  0.50851486592E+02  0.87556158987E+01  0.93044381008E+02  0.10639450801E+03  0.00000000000E+00 0. -1.
</event>
<event>
 7    1  0.2693725E-009  0.1370776E+03  0.7561462E-02  0.1217316E+00
          2   -1    0    0  501    0  0.00000000000E+00  0.00000000000E+00  0.10911652821E+04  0.10911652821E+04  0.00000000000E+00 0.  1.
         -2   -1    0    0    0  501 -0.00000000000E+00 -0.00000000000E+00 -0.22237143569E+02  0.22237143569E+02  0.00000000000E+00 0. -1.
         25    2    1    2    0    0 -0.87938286999E+02  0.66258109814E+02  0.50342079240E+03  0.53028634616E+03  0.12509130772E+03 0.  0.
          5    1    3    3  502    0 -0.40161844295E+02  0.73859796904E+02  0.45117302445E+03  0.45895840087E+03  0.41800000000E+01 0.  1.
         -5    1    3    3    0  502 -0.47776442703E+02 -0.76016870899E+01  0.52247767950E+02  0.71327945293E+02  0.41800000000E+01 0.  1.
        -11    1    1    2    0    0  0.60361413422E+02 -0.87716716009E+02  0.39755205277E+03  0.41156452369E+03  0.00000000000E+00 0. -1.
         11    1    1    2    0    0  0.27576873577E+02  0.21458606195E+02  0.16795529336E+03  0.17155155582E+03  0.00000000000E+00 0.  1.
</event>
<event>
 7    1  0.2693725E-009  0.8461827E+02  0.7561462E-02  0.1316434E+00
          2   -1    0    0  501    0  0.00000000000E+00  0.00000000000E+00  0.66645675231E+03  0.66645675231E+03  0.00000000000E+00 0.  1.
         -2   -1    0    0    0  501 -0.00000000000E+00 -0.00000000000E+00 -0.47184204359E+02  0.47184204359E+02  0.00000000000E+00 0. -1.
         25    2    1    2    0    0  0.58184910698E+02  0.40456925093E+02  0.56936739090E+03  0.58723824102E+03  0.12508908533E+03 0.  0.
          5    1    3    3  502    0  0.28299243488E+02  0.21109491460E+02  0.29542034618E+02  0.46224041591E+02  0.41800000000E+01 0. -1.
         -5    1    3    3    0  502  0.29885667210E+02  0.19347433633E+02  0.53982535628E+03  0.54101419942E+03  0.41800000000E+01 0. -1.
        -11    1    1    2    0    0 -0.92747071540E+01 -0.47523889183E+02  0.58820806855E+02  0.76186793836E+02  0.00000000000E+00 0.  1.
         11    1    1    2    0    0 -0.48910203544E+02  0.70669640908E+01 -0.89156498087E+01  0.50215921814E+02  0.00000000000E+00 0. -1.
</event>
<event>
 7    1  0.2693725E-009  0.1354754E+03  0.7561462E-02  0.1219550E+00
         -1   -1    0    0    0  501 -0.00000000000E+00  0.00000000000E+00  0.22034272718E+02  0.22034272718E+02  0.00000000000E+00 0.  1.
          1   -1    0    0  501    0  0.00000000000E+00 -0.00000000000E+00 -0.19321026339E+04  0.19321026339E+04  0.00000000000E+00 0. -1.
         25    2    1    2    0    0 -0.96836518258E+02  0.36790235088E+02 -0.16783049367E+04  0.16861448629E+04  0.12508479327E+03 0.  0.
          5    1    3    3  502    0 -0.18951460087E+02  0.73535618393E+02 -0.75207341199E+03  0.75590907815E+03  0.41800000000E+01 0. -1.
         -5    1    3    3    0  502 -0.77885058171E+02 -0.36745383305E+02 -0.92623152470E+03  0.93023578475E+03  0.41800000000E+01 0. -1.
        -11    1    1    2    0    0  0.19705870478E+02 -0.23063461802E+02 -0.86810060886E+01  0.31553200603E+02  0.00000000000E+00 0.  1.
         11    1    1    2    0    0  0.77130647781E+02 -0.13726773286E+02 -0.22308241841E+03  0.23643884311E+03  0.00000000000E+00 0. -1.
</event>
<event>
 7    1  0.3382216E-009  0.1314851E+03  0.7561462E-02  0.1225269E+00
         -1   -1    0    0    0  501 -0.00000000000E+00  0.00000000000E+00  0.23243886898E+02  0.23243886898E+02  0.00000000000E+00 0. -1.
          1   -1    0    0  501    0  0.00000000000E+00 -0.00000000000E+00 -0.87683058364E+03  0.87683058364E+03  0.00000000000E+00 0.  1.
         25    2    1    2    0    0 -0.13405402771E+01 -0.93162271317E+02 -0.45973076269E+03  0.48546995026E+03  0.12509073744E+03 0.  0.
          5    1    3    3  502    0  0.51179617716E+02 -0.72590690824E+02 -0.18869238379E+03  0.20859302425E+03  0.41800000000E+01 0.  1.
         -5    1    3    3    0  502 -0.52520157993E+02 -0.20571580493E+02 -0.27103837890E+03  0.27687692601E+03  0.41800000000E+01 0.  1.
        -11    1    1    2    0    0 -0.30635098890E+02  0.74302033288E+02 -0.17436084594E+03  0.19199220305E+03  0.00000000000E+00 0. -1.
         11    1    1    2    0    0  0.31975639167E+02  0.18860238029E+02 -0.21949508811E+03  0.22261231723E+03  0.00000000000E+00 0.  1.
</event>
<event>
 7    1  0.2693725E-009  0.1244723E+03  0.7561462E-02  0.1235896E+00
          1   -1    0    0  501    0  0.00000000000E+00  0.00000000000E+00  0.43921737340E+03  0.43921737340E+03  0.00000000000E+00 0. -1.
         -1   -1    0    0    0  501 -0.00000000000E+00 -0.00000000000E+00 -0.44826775776E+02  0.44826775776E+02  0.00000000000E+00 0.  1.
         25    2    1    2    0    0 -0.61329785143E+02 -0.19366269723E+02  0.11068161414E+03  0.17897896049E+03  0.12508658458E+03 0.  0.
          5    1    3    3  502    0 -0.78780893768E+02 -0.57971693418E+02  0.81231733534E+02  0.12721325950E+03  0.41800000000E+01 0. -1.
         -5    1    3    3    0  502  0.17451108625E+02  0.38605423695E+02  0.29449880610E+02  0.51765700989E+02  0.41800000000E+01 0. -1.
        -11    1    1    2    0    0  0.52777557138E+02  0.52385812817E+02  0.15502556023E+03  0.17193797791E+03  0.00000000000E+00 0. -1.
         11    1    1    2    0    0  0.85522280055E+01 -0.33019543094E+02  0.12868342325E+03  0.13312721077E+03  0.00000000000E+00 0.  1.
</event>
<event>
 7    1  0.2693725E-009  0.3431873E+03  0.7561462E-02  0.1065447E+00
          1   -1    0    0  501    0  0.00000000000E+00  0.00000000000E+00  0.12904784524E+04  0.12904784524E+04  0.00000000000E+00 0. -1.
         -1   -1    0    0    0  501 -0.00000000000E+00 -0.00000000000E+00 -0.10358364669E+03  0.10358364669E+03  0.00000000000E+00 0.  1.
         25    2    1    2    0    0 -0.13227000630E+03 -0.31090337432E+03  0.76637478062E+03  0.84683770175E+03  0.12509007158E+03 0.  0.
          5    1    3    3  502    0 -0.10371318621E+03 -0.13521506579E+03  0.48274549718E+03  0.51195725061E+03  0.41800000000E+01 0.  1.
         -5    1    3    3    0  502 -0.28556820089E+02 -0.17568830853E+03  0.28362928344E+03  0.33488045114E+03  0.41800000000E+01 0.  1.
        -11    1    1    2    0    0  0.11583194453E+03  0.27211120665E+03  0.30763181758E+03  0.42673045749E+03  0.00000000000E+00 0.  1.
         11    1    1    2    0    0  0.16438061766E+02  0.38792167668E+02  0.11288820756E+03  0.12049393990E+03  0.00000000000E+00 0. -1.
</event>
<event>
 7    1  0.2693725E-009  0.1283974E+03  0.7561462E-02  0.1229853E+00
          1   -1    0    0  501    0  0.00000000000E+00  0.00000000000E+00  0.11073325495E+03  0.11073325495E+03  0.00000000000E+00 0. -1.
         -1   -1    0    0    0  501 -0.00000000000E+00 -0.00000000000E+00 -0.22177680061E+03  0.22177680061E+03  0.00000000000E+00 0.  1.
         25    2    1    2    0    0  0.10342067681E+03  0.42762384831E+02 -0.46520388641E+02  0.17417363051E+03  0.12509136285E+03 0.  0.
          5    1    3    3  502    0  0.11426068333E+02 -0.26808022715E+02 -0.50761991467E+02  0.58681149419E+02  0.41800000000E+01 0. -1.
         -5    1    3    3    0  502  0.91994608473E+02  0.69570407546E+02  0.42416028260E+01  0.11549248109E+03  0.41800000000E+01 0. -1.
        -11    1    1    2    0    0 -0.42678090142E+02 -0.18978385981E+02 -0.78759770563E+02  0.91568007359E+02  0.00000000000E+00 0.  1.
         11    1    1    2    0    0 -0.60742586663E+02 -0.23783998850E+02  0.14236613550E+02  0.66768417692E+02  0.00000000000E+00 0. -1.
</event>
<event>
 7    1  0.2693725E-009  0.1139207E+03  0.7561462E-02  0.1253477E+00
         -1   -1    0    0    0  501 -0.00000000000E+00  0.00000000000E+00  0.10282720215E+03  0.10282720215E+03  0.00000000000E+00 0.  1.
          1   -1    0    0  501    0  0.00000000000E+00 -0.00000000000E+00 -0.14804462522E+03  0.14804462522E+03  0.00000000000E+00 0. -1.
         25    2    1    2    0    0  0.43101294597E+02  0.36403518359E+02 -0.39447355066E+02  0.14278251340E+03  0.12509122497E+03 0.  0.
          5    1    3    3  502    0  0.11880415629E+02  0.72119228490E+02 -0.56206103946E+02  0.92298027683E+02  0.41800000000E+01 0.  1.
         -5    1    3    3    0  502  0.31220878968E+02 -0.35715710131E+02  0.16758748880E+02  0.50484485713E+02  0.41800000000E+01 0.  1.
        -11    1    1    2    0    0  0.15154675666E+02  0.20553161159E+02 -0.74447910752E+01  0.26599277102E+02  0.00000000000E+00 0. -1.
         11    1    1    2    0    0 -0.58255970263E+02 -0.56956679518E+02  0.16747230693E+01  0.81490036878E+02  0.00000000000E+00 0.  1.
</event>
<event>
 7    1  0.2693725E-009  0.1258772E+03  0.7561462E-02  0.1233705E+00
         -1   -1    0    0    0  501 -0.00000000000E+00  0.00000000000E+00  0.10405351885E+03  0.10405351885E+03  0.00000000000E+00 0.  1.
          1   -1    0    0  501    0  0.00000000000E+00 -0.00000000000E+00 -0.24337389703E+03  0.24337389703E+03  0.00000000000E+00 0. -1.
         25    2    1    2    0    0 -0.13533605557E+02  0.71926894792E+02  0.23359955106E+02  0.14680287122E+03  0.12509499919E+03 0.  0.
          5    1    3    3  502    0 -0.68386542635E+02  0.52890348279E+02  0.17404226682E+02  0.88286395674E+02  0.41800000000E+01 0.  1.
         -5    1    3    3    0  502  0.54852937078E+02  0.19036546513E+02  0.59557284232E+01  0.58516475546E+02  0.41800000000E+01 0.  1.
        -11    1    1    2    0    0  0.24680791007E+02 -0.85749422044E+02 -0.93678754286E+02  0.12937470321E+03  0.00000000000E+00 0.  1.
         11    1    1    2    0    0 -0.11147185449E+02  0.13822527252E+02 -0.69001578996E+02  0.71249841453E+02  0.00000000000E+00 0. -1.
</event>
<event>
 7    1  0.2693725E-009  0.9347177E+02  0.7561462E-02  0.1294656E+00
          2   -1    0    0  501    0  0.00000000000E+00  0.00000000000E+00  0.31619996424E+02  0.31619996424E+02  0.00000000000E+00 0. -1.
         -2   -1    0    0    0  501 -0.00000000000E+00 -0.00000000000E+00 -0.51901415888E+03  0.51901415888E+03  0.00000000000E+00 0.  1.
         25    2    1    2    0    0 -0.66124848592E+02  0.13254854424E+02 -0.34327131258E+03  0.37152521463E+03  0.12509038451E+03 0.  0.
          5    1    3    3  502    0 -0.89400338905E+02  0.20214915455E+02 -0.33195340913E+03  0.34440035081E+03  0.41800000000E+01 0.  1.
         -5    1    3    3    0  502  0.23275490313E+02 -0.69600610310E+01 -0.11317903455E+02  0.27124863824E+02  0.41800000000E+01 0.  1.
        -11    1    1    2    0    0  0.22538825067E+02  0.53247987067E+01 -0.12642811236E+03  0.12853178483E+03  0.00000000000E+00 0.  1.
         11    1    1    2    0    0  0.43586023525E+02 -0.18579653131E+02 -0.17694737505E+02  0.50577155837E+02  0.00000000000E+00 0. -1.
</event>
<event>
 7    1  0.2693725E-009  0.1051499E+03  0.7561462E-02  0.1269825E+00
         -1   -1    0    0    0  501 -0.00000000000E+00  0.00000000000E+00  0.18221868569E+03  0.18221868569E+03  0.00000000000E+00 0.  1.
          1   -1    0    0  501    0  0.00000000000E+00 -0.00000000000E+00 -0.64836793913E+02  0.64836793913E+02  0.00000000000E+00 0. -1.
         25    2    1    2    0    0  0.11244851580E+02 -0.37624170165E+00  0.62457957687E+02  0.14026851389E+03  0.12509065219E+03 0.  0.
          5    1    3    3  502    0 -0.34594090218E+02  0.46757624940E+02  0.18941118018E+02  0.61312844656E+02  0.41800000000E+01 0.  1.
         -5    1    3    3    0  502  0.45838941798E+02 -0.47133866641E+02  0.43516839668E+02  0.78955669235E+02  0.41800000000E+01 0.  1.
        -11    1    1    2    0    0  0.20381643133E+02 -0.33844665993E+02  0.43592341537E+02  0.58831666929E+02  0.00000000000E+00 0.  1.
         11    1    1    2    0    0 -0.31626494713E+02  0.34220907695E+02  0.11331592550E+02  0.47955298779E+02  0.00000000000E+00 0. -1.
</event>
<event>
 7    1  0.2693725E-009  0.7765961E+02  0.7561462E-02  0.1335827E+00
         -2   -1    0    0    0  501 -0.00000000000E+00  0.00000000000E+00  0.24906144463E+02  0.24906144463E+02  0.00000000000E+00 0. -1.
          2   -1    0    0  501    0  0.00000000000E+00 -0.00000000000E+00 -0.58633406262E+03  0.58633406262E+03  0.00000000000E+00 0.  1.
         25    2    1    2    0    0 -0.14788772974E+02  0.46010664849E+02 -0.29410952687E+03  0.32323921749E+03  0.12508992302E+03 0.  0.
          5    1    3    3  502    0  0.57107799232E+01  0.32505836954E+02 -0.29637374628E+03  0.29823499514E+03  0.41800000000E+01 0. -1.
         -5    1    3    3    0  502 -0.20499552897E+02  0.13504827895E+02  0.22642194131E+01  0.25004222343E+02  0.41800000000E+01 0. -1.
        -11    1    1    2    0    0  0.43716614396E+02 -0.51661193865E+02 -0.23365076853E+03  0.24325439968E+03  0.00000000000E+00 0.  1.
         11    1    1    2    0    0 -0.28927841422E+02  0.56505290160E+01 -0.33667622760E+02  0.44746589924E+02  0.00000000000E+00 0. -1.
</event>
<event>
 7    1  0.2693725E-009  0.1049445E+03  0.7561462E-02  0.1270229E+00
         -1   -1    0    0    0  501 -0.00000000000E+00  0.00000000000E+00  0.33236889619E+03  0.33236889619E+03  0.00000000000E+00 0.  1.
          1   -1    0    0  501    0  0.00000000000E+00 -0.00000000000E+00 -0.58482414196E+02  0.58482414196E+02  0.00000000000E+00 0. -1.
         25    2    1    2    0    0 -0.82727653382E+02  0.29984203573E+02  0.14577570815E+03  0.21128337452E+03  0.12508872917E+03 0.  0.
          5    1    3    3  502    0 -0.65314307631E+02  0.57922882064E+02  0.15401991447E+03  0.17708931504E+03  0.41800000000E+01 0. -1.
         -5    1    3    3    0  502 -0.17413345751E+02 -0.27938678491E+02 -0.82442063211E+01  0.34194059484E+02  0.41800000000E+01 0. -1.
        -11    1    1    2    0    0  0.55423484723E+02 -0.27548622820E+02  0.13734127173E+03  0.15064300248E+03  0.00000000000E+00 0.  1.
         11    1    1    2    0    0  0.27304168660E+02 -0.24355807530E+01 -0.92304978818E+01  0.28924933378E+02  0.00000000000E+00 0. -1.
</event>
<event>
 7    1  0.3236563E-009  0.1223847E+03  0.7561462E-02  0.1239214E+00
         -2   -1    0    0    0  501 -0.00000000000E+00  0.00000000000E+00  0.89408883982E+02  0.89408883982E+02  0.00000000000E+00 0.  1.
          2   -1    0    0  501    0  0.00000000000E+00 -0.00000000000E+00 -0.18773092991E+03  0.18773092991E+03  0.00000000000E+00 0. -1.
         25    2    1    2    0    0 -0.57324050233E+02 -0.66056988833E+01 -0.11467386048E+02  0.13823468068E+03  0.12509054324E+03 0.  0.
          5    1    3    3  502    0 -0.75387480089E+02  0.41455205946E+02 -0.98437320720E+01  0.86695892148E+02  0.41800000000E+01 0.  1.
         -5    1    3    3    0  502  0.18063429856E+02 -0.48060904829E+02 -0.16236539756E+01  0.51538788533E+02  0.41800000000E+01 0.  1.
        -11    1    1    2    0    0  0.81185456343E+02 -0.33768812337E+01 -0.56206038760E+02  0.98800811948E+02  0.00000000000E+00 0. -1.
         11    1    1    2    0    0 -0.23861406110E+02  0.99825801170E+01 -0.30648621118E+02  0.40104321261E+02  0.00000000000E+00 0.  1.
</event>
<event>
 7    1  0.2693725E-009  0.1021440E+03  0.7561462E-02  0.1275851E+00
          4   -1    0    0  501    0  0.00000000000E+00  0.00000000000E+00  0.26608358126E+03  0.26608358126E+03  0.00000000000E+00 0. -1.
         -4   -1    0    0    0  501 -0.00000000000E+00 -0.00000000000E+00 -0.47085269589E+02  0.47085269589E+02  0.00000000000E+00 0.  1.
         25    2    1    2    0    0 -0.21901139452E+02  0.20974603194E+02  0.15028021520E+03  0.19786492259E+03  0.12508713212E+03 0.  0.
          5    1    3    3  502    0  0.91825605577E+01 -0.49212453952E+02  0.74988774007E+02  0.90260587575E+02  0.41800000000E+01 0.  1.
         -5    1    3    3    0  502 -0.31083700010E+02  0.70187057146E+02  0.75291441190E+02  0.10760433501E+03  0.41800000000E+01 0.  1.
        -11    1    1    2    0    0  0.16098175948E+02  0.25600259664E+02 -0.21338946966E+01  0.30316300406E+02  0.00000000000E+00 0.  1.
         11    1    1    2    0    0  0.58029635039E+01 -0.46574862857E+02  0.70851991169E+02  0.84987627854E+02  0.00000000000E+00 0. -1.
</event>
<event>
 7    1  0.2693725E-009  0.1729155E+03  0.7561462E-02  0.1174841E+00
         -2   -1    0    0    0  501 -0.00000000000E+00  0.00000000000E+00  0.21150877717E+02  0.21150877717E+02  0.00000000000E+00 0.  1.
          2   -1    0    0  501    0  0.00000000000E+00 -0.00000000000E+00 -0.18535085209E+04  0.18535085209E+04  0.00000000000E+00 0. -1.
         25    2    1    2    0    0  0.14734510517E+03  0.59498279529E+02 -0.11755120681E+04  0.11927813184E+04  0.12509206955E+03 0.  0.
          5    1    3    3  502    0  0.57056044463E+02  0.75721422467E+02 -0.36704161230E+03  0.37911230999E+03  0.41800000000E+01 0.  1.
         -5    1    3    3    0  502  0.90289060708E+02 -0.16223142937E+02 -0.80847045585E+03  0.81366900840E+03  0.41800000000E+01 0.  1.
        -11    1    1    2    0    0 -0.32236607077E+02 -0.16561053823E+02 -0.44800021847E+02  0.57623860484E+02  0.00000000000E+00 0.  1.
         11    1    1    2    0    0 -0.11510849809E+03 -0.42937225706E+02 -0.61204555323E+03  0.62425421978E+03  0.00000000000E+00 0. -1.
</event>
<event>
 7    1  0.2693725E-009  0.1263868E+03  0.7561462E-02  0.1232918E+00
         -2   -1    0    0    0  501 -0.00000000000E+00  0.00000000000E+00  0.41108254480E+02  0.41108254480E+02  0.00000000000E+00 0.  1.
          2   -1    0    0  501    0  0.00000000000E+00 -0.00000000000E+00 -0.47471176849E+03  0.47471176849E+03  0.00000000000E+00 0. -1.
         25    2    1    2    0    0  0.46226544824E+02  0.63075044187E+02 -0.15391382723E+03  0.21319432374E+03  0.12508796431E+03 0.  0.
          5    1    3    3  502    0 -0.30441964474E+02  0.53459975818E+02 -0.33815714259E+02  0.70325366308E+02  0.41800000000E+01 0. -1.
         -5    1    3    3    0  502  0.76668509298E+02  0.96150683696E+01 -0.12009811297E+03  0.14286895743E+03  0.41800000000E+01 0. -1.
        -11    1    1    2    0    0  0.19477453934E+02  0.39475218841E+01 -0.72394932138E+02  0.75073166578E+02  0.00000000000E+00 0. -1.
         11    1    1    2    0    0 -0.65703998758E+02 -0.67022566071E+02 -0.20729475464E+03  0.22755253265E+03  0.00000000000E+00 0.  1.
</event>
<event>
 7    1  0.2693725E-009  0.1143363E+03  0.7561462E-02  0.1252744E+00
          1   -1    0    0  501    0  0.00000000000E+00  0.00000000000E+00  0.21952218256E+03  0.21952218256E+03  0.00000000000E+00 0. -1.
         -1   -1    0    0    0  501 -0.00000000000E+00 -0.00000000000E+00 -0.99025714787E+02  0.99025714787E+02  0.00000000000E+00 0.  1.
         25    2    1    2    0    0 -0.72040875235E+02 -0.55445528905E+01 -0.10627839096E+02  0.14484893866E+03  0.12509050442E+03 0.  0.
          5    1    3    3  502    0 -0.93353521325E+02  0.33508802296E+02 -0.12883009225E+02  0.10010576458E+03  0.41800000000E+01 0.  1.
         -5    1    3    3    0  502  0.21312646090E+02 -0.39053355187E+02  0.22551701289E+01  0.44743174083E+02  0.41800000000E+01 0.  1.
        -11    1    1    2    0    0  0.65166122443E+02 -0.11646139965E+02  0.33232960408E+02  0.74072165810E+02  0.00000000000E+00 0.  1.
         11    1    1    2    0    0  0.68747527924E+01  0.17190692855E+02  0.97891346465E+02  0.99626792880E+02  0.00000000000E+00 0. -1.
</event>
<event>
 7    1  0.2693725E-009  0.1565846E+03  0.7561462E-02  0.1192608E+00
          1   -1    0    0  501    0  0.00000000000E+00  0.00000000000E+00  0.10005788018E+04  0.10005788018E+04  0.00000000000E+00 0. -1.
         -1   -1    0    0    0  501 -0.00000000000E+00 -0.00000000000E+00 -0.77258046849E+02  0.77258046849E+02  0.00000000000E+00 0.  1.
         25    2    1    2    0    0  0.13291642428E+03  0.43354539244E+02  0.88753642265E+03  0.90714620973E+03  0.12508777872E+03 0.  0.
          5    1    3    3  502    0  0.10838097537E+03  0.51907762807E+02  0.37225583376E+03  0.39119397980E+03  0.41800000000E+01 0. -1.
         -5    1    3    3    0  502  0.24535448910E+02 -0.85532235632E+01  0.51528058889E+03  0.51595222993E+03  0.41800000000E+01 0. -1.
        -11    1    1    2    0    0 -0.13129666606E+03 -0.83448440384E+01  0.24126937394E+02  0.13375559820E+03  0.00000000000E+00 0. -1.
         11    1    1    2    0    0 -0.16197582219E+01 -0.35009695206E+02  0.11657394870E+02  0.36935040683E+02  0.00000000000E+00 0.  1.
</event>
<event>
 7    1  0.2693725E-009  0.1239584E+03  0.7561462E-02  0.1236706E+00
         -3   -1    0    0    0  501 -0.00000000000E+00  0.00000000000E+00  0.22715865165E+03  0.22715865165E+03  0.00000000000E+00 0.  1.
          3   -1    0    0  501    0  0.00000000000E+00 -0.00000000000E+00 -0.11675909533E+03  0.11675909533E+03  0.00000000000E+00 0. -1.
         25    2    1    2    0    0  0.53174681315E+01 -0.10786604720E+03  0.11278220656E+03  0.20007752902E+03  0.12509129425E+03 0.  0.
          5    1    3    3  502    0 -0.78038072528E+01  0.14079791516E+02  0.67099014731E+02  0.69129516956E+02  0.41800000000E+01 0. -1.
         -5    1    3    3    0  502  0.13121275384E+02 -0.12194583871E+03  0.45683191830E+02  0.13094801206E+03  0.41800000000E+01 0. -1.
        -11    1    1    2    0    0  0.54303100885E+00  0.83554775796E+02  0.41528282244E+02  0.93307522029E+02  0.00000000000E+00 0.  1.
         11    1    1    2    0    0 -0.58604991403E+01  0.24311271402E+02 -0.43910932483E+02  0.50532695939E+02  0.00000000000E+00 0. -1.
</event>
<event>
 7    1  0.2693725E-009  0.1605426E+03  0.7561462E-02  0.1188086E+00
         -1   -1    0    0    0  501 -0.00000000000E+00  0.00000000000E+00  0.85229455036E+03  0.85229455036E+03  0.00000000000E+00 0.  1.
          1   -1    0    0  501    0  0.00000000000E+00 -0.00000000000E+00 -0.44881361282E+02  0.44881361282E+02  0.00000000000E+00 0. -1.
         25    2    1    2    0    0  0.14993032474E+03  0.55683999421E+02  0.49389206738E+03  0.53400087865E+03  0.12509098331E+03 0.  0.
          5    1    3    3  502    0  0.67528648187E+02  0.31817465219E+02  0.39927130698E+03  0.40621117463E+03  0.41800000000E+01 0.  1.
         -5    1    3    3    0  502  0.82401676552E+02  0.23866534202E+02  0.94620760404E+02  0.12778970402E+03  0.41800000000E+01 0.  1.
        -11    1    1    2    0    0 -0.10359718727E+03 -0.44593018765E+02  0.28762824203E+03  0.30895132326E+03  0.00000000000E+00 0.  1.
         11    1    1    2    0    0 -0.46333137474E+02 -0.11090980656E+02  0.25892879672E+02  0.54223709739E+02  0.00000000000E+00 0. -1.
</event>
<event>
 7    1  0.2693725E-009  0.1280215E+03  0.7561462E-02  0.1230421E+00
          1   -1    0    0  501    0  0.00000000000E+00  0.00000000000E+00  0.10397174186E+04  0.10397174186E+04  0.00000000000E+00 0. -1.
         -1   -1    0    0    0  501 -0.00000000000E+00 -0.00000000000E+00 -0.23200989485E+02  0.23200989485E+02  0.00000000000E+00 0.  1.
         25    2    1    2    0    0 -0.33484172564E+02  0.68187194670E+02  0.79504387659E+03  0.80840198770E+03  0.12509326397E+03 0.  0.
          5    1    3    3  502    0 -0.74017361779E+02  0.15886943967E+02  0.51894000190E+03  0.52444939013E+03  0.41800000000E+01 0. -1.
         -5    1    3    3    0  502  0.40533189214E+02  0.52300250702E+02  0.27610387468E+03  0.28395259757E+03  0.41800000000E+01 0. -1.
        -11    1    1    2    0    0  0.19671359198E+01  0.20091858279E+02  0.94843384393E+02  0.96968138870E+02  0.00000000000E+00 0.  1.
         11    1    1    2    0    0  0.31517036644E+02 -0.88279052949E+02  0.12662916818E+03  0.15754828156E+03  0.00000000000E+00 0. -1.
</event>
<event>
 7    1  0.2693725E-009  0.8579160E+02  0.7561462E-02  0.1313375E+00
         -1   -1    0    0    0  501 -0.00000000000E+00  0.00000000000E+00  0.12314050431E+03  0.12314050431E+03  0.00000000000E+00 0.  1.
          1   -1    0    0  501    0  0.00000000000E+00 -0.00000000000E+00 -0.28619848413E+03  0.28619848413E+03  0.00000000000E+00 0. -1.
         25    2    1    2    0    0  0.32161206624E+02  0.48714704222E+02  0.69722621449E+02  0.15463682522E+03  0.12507532992E+03 0.  0.
          5    1    3    3  502    0  0.48878718665E+02  0.11730701293E+02 -0.21403377592E+02  0.54793388867E+02  0.41800000000E+01 0.  1.
         -5    1    3    3    0  502 -0.16717512042E+02  0.36984002929E+02  0.91125999041E+02  0.99843436353E+02  0.41800000000E+01 0.  1.
        -11    1    1    2    0    0 -0.44898594581E+02 -0.50393898950E+02 -0.23223388724E+03  0.24184293917E+03  0.00000000000E+00 0. -1.
         11    1    1    2    0    0  0.12737387957E+02  0.16791947281E+01 -0.54671403259E+00  0.12859224049E+02  0.00000000000E+00 0.  1.
</event>
<event>
 7    1  0.2693725E-009  0.3251822E+03  0.7561462E-02  0.1073289E+00
         -1   -1    0    0    0  501 -0.00000000000E+00  0.00000000000E+00  0.39605390742E+03  0.39605390742E+03  0.00000000000E+00 0.  1.
          1   -1    0    0  501    0  0.00000000000E+00 -0.00000000000E+00 -0.27486186932E+03  0.27486186932E+03  0.00000000000E+00 0. -1.
         25    2    1    2    0    0 -0.22250126830E+03  0.21817079160E+03  0.67921299159E+02  0.34258762069E+03  0.12509063221E+03 0.  0.
          5    1    3    3  502    0 -0.10810676099E+03  0.41487334319E+02 -0.13944811991E+02  0.11670561624E+03  0.41800000000E+01 0.  1.
         -5    1    3    3    0  502 -0.11439450731E+03  0.17668345728E+03  0.81866111150E+02  0.22588200445E+03  0.41800000000E+01 0.  1.
        -11    1    1    2    0    0  0.13678219885E+03 -0.18924623973E+03  0.37393590177E+02  0.23647788430E+03  0.00000000000E+00 0.  1.
         11    1    1    2    0    0  0.85719069450E+02 -0.28924551862E+02  0.15877148771E+02  0.91850271752E+02  0.00000000000E+00 0. -1.
</event>
<event>
 7    1  0.2693725E-009  0.1999071E+03  0.7561462E-02  0.1149817E+00
          1   -1    0    0  501    0  0.00000000000E+00  0.00000000000E+00  0.43256713058E+03  0.43256713058E+03  0.00000000000E+00 0. -1.
         -1   -1    0    0    0  501 -0.00000000000E+00 -0.00000000000E+00 -0.11805245458E+03  0.11805245458E+03  0.00000000000E+00 0.  1.
         25    2    1    2    0    0  0.46434584674E+02 -0.17835582482E+03  0.74638490115E+02  0.23491688816E+03  0.12509224290E+03 0.  0.
          5    1    3    3  502    0 -0.34957993725E+02 -0.76518201158E+02  0.60527397088E+02  0.10372142803E+03  0.41800000000E+01 0.  1.
         -5    1    3    3    0  502  0.81392578400E+02 -0.10183762367E+03  0.14111093027E+02  0.13119546013E+03  0.41800000000E+01 0.  1.
        -11    1    1    2    0    0 -0.11927215564E+02  0.21928302370E+02 -0.25936377342E+01  0.25096531087E+02  0.00000000000E+00 0.  1.
         11    1    1    2    0    0 -0.34507369111E+02  0.15642752245E+03  0.24246982362E+03  0.29060616592E+03  0.00000000000E+00 0. -1.
</event>
<event>
 7    1  0.2693725E-009  0.1138732E+03  0.7561462E-02  0.1253561E+00
         -2   -1    0    0    0  501 -0.00000000000E+00  0.00000000000E+00  0.27561939206E+02  0.27561939206E+02  0.00000000000E+00 0. -1.
          2   -1    0    0  501    0  0.00000000000E+00 -0.00000000000E+00 -0.66591075129E+03  0.66591075129E+03  0.00000000000E+00 0.  1.
         25    2    1    2    0    0  0.47526708045E+02  0.63237614547E+02 -0.40473665865E+03  0.43094664298E+03  0.12508182268E+03 0.  0.
          5    1    3    3  502    0 -0.27622318478E+02  0.61595958931E+02 -0.13637946306E+03  0.15222971122E+03  0.41800000000E+01 0.  1.
         -5    1    3    3    0  502  0.75149026523E+02  0.16416556162E+01 -0.26835719560E+03  0.27871693176E+03  0.41800000000E+01 0.  1.
        -11    1    1    2    0    0 -0.27860483370E+02 -0.12738327175E+02 -0.96768945242E+01  0.32126527987E+02  0.00000000000E+00 0. -1.
         11    1    1    2    0    0 -0.19666224674E+02 -0.50499287372E+02 -0.22393525890E+03  0.23039951953E+03  0.00000000000E+00 0.  1.
</event>
<event>
 7    1  0.4289890E-009  0.1140983E+03  0.7561462E-02  0.1253163E+00
          2   -1    0    0  501    0  0.00000000000E+00  0.00000000000E+00  0.17473758503E+04  0.17473758503E+04  0.00000000000E+00 0. -1.
         -2   -1    0    0    0  501 -0.00000000000E+00 -0.00000000000E+00 -0.15365945217E+02  0.15365945217E+02  0.00000000000E+00 0.  1.
         25    2    1    2    0    0  0.41171650722E+02  0.68388401715E+02  0.14245552824E+04  0.14322628554E+04  0.12508819336E+03 0.  0.
          5    1    3    3  502    0 -0.26740631371E+02 -0.22248930068E+02  0.34588384819E+03  0.34765382939E+03  0.41800000000E+01 0. -1.
         -5    1    3    3    0  502  0.67912282093E+02  0.90637331782E+02  0.10786714342E+04  0.10846090260E+04  0.41800000000E+01 0. -1.
        -11    1    1    2    0    0 -0.10570197382E+02 -0.17325351475E+02  0.33103675166E+01  0.20563448385E+02  0.00000000000E+00 0.  1.
         11    1    1    2    0    0 -0.30601453341E+02 -0.51063050240E+02  0.30414425524E+03  0.30991549178E+03  0.00000000000E+00 0. -1.
</event>
<event>
 7    1  0.2693725E-009  0.1203945E+03  0.7561462E-02  0.1242448E+00
          2   -1    0    0  501    0  0.00000000000E+00  0.00000000000E+00  0.15475144042E+04  0.15475144042E+04  0.00000000000E+00 0. -1.
         -2   -1    0    0    0  501 -0.00000000000E+00 -0.00000000000E+00 -0.99177788059E+01  0.99177788059E+01  0.00000000000E+00 0.  1.
         25    2    1    2    0    0 -0.64877705509E+01 -0.56166024168E+02  0.98229110289E+03  0.99183653046E+03  0.12508868418E+03 0.  0.
          5    1    3    3  502    0  0.53802546509E+02 -0.35222220933E+01  0.29795757187E+03  0.30282553904E+03  0.41800000000E+01 0. -1.
         -5    1    3    3    0  502 -0.60290317060E+02 -0.52643802075E+02  0.68433353102E+03  0.68901099142E+03  0.41800000000E+01 0. -1.
        -11    1    1    2    0    0  0.47526264188E+02  0.41137523218E+02  0.29212272565E+03  0.29880884934E+03  0.00000000000E+00 0. -1.
         11    1    1    2    0    0 -0.41038493637E+02  0.15028500950E+02  0.26318279684E+03  0.26678680318E+03  0.00000000000E+00 0.  1.
</event>
<event>
 7    1  0.2693725E-009  0.1163595E+03  0.7561462E-02  0.1249226E+00
         -2   -1    0    0    0  501 -0.00000000000E+00  0.00000000000E+00  0.61506543317E+02  0.61506543317E+02  0.00000000000E+00 0.  1.
          2   -1    0    0  501    0  0.00000000000E+00 -0.00000000000E+00 -0.39949516540E+03  0.39949516540E+03  0.00000000000E+00 0. -1.
         25    2    1    2    0    0  0.85889019031E+02 -0.48694743213E+02 -0.26294305368E+03  0.30746483672E+03  0.12508986664E+03 0.  0.
          5    1    3    3  502    0  0.24503993184E+02 -0.99734551200E+01 -0.22283164846E+03  0.22443558418E+03  0.41800000000E+01 0. -1.
         -5    1    3    3    0  502  0.61385025847E+02 -0.38721288093E+02 -0.40111405216E+02  0.83029252545E+02  0.41800000000E+01 0. -1.
        -11    1    1    2    0    0 -0.85860718821E+02  0.13283337489E+01 -0.40694913577E+02  0.95025804380E+02  0.00000000000E+00 0.  1.
         11    1    1    2    0    0 -0.28300209455E-01  0.47366409464E+02 -0.34350654834E+02  0.58511067619E+02  0.00000000000E+00 0. -1.
</event>
<event>
 7    1  0.2693725E-009  0.1617513E+03  0.7561462E-02  0.1186734E+00
          2   -1    0    0  501    0  0.00000000000E+00  0.00000000000E+00  0.14574936853E+04  0.14574936853E+04  0.00000000000E+00 0. -1.
         -2   -1    0    0    0  501 -0.00000000000E+00 -0.00000000000E+00 -0.24532832407E+02  0.24532832407E+02  0.00000000000E+00 0.  1.
         25    2    1    2    0    0 -0.26691765058E+01 -0.13971116351E+03  0.10202617675E+04  0.10373560792E+04  0.12508887753E+03 0.  0.
          5    1    3    3  502    0 -0.38736207074E+02 -0.75185387825E+02  0.25876784716E+03  0.27227120194E+03  0.41800000000E+01 0.  1.
         -5    1    3    3    0  502  0.36067030568E+02 -0.64525775683E+02  0.76149392031E+03  0.76508487731E+03  0.41800000000E+01 0.  1.
        -11    1    1    2    0    0  0.38775267127E+02  0.11411740127E+03  0.32010588130E+03  0.34204397065E+03  0.00000000000E+00 0.  1.
         11    1    1    2    0    0 -0.36106090621E+02  0.25593762235E+02  0.92593204120E+02  0.10262646781E+03  0.00000000000E+00 0. -1.
</event>
<event>
 7    1  0.2693725E-009  0.9249205E+02  0.7561462E-02  0.1296927E+00
         -1   -1    0    0    0  501 -0.00000000000E+00  0.00000000000E+00  0.80233809220E+02  0.80233809220E+02  0.00000000000E+00 0.  1.
          1   -1    0    0  501    0  0.00000000000E+00 -0.00000000000E+00 -0.19923876059E+03  0.19923876059E+03  0.00000000000E+00 0. -1.
         25    2    1    2    0    0 -0.51130169109E+02 -0.24749242782E+02 -0.10274315044E+03  0.17154964276E+03  0.12508519399E+03 0.  0.
          5    1    3    3  502    0  0.99105171815E+01  0.13457236088E+02 -0.97736373841E+02  0.99243068904E+02  0.41800000000E+01 0.  1.
         -5    1    3    3    0  502 -0.61040686290E+02 -0.38206478869E+02 -0.50067766016E+01  0.72306573853E+02  0.41800000000E+01 0.  1.
        -11    1    1    2    0    0  0.44208502763E+02 -0.21289322550E+02 -0.32228360072E+02  0.58705145977E+02  0.00000000000E+00 0. -1.
         11    1    1    2    0    0  0.69216663453E+01  0.46038565332E+02  0.15966559148E+02  0.49217781074E+02  0.00000000000E+00 0.  1.
</event>
<event>
 7    1  0.2693725E-009  0.1291240E+03  0.7561462E-02  0.1228761E+00
          1   -1    0    0  501    0  0.00000000000E+00  0.00000000000E+00  0.28719716916E+03  0.28719716916E+03  0.00000000000E+00 0. -1.
         -1   -1    0    0    0  501 -0.00000000000E+00 -0.00000000000E+00 -0.70166239231E+02  0.70166239231E+02  0.00000000000E+00 0.  1.
         25    2    1    2    0    0  0.84728583992E+02  0.27217557959E+02  0.13698868491E+03  0.20575280188E+03  0.12509431355E+03 0.  0.
          5    1    3    3  502    0  0.22058023848E+02  0.56889326091E+02  0.11931126412E+03  0.13407312178E+03  0.41800000000E+01 0.  1.
         -5    1    3    3    0  502  0.62670560144E+02 -0.29671768133E+02  0.17677420791E+02  0.71679680096E+02  0.41800000000E+01 0.  1.
        -11    1    1    2    0    0 -0.10728500141E+02  0.31423909873E+02  0.12322220052E+02  0.35417508862E+02  0.00000000000E+00 0.  1.
         11    1    1    2    0    0 -0.74000083851E+02 -0.58641467832E+02  0.67720024965E+02  0.11619309765E+03  0.00000000000E+00 0. -1.
</event>
<event>
 7    1  0.2693725E-009  0.1772233E+03  0.7561462E-02  0.1170518E+00
          2   -1    0    0  501    0  0.00000000000E+00  0.00000000000E+00  0.51835631372E+03  0.51835631372E+03  0.00000000000E+00 0. -1.
         -2   -1    0    0    0  501 -0.00000000000E+00 -0.00000000000E+00 -0.66630586321E+02  0.66630586321E+02  0.00000000000E+00 0.  1.
         25    2    1    2    0    0 -0.10227664919E+03  0.10802672117E+03  0.27138853647E+03  0.33380867495E+03  0.12508480438E+03 0.  0.
          5    1    3    3  502    0 -0.96198627512E+02  0.13448808367E+03  0.21674013549E+03  0.27264441919E+03  0.41800000000E+01 0. -1.
         -5    1    3    3    0  502 -0.60780216782E+01 -0.26461362499E+02  0.54648400981E+02  0.61164255759E+02  0.41800000000E+01 0. -1.
        -11    1    1    2    0    0  0.24662118269E+02  0.43043918405E+01  0.63905773776E-01  0.25035014491E+02  0.00000000000E+00 0.  1.
         11    1    1    2    0    0  0.77614530922E+02 -0.11233111301E+03  0.18027328515E+03  0.22614321060E+03  0.00000000000E+00 0. -1.
</event>
<event>
 7    1  0.2693725E-009  0.1037095E+03  0.7561462E-02  0.1272683E+00
          1   -1    0    0  501    0  0.00000000000E+00  0.00000000000E+00  0.37213626371E+02  0.37213626371E+02  0.00000000000E+00 0. -1.
         -1   -1    0    0    0  501 -0.00000000000E+00 -0.00000000000E+00 -0.38758230531E+03  0.38758230531E+03  0.00000000000E+00 0.  1.
         25    2    1    2    0    0  0.17738407448E+02  0.39839205313E+02 -0.24610778482E+03  0.27950162375E+03  0.12510116926E+03 0.  0.
          5    1    3    3  502    0  0.68270435811E+02  0.44199273840E+02 -0.14478985954E+03  0.16612045040E+03  0.41800000000E+01 0.  1.
         -5    1    3    3    0  502 -0.50532028363E+02 -0.43600685269E+01 -0.10131792528E+03  0.11338117335E+03  0.41800000000E+01 0.  1.
        -11    1    1    2    0    0  0.15921474628E+02 -0.38206621544E+02 -0.10362841450E+03  0.11158892228E+03  0.00000000000E+00 0.  1.
         11    1    1    2    0    0 -0.33659882076E+02 -0.16325837685E+01 -0.63247961493E+00  0.33705385647E+02  0.00000000000E+00 0. -1.
</event>
<event>
 7    1  0.2693725E-009  0.1080223E+03  0.7561462E-02  0.1264277E+00
          2   -1    0    0  501    0  0.00000000000E+00  0.00000000000E+00  0.40770751084E+03  0.40770751084E+03  0.00000000000E+00 0. -1.
         -2   -1    0    0    0  501 -0.00000000000E+00 -0.00000000000E+00 -0.49294563662E+02  0.49294563662E+02  0.00000000000E+00 0.  1.
         25    2    1    2    0    0  0.53634607021E+02 -0.16581404651E+02  0.31068918180E+03  0.33959732374E+03  0.12508781137E+03 0.  0.
          5    1    3    3  502    0  0.29534871511E+02  0.38385921587E+02  0.41965990672E+02  0.64221525864E+02  0.41800000000E+01 0. -1.
         -5    1    3    3    0  502  0.24099735510E+02 -0.54967326238E+02  0.26872319113E+03  0.27537579787E+03  0.41800000000E+01 0. -1.
        -11    1    1    2    0    0 -0.58243590857E+02 -0.26465458225E+02  0.28544418696E+02  0.70053695075E+02  0.00000000000E+00 0. -1.
         11    1    1    2    0    0  0.46089838358E+01  0.43046862876E+02  0.19179346680E+02  0.47351055685E+02  0.00000000000E+00 0.  1.
</event>
<event>
 7    1  0.2693725E-009  0.8505441E+02  0.7561462E-02  0.1315290E+00
          3   -1    0    0  501    0  0.00000000000E+00  0.00000000000E+00  0.78998300881E+02  0.78998300881E+02  0.00000000000E+00 0. -1.
         -3   -1    0    0    0  501 -0.00000000000E+00 -0.00000000000E+00 -0.19860067775E+03  0.19860067775E+03  0.00000000000E+00 0.  1.
         25    2    1    2    0    0 -0.45956844905E+02 -0.20159816770E+02 -0.26039111923E+02  0.13727538090E+03  0.12509214622E+03 0.  0.
          5    1    3    3  502    0  0.24665254469E+02 -0.30427288588E+02 -0.48371266712E+02  0.62381459683E+02  0.41800000000E+01 0.  1.
         -5    1    3    3    0  502 -0.70622099375E+02  0.10267471818E+02  0.22332154790E+02  0.74893921216E+02  0.41800000000E+01 0.  1.
        -11    1    1    2    0    0  0.17999470779E+02  0.25052814837E+02 -0.10521396184E+03  0.10964306748E+03  0.00000000000E+00 0.  1.
         11    1    1    2    0    0  0.27957374126E+02 -0.48929980665E+01  0.11650696899E+02  0.30680530249E+02  0.00000000000E+00 0. -1.
</event>
<event>
 7    1  0.2693725E-009  0.9573432E+02  0.7561462E-02  0.1289531E+00
          4   -1    0    0  501    0  0.00000000000E+00  0.00000000000E+00  0.80728388802E+02  0.80728388802E+02  0.00000000000E+00 0. -1.
         -4   -1    0    0    0  501 -0.00000000000E+00 -0.00000000000E+00 -0.16176508338E+03  0.16176508338E+03  0.00000000000E+00 0.  1.
         25    2    1    2    0    0 -0.11218196171E+02 -0.33141468222E+02 -0.50860127409E+02  0.13949623165E+03  0.12509293043E+03 0.  0.
          5    1    3    3  502    0  0.35240578301E+02  0.31289305931E+02 -0.47385655872E+01  0.47548348325E+02  0.41800000000E+01 0.  1.
         -5    1    3    3    0  502 -0.46458774472E+02 -0.64430774153E+02 -0.46121561822E+02  0.91947883327E+02  0.41800000000E+01 0.  1.
        -11    1    1    2    0    0  0.24112554614E+02 -0.47604441177E+01  0.24847559722E+02  0.34949654395E+02  0.00000000000E+00 0. -1.
         11    1    1    2    0    0 -0.12894358442E+02  0.37901912340E+02 -0.55024126889E+02  0.68047586133E+02  0.00000000000E+00 0.  1.
</event>
<event>
 7    1  0.2724114E-009  0.9526288E+02  0.7561462E-02  0.1290585E+00
          2   -1    0    0  501    0  0.00000000000E+00  0.00000000000E+00  0.76445041554E+02  0.76445041554E+02  0.00000000000E+00 0. -1.
         -2   -1    0    0    0  501 -0.00000000000E+00 -0.00000000000E+00 -0.21174385966E+03  0.21174385966E+03  0.00000000000E+00 0.  1.
         25    2    1    2    0    0 -0.42106305732E+02 -0.32369883303E+02 -0.12079730658E+03  0.18182089300E+03  0.12508436164E+03 0.  0.
          5    1    3    3  502    0 -0.67005827513E+02  0.25001775306E+02 -0.50581165598E+02  0.87697185830E+02  0.41800000000E+01 0.  1.
         -5    1    3    3    0  502  0.24899521782E+02 -0.57371658610E+02 -0.70216140982E+02  0.94123707168E+02  0.41800000000E+01 0.  1.
        -11    1    1    2    0    0  0.31307247241E+02  0.12741064992E+02  0.37054395482E+02  0.50154827200E+02  0.00000000000E+00 0. -1.
         11    1    1    2    0    0  0.10799058491E+02  0.19628818312E+02 -0.51555907007E+02  0.56213181016E+02  0.00000000000E+00 0.  1.
</event>
<event>
 7    1  0.2693725E-009  0.1133929E+03  0.7561462E-02  0.1254413E+00
         -1   -1    0    0    0  501 -0.00000000000E+00  0.00000000000E+00  0.17366234298E+03  0.17366234298E+03  0.00000000000E+00 0.  1.
          1   -1    0    0  501    0  0.00000000000E+00 -0.00000000000E+00 -0.88852672854E+02  0.88852672854E+02  0.00000000000E+00 0. -1.
         25    2    1    2    0    0  0.87330795960E+01 -0.39600475132E+02 -0.10546389377E+01  0.13150135230E+03  0.12508808530E+03 0.  0.
          5    1    3    3  502    0 -0.56587171154E+02 -0.32730905487E+02 -0.39542465342E+01  0.65624146310E+02  0.41800000000E+01 0.  1.
         -5    1    3    3    0  502  0.65320250750E+02 -0.68695696454E+01  0.28996075965E+01  0.65877205993E+02  0.41800000000E+01 0.  1.
        -11    1    1    2    0    0 -0.40702318901E+02  0.47483257723E+02  0.38882103421E+02  0.73642083718E+02  0.00000000000E+00 0. -1.
         11    1    1    2    0    0  0.31969239305E+02 -0.78827825912E+01  0.46982205638E+02  0.57371579809E+02  0.00000000000E+00 0.  1.
</event>
<event>
 7    1  0.2693725E-009  0.8633802E+02  0.7561462E-02  0.1311970E+00
          2   -1    0    0  501    0  0.00000000000E+00  0.00000000000E+00  0.74277327635E+03  0.74277327635E+03  0.00000000000E+00 0. -1.
         -2   -1    0    0    0  501 -0.00000000000E+00 -0.00000000000E+00 -0.19752792373E+02  0.19752792373E+02  0.00000000000E+00 0.  1.
         25    2    1    2    0    0  0.35562012879E+02  0.27184075190E+02  0.50494398300E+03  0.52213202893E+03  0.12509915649E+03 0.  0.
          5    1    3    3  502    0 -0.26016014511E+02  0.15585689870E+02  0.29352226427E+02  0.42411936244E+02  0.41800000000E+01 0.  1.
         -5    1    3    3    0  502  0.61578027390E+02  0.11598385320E+02  0.47559175658E+03  0.47972009268E+03  0.41800000000E+01 0.  1.
        -11    1    1    2    0    0 -0.13400273275E+02 -0.47404322611E+02  0.19861836015E+03  0.20463623851E+03  0.00000000000E+00 0. -1.
         11    1    1    2    0    0 -0.22161739604E+02  0.20220247421E+02  0.19458140825E+02  0.35757801281E+02  0.00000000000E+00 0.  1.
</event>
<event>
 7    1  0.2693725E-009  0.8942088E+02  0.7561462E-02  0.1304260E+00
         -2   -1    0    0    0  501 -0.00000000000E+00  0.00000000000E+00  0.47551460015E+02  0.47551460015E+02  0.00000000000E+00 0.  1.
          2   -1    0    0  501    0  0.00000000000E+00 -0.00000000000E+00 -0.39726839110E+03  0.39726839110E+03  0.00000000000E+00 0. -1.
         25    2    1    2    0    0  0.59324139678E+02 -0.41771807043E+02 -0.29939530893E+03  0.33249020550E+03  0.12509175965E+03 0.  0.
          5    1    3    3  502    0  0.65718558848E+01 -0.20822886100E+02  0.50273049499E+01  0.22793158412E+02  0.41800000000E+01 0. -1.
         -5    1    3    3    0  502  0.52752283793E+02 -0.20948920943E+02 -0.30442261388E+03  0.30969704709E+03  0.41800000000E+01 0. -1.
        -11    1    1    2    0    0 -0.52285218390E+01  0.45191495460E+02 -0.16255806846E+02  0.48310039938E+02  0.00000000000E+00 0.  1.
         11    1    1    2    0    0 -0.54095617839E+02 -0.34196884171E+01 -0.34065815306E+02  0.64019605674E+02  0.00000000000E+00 0. -1.
</event>
<event>
 7    1  0.2693725E-009  0.1102610E+03  0.7561462E-02  0.1260087E+00
         -1   -1    0    0    0  501 -0.00000000000E+00  0.00000000000E+00  0.15858373049E+03  0.15858373049E+03  0.00000000000E+00 0.  1.
          1   -1    0    0  501    0  0.00000000000E+00 -0.00000000000E+00 -0.96742467369E+02  0.96742467369E+02  0.00000000000E+00 0. -1.
         25    2    1    2    0    0 -0.71833296891E+01  0.53301596696E+02  0.57141396423E+02  0.14766518171E+03  0.12508879354E+03 0.  0.
          5    1    3    3  502    0  0.56515560422E+02  0.32731177886E+02  0.45217392414E+02  0.79545103887E+02  0.41800000000E+01 0.  1.
         -5    1    3    3    0  502 -0.63698890111E+02  0.20570418810E+02  0.11924004009E+02  0.68120077826E+02  0.41800000000E+01 0.  1.
        -11    1    1    2    0    0  0.32659945363E+02 -0.53327374131E+02  0.32062389992E+02  0.70274303375E+02  0.00000000000E+00 0.  1.
         11    1    1    2    0    0 -0.25476615674E+02  0.25777435040E-01 -0.27362523296E+02  0.37386712771E+02  0.00000000000E+00 0. -1.
</event>
<event>
 7    1  0.2693725E-009  0.9489949E+02  0.7561462E-02  0.1291403E+00
         -3   -1    0    0    0  501 -0.00000000000E+00  0.00000000000E+00  0.16076811466E+03  0.16076811466E+03  0.00000000000E+00 0. -1.
          3   -1    0    0  501    0  0.00000000000E+00 -0.00000000000E+00 -0.82850861882E+02  0.82850861882E+02  0.00000000000E+00 0.  1.
         25    2    1    2    0    0 -0.97996600031E+01 -0.21955563900E+02  0.68920099030E+02  0.14483055120E+03  0.12509128022E+03 0.  0.
          5    1    3    3  502    0  0.22844531257E+02  0.46156991192E+02  0.30230208774E+02  0.59863831875E+02  0.41800000000E+01 0.  1.
         -5    1    3    3    0  502 -0.32644191260E+02 -0.68112555092E+02  0.38689890255E+02  0.84966719321E+02  0.41800000000E+01 0.  1.
        -11    1    1    2    0    0  0.30622416799E+02 -0.20655715185E+01 -0.33683598684E+02  0.45569549225E+02  0.00000000000E+00 0.  1.
         11    1    1    2    0    0 -0.20822756796E+02  0.24021135419E+02  0.42680752436E+02  0.53218876124E+02  0.00000000000E+00 0. -1.
</event>
<event>
 7    1  0.2693725E-009  0.1390669E+03  0.7561462E-02  0.1214590E+00
         -2   -1    0    0    0  501 -0.00000000000E+00  0.00000000000E+00  0.83663090354E+02  0.83663090354E+02  0.00000000000E+00 0.  1.
          2   -1    0    0  501    0  0.00000000000E+00 -0.00000000000E+00 -0.50712024458E+03  0.50712024458E+03  0.00000000000E+00 0. -1.
         25    2    1    2    0    0 -0.86556734620E+02  0.44845937973E+02 -0.40885768530E+03  0.43853746365E+03  0.12508906322E+03 0.  0.
          5    1    3    3  502    0  0.15983335291E+02 -0.36029509569E+01 -0.30783277722E+01  0.17187110417E+02  0.41800000000E+01 0. -1.
         -5    1    3    3    0  502 -0.10254006991E+03  0.48448888930E+02 -0.40577935752E+03  0.42135035323E+03  0.41800000000E+01 0. -1.
        -11    1    1    2    0    0  0.34219594522E+02  0.37120915794E+02  0.11022657448E+02  0.51676319682E+02  0.00000000000E+00 0.  1.
         11    1    1    2    0    0  0.52337140098E+02 -0.81966853767E+02 -0.25622126382E+02  0.10056955161E+03  0.00000000000E+00 0. -1.
</event>
<event>
 7    1  0.2693725E-009  0.9249675E+02  0.7561462E-02  0.1296916E+00
         -1   -1    0    0    0  501 -0.00000000000E+00  0.00000000000E+00  0.41904410561E+03  0.41904410561E+03  0.00000000000E+00 0.  1.
          1   -1    0    0  501    0  0.00000000000E+00 -0.00000000000E+00 -0.48102195380E+02  0.48102195380E+02  0.00000000000E+00 0. -1.
         25    2    1    2    0    0 -0.33705996497E+02 -0.17787582262E+02  0.33767260062E+03  0.36210891662E+03  0.12509032740E+03 0.  0.
          5    1    3    3  502    0 -0.44215556465E+02 -0.43627024607E+02  0.73017584636E+02  0.95955056019E+02  0.41800000000E+01 0. -1.
         -5    1    3    3    0  502  0.10509559968E+02  0.25839442345E+02  0.26465501598E+03  0.26615386060E+03  0.41800000000E+01 0. -1.
        -11    1    1    2    0    0  0.61069290212E+02 -0.14427652441E+01  0.50797794435E+01  0.61297177242E+02  0.00000000000E+00 0. -1.
         11    1    1    2    0    0 -0.27363293715E+02  0.19230347506E+02  0.28189530176E+02  0.43740207129E+02  0.00000000000E+00 0.  1.
</event>
<event>
 7    1  0.2693725E-009  0.1066165E+03  0.7561462E-02  0.1266967E+00
         -2   -1    0    0    0  501 -0.00000000000E+00  0.00000000000E+00  0.34393994845E+03  0.34393994845E+03  0.00000000000E+00 0.  1.
          2   -1    0    0  501    0  0.00000000000E+00 -0.00000000000E+00 -0.46244300569E+02  0.46244300569E+02  0.00000000000E+00 0. -1.
         25    2    1    2    0    0 -0.60167442301E+02 -0.16240937251E+02  0.19055121131E+03  0.23631001767E+03  0.12509504853E+03 0.  0.
          5    1    3    3  502    0 -0.35657394210E+02  0.47175270278E+02  0.13827060582E+03  0.15044330734E+03  0.41800000000E+01 0.  1.
         -5    1    3    3    0  502 -0.24510048091E+02 -0.63416207529E+02  0.52280605483E+02  0.85866710339E+02  0.41800000000E+01 0.  1.
        -11    1    1    2    0    0  0.68583562696E+02  0.11947307966E+01  0.30070547691E+02  0.74895729465E+02  0.00000000000E+00 0. -1.
         11    1    1    2    0    0 -0.84161203946E+01  0.15046206454E+02  0.77073888882E+02  0.78978501876E+02  0.00000000000E+00 0.  1.
</event>
<event>
 7    1  0.2693725E-009  0.1151708E+03  0.7561462E-02  0.1251283E+00
          1   -1    0    0  501    0  0.00000000000E+00  0.00000000000E+00  0.53278028890E+03  0.53278028890E+03  0.00000000000E+00 0. -1.
         -1   -1    0    0    0  501 -0.00000000000E+00 -0.00000000000E+00 -0.25677892387E+02  0.25677892387E+02  0.00000000000E+00 0.  1.
         25    2    1    2    0    0  0.34603370495E+02 -0.26345223415E+02  0.33215383057E+03  0.35758434476E+03  0.12509569301E+03 0.  0.
          5    1    3    3  502    0 -0.37425644844E+02 -0.43779695345E+02  0.16034715494E+03  0.17042893860E+03  0.41800000000E+01 0.  1.
         -5    1    3    3    0  502  0.72029015339E+02  0.17434471930E+02  0.17180667563E+03  0.18715540616E+03  0.41800000000E+01 0.  1.
        -11    1    1    2    0    0 -0.35077758864E+02 -0.27467340604E+02  0.87601657683E+02  0.98279979628E+02  0.00000000000E+00 0.  1.
         11    1    1    2    0    0  0.47438836965E+00  0.53812564019E+02  0.87346908255E+02  0.10259385689E+03  0.00000000000E+00 0. -1.
</event>
<event>
 7    1  0.2693725E-009  0.1200401E+03  0.7561462E-02  0.1243031E+00
          3   -1    0    0  501    0  0.00000000000E+00  0.00000000000E+00  0.39566391011E+03  0.39566391011E+03  0.00000000000E+00 0. -1.
         -3   -1    0    0    0  501 -0.00000000000E+00 -0.00000000000E+00 -0.43646327897E+02  0.43646327897E+02  0.00000000000E+00 0.  1.
         25    2    1    2    0    0 -0.45083392603E+02  0.49448608725E+02  0.14318574321E+03  0.20156258949E+03  0.12509054014E+03 0.  0.
          5    1    3    3  502    0  0.41895660399E+02  0.51395493035E+01  0.58539604197E+02  0.72291209610E+02  0.41800000000E+01 0.  1.
         -5    1    3    3    0  502 -0.86979053002E+02  0.44309059422E+02  0.84646139009E+02  0.12927137988E+03  0.41800000000E+01 0.  1.
        -11    1    1    2    0    0  0.29757838655E+02  0.15273020892E+02  0.13178570079E+03  0.13596420507E+03  0.00000000000E+00 0. -1.
         11    1    1    2    0    0  0.15325553948E+02 -0.64721629617E+02  0.77046138213E+02  0.10178344344E+03  0.00000000000E+00 0.  1.
</event>
<event>
 7    1  0.2693725E-009  0.1308745E+03  0.7561462E-02  0.1226164E+00
         -2   -1    0    0    0  501 -0.00000000000E+00  0.00000000000E+00  0.57136796759E+02  0.57136796759E+02  0.00000000000E+00 0.  1.
          2   -1    0    0  501    0  0.00000000000E+00 -0.00000000000E+00 -0.50776526432E+03  0.50776526432E+03  0.00000000000E+00 0. -1.
         25    2    1    2    0    0 -0.49429432267E+02  0.89595300556E+02 -0.37487213785E+03  0.40821870353E+03  0.12507119382E+03 0.  0.
          5    1    3    3  502    0 -0.90160326942E+02  0.60867856316E+02 -0.28924726172E+03  0.30905538549E+03  0.41800000000E+01 0.  1.
         -5    1    3    3    0  502  0.40730894675E+02  0.28727444240E+02 -0.85624876127E+02  0.99163318043E+02  0.41800000000E+01 0.  1.
        -11    1    1    2    0    0  0.10334393544E+02 -0.28694986425E+02  0.20136648012E+02  0.36547045421E+02  0.00000000000E+00 0.  1.
         11    1    1    2    0    0  0.39095038723E+02 -0.60900314131E+02 -0.95892977722E+02  0.12013631212E+03  0.00000000000E+00 0. -1.
</event>
<event>
 7    1  0.2693725E-009  0.1665382E+03  0.7561462E-02  0.1181507E+00
         -1   -1    0    0    0  501 -0.00000000000E+00  0.00000000000E+00  0.76475470369E+03  0.76475470369E+03  0.00000000000E+00 0.  1.
          1   -1    0    0  501    0  0.00000000000E+00 -0.00000000000E+00 -0.36984365204E+02  0.36984365204E+02  0.00000000000E+00 0. -1.
         25    2    1    2    0    0 -0.58281949050E+02  0.11175975188E+03  0.43923060954E+03  0.47377088358E+03  0.12509314148E+03 0.  0.
          5    1    3    3  502    0  0.36913712517E+02  0.55541745696E+02  0.17411961006E+03  0.18650098845E+03  0.41800000000E+01 0. -1.
         -5    1    3    3    0  502 -0.95195661567E+02  0.56218006183E+02  0.26511099948E+03  0.28726989513E+03  0.41800000000E+01 0. -1.
        -11    1    1    2    0    0 -0.12083836351E+02 -0.75501783316E+02  0.13179407963E+03  0.15236869039E+03  0.00000000000E+00 0. -1.
         11    1    1    2    0    0  0.70365785400E+02 -0.36257968563E+02  0.15674564931E+03  0.17559949493E+03  0.00000000000E+00 0.  1.
</event>
<event>
 7    1  0.2693725E-009  0.1091524E+03  0.7561462E-02  0.1262148E+00
         -3   -1    0    0    0  501 -0.00000000000E+00  0.00000000000E+00  0.19086507073E+03  0.19086507073E+03  0.00000000000E+00 0.  1.
          3   -1    0    0  501    0  0.00000000000E+00 -0.00000000000E+00 -0.83905095023E+02  0.83905095023E+02  0.00000000000E+00 0. -1.
         25    2    1    2    0    0  0.46067753009E+02 -0.40451395605E+02  0.37772633714E+02  0.14433479975E+03  0.12508880561E+03 0.  0.
          5    1    3    3  502    0  0.59368073879E+02 -0.67019359306E+02  0.59243203133E+02  0.10744017980E+03  0.41800000000E+01 0. -1.
         -5    1    3    3    0  502 -0.13300320870E+02  0.26567963701E+02 -0.21470569419E+02  0.36894619955E+02  0.41800000000E+01 0. -1.
        -11    1    1    2    0    0 -0.10057063713E+02 -0.23341187171E+02  0.47775920952E+02  0.54115563120E+02  0.00000000000E+00 0.  1.
         11    1    1    2    0    0 -0.36010689297E+02  0.63792582775E+02  0.21411421045E+02  0.76319802882E+02  0.00000000000E+00 0. -1.
</event>
<event>
 7    1  0.2693725E-009  0.1201105E+03  0.7561462E-02  0.1242915E+00
         -1   -1    0    0    0  501 -0.00000000000E+00  0.00000000000E+00  0.31706839948E+02  0.31706839948E+02  0.00000000000E+00 0.  1.
          1   -1    0    0  501    0  0.00000000000E+00 -0.00000000000E+00 -0.75609204518E+03  0.75609204518E+03  0.00000000000E+00 0. -1.
         25    2    1    2    0    0 -0.34795936745E+02 -0.89235742976E+02 -0.52930949803E+03  0.55225790722E+03  0.12508587587E+03 0.  0.
          5    1    3    3  502    0  0.27396196827E+02 -0.19395118581E+02 -0.33362255602E+03  0.33533297557E+03  0.41800000000E+01 0. -1.
         -5    1    3    3    0  502 -0.62192133571E+02 -0.69840624395E+02 -0.19568694202E+03  0.21692493165E+03  0.41800000000E+01 0. -1.
        -11    1    1    2    0    0 -0.75983459704E+01  0.61846953284E+02 -0.16596161826E+03  0.17727391017E+03  0.00000000000E+00 0. -1.
         11    1    1    2    0    0  0.42394282715E+02  0.27388789692E+02 -0.29114088938E+02  0.58267067735E+02  0.00000000000E+00 0.  1.
</event>
<event>
 7    1  0.2693725E-009  0.1155452E+03  0.7561462E-02  0.1250632E+00
         -4   -1    0    0    0  501 -0.00000000000E+00  0.00000000000E+00  0.14307289807E+02  0.14307289807E+02  0.00000000000E+00 0.  1.
          4   -1    0    0  501    0  0.00000000000E+00 -0.00000000000E+00 -0.11148529938E+04  0.11148529938E+04  0.00000000000E+00 0. -1.
         25    2    1    2    0    0  0.16380328273E+02  0.61324677799E+02 -0.56243360720E+03  0.57966468042E+03  0.12510215005E+03 0.  0.
          5    1    3    3  502    0 -0.30958031116E+02  0.65040786905E+02 -0.47155631488E+03  0.47704458298E+03  0.41800000000E+01 0. -1.
         -5    1    3    3    0  502  0.47338359389E+02 -0.37161091061E+01 -0.90877292324E+02  0.10262009743E+03  0.41800000000E+01 0. -1.
        -11    1    1    2    0    0  0.23679285641E+02 -0.66766621993E+02 -0.34300701017E+03  0.35024605551E+03  0.00000000000E+00 0. -1.
         11    1    1    2    0    0 -0.40059613913E+02  0.54419441942E+01 -0.19510508666E+03  0.19924954771E+03  0.00000000000E+00 0.  1.
</event>
<event>
 7    1  0.2693725E-009  0.1226164E+03  0.7561462E-02  0.1238842E+00
         -1   -1    0    0    0  501 -0.00000000000E+00  0.00000000000E+00  0.92660257285E+03  0.92660257285E+03  0.00000000000E+00 0.  1.
          1   -1    0    0  501    0  0.00000000000E+00 -0.00000000000E+00 -0.18293095680E+02  0.18293095680E+02  0.00000000000E+00 0. -1.
         25    2    1    2    0    0  0.48478902645E+02  0.40284492158E+02  0.63904679677E+03  0.65421777950E+03  0.12508816990E+03 0.  0.
          5    1    3    3  502    0  0.53113551043E+02 -0.35484433801E+02  0.29922182148E+03  0.30599242670E+03  0.41800000000E+01 0. -1.
         -5    1    3    3    0  502 -0.46346483977E+01  0.75768925959E+02  0.33982497529E+03  0.34822535280E+03  0.41800000000E+01 0. -1.
        -11    1    1    2    0    0 -0.16198290516E+01 -0.55807457186E+02  0.18257504499E+03  0.19092077723E+03  0.00000000000E+00 0. -1.
         11    1    1    2    0    0 -0.46859073594E+02  0.15522965028E+02  0.86687635408E+02  0.99757111797E+02  0.00000000000E+00 0.  1.
</event>
<event>
 7    1  0.2866186E-009  0.9780884E+02  0.7561462E-02  0.1284972E+00
         -2   -1    0    0    0  501 -0.00000000000E+00  0.00000000000E+00  0.38214845619E+03  0.38214845619E+03  0.00000000000E+00 0.  1.
          2   -1    0    0  501    0  0.00000000000E+00 -0.00000000000E+00 -0.78880538427E+02  0.78880538427E+02  0.00000000000E+00 0. -1.
         25    2    1    2    0    0  0.70530638244E+01  0.94440947908E+02  0.28887397120E+03  0.32873033411E+03  0.12508646200E+03 0.  0.
          5    1    3    3  502    0  0.47817983679E+01  0.63853806670E+02  0.35228736815E+02  0.73203213861E+02  0.41800000000E+01 0. -1.
         -5    1    3    3    0  502  0.22712654565E+01  0.30587141237E+02  0.25364523439E+03  0.25552712025E+03  0.41800000000E+01 0. -1.
        -11    1    1    2    0    0 -0.20047262645E+02 -0.69991532786E+02  0.49164089767E+02  0.87851096317E+02  0.00000000000E+00 0.  1.
         11    1    1    2    0    0  0.12994198821E+02 -0.24449415121E+02 -0.34770143213E+02  0.44447564183E+02  0.00000000000E+00 0. -1.
</event>
<event>
 7    1  0.2693725E-009  0.1307956E+03  0.7561462E-02  0.1226280E+00
         -2   -1    0    0    0  501 -0.00000000000E+00  0.00000000000E+00  0.35734640188E+02  0.35734640188E+02  0.00000000000E+00 0.  1.
          2   -1    0    0  501    0  0.00000000000E+00 -0.00000000000E+00 -0.62482429883E+03  0.62482429883E+03  0.00000000000E+00 0. -1.
         25    2    1    2    0    0 -0.62213210352E+02 -0.43477505406E+02 -0.16589071929E+03  0.22119480692E+03  0.12508650944E+03 0.  0.
          5    1    3    3  502    0 -0.92098429712E+02  0.30491589093E+00 -0.11701639866E+03  0.14897155327E+03  0.41800000000E+01 0.  1.
         -5    1    3    3    0  502  0.29885219361E+02 -0.43782421297E+02 -0.48874320632E+02  0.72223253653E+02  0.41800000000E+01 0.  1.
        -11    1    1    2    0    0  0.56889996380E+01  0.57665601329E+02 -0.24984482677E+03  0.25647636101E+03  0.00000000000E+00 0. -1.
         11    1    1    2    0    0  0.56524210714E+02 -0.14188095922E+02 -0.17335411259E+03  0.18288777109E+03  0.00000000000E+00 0.  1.
</event>
<event>
 7    1  0.2693725E-009  0.1754712E+03  0.7561462E-02  0.1172259E+00
          2   -1    0    0  501    0  0.00000000000E+00  0.00000000000E+00  0.31557128828E+02  0.31557128828E+02  0.00000000000E+00 0. -1.
         -2   -1    0    0    0  501 -0.00000000000E+00 -0.00000000000E+00 -0.10194983367E+04  0.10194983367E+04  0.00000000000E+00 0.  1.
         25    2    1    2    0    0 -0.14237647018E+03 -0.33884854126E+01 -0.50466373297E+03  0.53908389465E+03  0.12507366232E+03 0.  0.
          5    1    3    3  502    0 -0.20111014448E+02 -0.53459701630E+02 -0.14526159397E+03  0.15614350990E+03  0.41800000000E+01 0. -1.
         -5    1    3    3    0  502 -0.12226545573E+03  0.50071216218E+02 -0.35940213900E+03  0.38294038475E+03  0.41800000000E+01 0. -1.
        -11    1    1    2    0    0  0.13901740615E+03  0.23591337758E+02 -0.45920345734E+03  0.48036465905E+03  0.00000000000E+00 0.  1.
         11    1    1    2    0    0  0.33590640351E+01 -0.20202852345E+02 -0.24074017595E+02  0.31606911858E+02  0.00000000000E+00 0. -1.
</event>
<event>
 7    1  0.2693725E-009  0.1072292E+03  0.7561462E-02  0.1265789E+00
         -3   -1    0    0    0  501 -0.00000000000E+00  0.00000000000E+00  0.22974891300E+02  0.22974891300E+02  0.00000000000E+00 0.  1.
          3   -1    0    0  501    0  0.00000000000E+00 -0.00000000000E+00 -0.91301054706E+03  0.91301054706E+03  0.00000000000E+00 0. -1.
         25    2    1    2    0    0  0.15087243077E+02  0.38980025622E+02 -0.76643495783E+03  0.77770244232E+03  0.12510586280E+03 0.  0.
          5    1    3    3  502    0  0.42644155874E+02 -0.33348901069E+02 -0.33020881388E+03  0.33464310301E+03  0.41800000000E+01 0. -1.
         -5    1    3    3    0  502 -0.27556912798E+02  0.72328926691E+02 -0.43622614395E+03  0.44305933931E+03  0.41800000000E+01 0. -1.
        -11    1    1    2    0    0 -0.43616092241E+02 -0.17762372133E+02 -0.24684850017E+02  0.53171488474E+02  0.00000000000E+00 0.  1.
         11    1    1    2    0    0  0.28528849165E+02 -0.21217653489E+02 -0.98915847919E+02  0.10511150757E+03  0.00000000000E+00 0. -1.
</event>
<event>
 7    1  0.2693725E-009  0.9412218E+02  0.7561462E-02  0.1293165E+00
          3   -1    0    0  501    0  0.00000000000E+00  0.00000000000E+00  0.27216209350E+03  0.27216209350E+03  0.00000000000E+00 0. -1.
         -3   -1    0    0    0  501 -0.00000000000E+00 -0.00000000000E+00 -0.61588473812E+02  0.61588473812E+02  0.00000000000E+00 0.  1.
         25    2    1    2    0    0  0.18436509443E+02 -0.64151717367E+02  0.88488794596E+02  0.16713106319E+03  0.12508867972E+03 0.  0.
          5    1    3    3  502    0 -0.15884011886E+02 -0.25966410981E+02 -0.26855159820E+02  0.40807209433E+02  0.41800000000E+01 0.  1.
         -5    1    3    3    0  502  0.34320521328E+02 -0.38185306386E+02  0.11534395442E+03  0.12632385376E+03  0.41800000000E+01 0.  1.
        -11    1    1    2    0    0 -0.30346614036E+02  0.80356893598E+02  0.70066371719E+02  0.11084874279E+03  0.00000000000E+00 0.  1.
         11    1    1    2    0    0  0.11910104593E+02 -0.16205176231E+02  0.52018453375E+02  0.55770761333E+02  0.00000000000E+00 0. -1.
</event>
<event>
 7    1  0.2693725E-009  0.1634685E+03  0.7561462E-02  0.1184836E+00
          1   -1    0    0  501    0  0.00000000000E+00  0.00000000000E+00  0.28309525515E+02  0.28309525515E+02  0.00000000000E+00 0. -1.
         -1   -1    0    0    0  501 -0.00000000000E+00 -0.00000000000E+00 -0.12053581758E+04  0.12053581758E+04  0.00000000000E+00 0.  1.
         25    2    1    2    0    0  0.14734543346E+03  0.23297813159E+02 -0.65546662569E+03  0.68376625804E+03  0.12508530440E+03 0.  0.
          5    1    3    3  502    0  0.14028865276E+03  0.37599787914E+02 -0.36536866172E+03  0.39320017995E+03  0.41800000000E+01 0. -1.
         -5    1    3    3    0  502  0.70567806990E+01 -0.14301974755E+02 -0.29009796397E+03  0.29056607809E+03  0.41800000000E+01 0. -1.
        -11    1    1    2    0    0 -0.85085036491E+01 -0.24889868880E+02 -0.34305040049E+02  0.43228879004E+02  0.00000000000E+00 0. -1.
         11    1    1    2    0    0 -0.13883692981E+03  0.15920557214E+01 -0.48727698456E+03  0.50667256429E+03  0.00000000000E+00 0.  1.
</event>
<event>
 7    1  0.2693725E-009  0.1158749E+03  0.7561462E-02  0.1250062E+00
          3   -1    0    0  501    0  0.00000000000E+00  0.00000000000E+00  0.33886920016E+03  0.33886920016E+03  0.00000000000E+00 0. -1.
         -3   -1    0    0    0  501 -0.00000000000E+00 -0.00000000000E+00 -0.47834544812E+02  0.47834544812E+02  0.00000000000E+00 0.  1.
         25    2    1    2    0    0 -0.44925274806E+02  0.32516999564E+02  0.21977071149E+03  0.25887888460E+03  0.12507388090E+03 0.  0.
          5    1    3    3  502    0  0.62359132641E+01 -0.43263485505E+02  0.89207016139E+02  0.99428265201E+02  0.41800000000E+01 0. -1.
         -5    1    3    3    0  502 -0.51161188070E+02  0.75780485070E+02  0.13056369535E+03  0.15945061940E+03  0.41800000000E+01 0. -1.
        -11    1    1    2    0    0 -0.21292348669E+02 -0.19402768947E+02 -0.11467087357E+01  0.28829611437E+02  0.00000000000E+00 0.  1.
         11    1    1    2    0    0  0.66217623475E+02 -0.13114230617E+02  0.72410652590E+02  0.98995248935E+02  0.00000000000E+00 0. -1.
</event>
<event>
 7    1  0.2693725E-009  0.1041452E+03  0.7561462E-02  0.1271813E+00
         -1   -1    0    0    0  501 -0.00000000000E+00  0.00000000000E+00  0.42653893962E+02  0.42653893962E+02  0.00000000000E+00 0.  1.
          1   -1    0    0  501    0  0.00000000000E+00 -0.00000000000E+00 -0.56698992659E+03  0.56698992659E+03  0.00000000000E+00 0. -1.
         25    2    1    2    0    0 -0.34192556612E+02  0.48267340357E+02 -0.46888619610E+03  0.48887663853E+03  0.12508891131E+03 0.  0.
          5    1    3    3  502    0  0.16329610767E+02 -0.13151266095E+02 -0.10862021756E+02  0.23980573478E+02  0.41800000000E+01 0. -1.
         -5    1    3    3    0  502 -0.50522167380E+02  0.61418606452E+02 -0.45802417435E+03  0.46489606505E+03  0.41800000000E+01 0. -1.
        -11    1    1    2    0    0 -0.13606999731E+02 -0.57069939940E+02 -0.31218217279E+02  0.66458299530E+02  0.00000000000E+00 0. -1.
         11    1    1    2    0    0  0.47799556343E+02  0.88025995827E+01 -0.24231619242E+02  0.54308882488E+02  0.00000000000E+00 0.  1.
</event>
<event>
 7    1  0.2693725E-009  0.9403761E+02  0.7561462E-02  0.1293358E+00
          2   -1    0    0  501    0  0.00000000000E+00  0.00000000000E+00  0.19259513817E+03  0.19259513817E+03  0.00000000000E+00 0. -1.
         -2   -1    0    0    0  501 -0.00000000000E+00 -0.00000000000E+00 -0.69527537946E+02  0.69527537946E+02  0.00000000000E+00 0.  1.
         25    2    1    2    0    0  0.31189687431E+02  0.16976505543E+02  0.45062655459E+02  0.13762401735E+03  0.12509487956E+03 0.  0.
          5    1    3    3  502    0  0.46640864391E+02  0.42100961140E+02 -0.19995864241E+02  0.66069419150E+02  0.41800000000E+01 0.  1.
         -5    1    3    3    0  502 -0.15451176960E+02 -0.25124455598E+02  0.65058519700E+02  0.71554598204E+02  0.41800000000E+01 0.  1.
        -11    1    1    2    0    0 -0.12590982397E+02 -0.53159932642E+02  0.32970374466E+02  0.63808752288E+02  0.00000000000E+00 0.  1.
         11    1    1    2    0    0 -0.18598705034E+02  0.36183427099E+02  0.45034570295E+02  0.60689906469E+02  0.00000000000E+00 0. -1.
</event>
<event>
 7    1  0.2693725E-009  0.7867739E+02  0.7561462E-02  0.1332847E+00
          1   -1    0    0  501    0  0.00000000000E+00  0.00000000000E+00  0.14071694450E+03  0.14071694450E+03  0.00000000000E+00 0. -1.
         -1   -1    0    0    0  501 -0.00000000000E+00 -0.00000000000E+00 -0.81555163138E+02  0.81555163138E+02  0.00000000000E+00 0.  1.
         25    2    1    2    0    0  0.10617547871E+02  0.55541204913E+01  0.45736414253E+02  0.13373621127E+03  0.12509985627E+03 0.  0.
          5    1    3    3  502    0 -0.44188895493E+01  0.36213261299E+02  0.78226595335E+02  0.86416430708E+02  0.41800000000E+01 0.  1.
         -5    1    3    3    0  502  0.15036437421E+02 -0.30659140808E+02 -0.32490181082E+02  0.47319780558E+02  0.41800000000E+01 0.  1.
        -11    1    1    2    0    0  0.11709541892E+02  0.36655594083E+02 -0.14909911396E+01  0.38509336576E+02  0.00000000000E+00 0.  1.
         11    1    1    2    0    0 -0.22327089764E+02 -0.42209714574E+02  0.14916358251E+02  0.50026559798E+02  0.00000000000E+00 0. -1.
</event>
<event>
 7    1  0.2693725E-009  0.9327798E+02  0.7561462E-02  0.1295102E+00
         -2   -1    0    0    0  501 -0.00000000000E+00  0.00000000000E+00  0.27332459038E+03  0.27332459038E+03  0.00000000000E+00 0.  1.
          2   -1    0    0  501    0  0.00000000000E+00 -0.00000000000E+00 -0.73260679686E+02  0.73260679686E+02  0.00000000000E+00 0. -1.
         25    2    1    2    0    0  0.24574452570E+02  0.39018123491E+02  0.20363978246E+03  0.24339729305E+03  0.12508702406E+03 0.  0.
          5    1    3    3  502    0  0.64013322666E+02  0.70305471084E+01  0.17128973569E+03  0.18304310974E+03  0.41800000000E+01 0.  1.
         -5    1    3    3    0  502 -0.39438870096E+02  0.31987576383E+02  0.32350046765E+02  0.60354183310E+02  0.41800000000E+01 0.  1.
        -11    1    1    2    0    0 -0.41733511206E+02 -0.23284045821E+02  0.34233610127E+02  0.58785821503E+02  0.00000000000E+00 0.  1.
         11    1    1    2    0    0  0.17159058636E+02 -0.15734077670E+02 -0.37809481888E+02  0.44402155512E+02  0.00000000000E+00 0. -1.
</event>
<event>
 7    1  0.2693725E-009  0.1060079E+03  0.7561462E-02  0.1268147E+00
         -2   -1    0    0    0  501 -0.00000000000E+00  0.00000000000E+00  0.81424064929E+02  0.81424064929E+02  0.00000000000E+00 0.  1.
          2   -1    0    0  501    0  0.00000000000E+00 -0.00000000000E+00 -0.14540164625E+03  0.14540164625E+03  0.00000000000E+00 0. -1.
         25    2    1    2    0    0 -0.81662185503E+01  0.19041495764E+02 -0.29845380101E+02  0.13026347447E+03  0.12509420602E+03 0.  0.
          5    1    3    3  502    0  0.56794935260E+02  0.13171697841E+02 -0.28161429934E+02  0.64882176528E+02  0.41800000000E+01 0.  1.
         -5    1    3    3    0  502 -0.64961153810E+02  0.58697979227E+01 -0.16839501674E+01  0.65381297939E+02  0.41800000000E+01 0.  1.
        -11    1    1    2    0    0 -0.19369122960E+02 -0.45850294172E+02 -0.29486003902E+02  0.57851852399E+02  0.00000000000E+00 0. -1.
         11    1    1    2    0    0  0.27535341510E+02  0.26808798408E+02 -0.46461973172E+01  0.38710384313E+02  0.00000000000E+00 0.  1.
</event>
<event>
 7    1  0.2693725E-009  0.1848555E+03  0.7561462E-02  0.1163185E+00
          1   -1    0    0  501    0  0.00000000000E+00  0.00000000000E+00  0.19632239200E+03  0.19632239200E+03  0.00000000000E+00 0. -1.
         -1   -1    0    0    0  501 -0.00000000000E+00 -0.00000000000E+00 -0.19276701336E+03  0.19276701336E+03  0.00000000000E+00 0.  1.
         25    2    1    2    0    0  0.12786624626E+03  0.97465395420E+02  0.86780704620E+01  0.20389222763E+03  0.12508977314E+03 0.  0.
          5    1    3    3  502    0  0.80351458555E+02 -0.10639527804E+02 -0.17125167737E+02  0.82947575093E+02  0.41800000000E+01 0.  1.
         -5    1    3    3    0  502  0.47514787705E+02  0.10810492322E+03  0.25803238199E+02  0.12094465254E+03  0.41800000000E+01 0.  1.
        -11    1    1    2    0    0 -0.12982165193E+03 -0.79311411309E+02 -0.29272158159E+02  0.15492198203E+03  0.00000000000E+00 0.  1.
         11    1    1    2    0    0  0.19554056692E+01 -0.18153984112E+02  0.24149466331E+02  0.30275195698E+02  0.00000000000E+00 0. -1.
</event>
<event>
 7    1  0.2693725E-009  0.1564927E+03  0.7561462E-02  0.1192714E+00
          1   -1    0    0  501    0  0.00000000000E+00  0.00000000000E+00  0.48589218372E+03  0.48589218372E+03  0.00000000000E+00 0. -1.
         -1   -1    0    0    0  501 -0.00000000000E+00 -0.00000000000E+00 -0.53606222794E+02  0.53606222794E+02  0.00000000000E+00 0.  1.
         25    2    1    2    0    0  0.34159800780E+02 -0.10177059970E+03  0.29157436783E+03  0.33494382714E+03  0.12509040097E+03 0.  0.
          5    1    3    3  502    0 -0.16655943814E+02  0.23654049594E+02  0.45459965146E+02  0.54046418546E+02  0.41800000000E+01 0.  1.
         -5    1    3    3    0  502  0.50815744594E+02 -0.12542464930E+03  0.24611440268E+03  0.28089740860E+03  0.41800000000E+01 0.  1.
        -11    1    1    2    0    0 -0.43951886075E+02 -0.21285233438E+01  0.45293839613E+02  0.63149274010E+02  0.00000000000E+00 0.  1.
         11    1    1    2    0    0  0.97920852950E+01  0.10389912305E+03  0.95417753489E+02  0.14140530536E+03  0.00000000000E+00 0. -1.
</event>
<event>
 7    1  0.2693725E-009  0.1456395E+03  0.7561462E-02  0.1205936E+00
         -2   -1    0    0    0  501 -0.00000000000E+00  0.00000000000E+00  0.79646043363E+02  0.79646043363E+02  0.00000000000E+00 0.  1.
          2   -1    0    0  501    0  0.00000000000E+00 -0.00000000000E+00 -0.39097083811E+03  0.39097083811E+03  0.00000000000E+00 0. -1.
         25    2    1    2    0    0  0.50089235619E+02  0.12930105470E+03 -0.18080618795E+03  0.25993482960E+03  0.12509014256E+03 0.  0.
          5    1    3    3  502    0  0.13745153678E+02  0.84219744809E+02 -0.18307090187E+02  0.87375720978E+02  0.41800000000E+01 0. -1.
         -5    1    3    3    0  502  0.36344081941E+02  0.45081309893E+02 -0.16249909776E+03  0.17255910862E+03  0.41800000000E+01 0. -1.
        -11    1    1    2    0    0  0.10622892873E+02 -0.15312752496E+02 -0.61472102110E+02  0.64235080601E+02  0.00000000000E+00 0. -1.
         11    1    1    2    0    0 -0.60712128493E+02 -0.11398830221E+03 -0.69046504687E+02  0.14644697127E+03  0.00000000000E+00 0.  1.
</event>
<event>
 7    1  0.2693725E-009  0.1441819E+03  0.7561462E-02  0.1207810E+00
         -4   -1    0    0    0  501 -0.00000000000E+00  0.00000000000E+00  0.38904195273E+03  0.38904195273E+03  0.00000000000E+00 0.  1.
          4   -1    0    0  501    0  0.00000000000E+00 -0.00000000000E+00 -0.95572560790E+02  0.95572560790E+02  0.00000000000E+00 0. -1.
         25    2    1    2    0    0  0.76129313810E+02  0.11419451482E+03  0.52663700926E+02  0.19302176734E+03  0.12509147707E+03 0.  0.
          5    1    3    3  502    0  0.41653054312E+01  0.53201464039E+02  0.78601845805E+02  0.95097150900E+02  0.41800000000E+01 0.  1.
         -5    1    3    3    0  502  0.71964008379E+02  0.60993050777E+02 -0.25938144879E+02  0.97924616440E+02  0.41800000000E+01 0.  1.
        -11    1    1    2    0    0 -0.22725312060E+02 -0.13509096412E+02  0.12990947208E+03  0.13257226871E+03  0.00000000000E+00 0.  1.
         11    1    1    2    0    0 -0.53404001750E+02 -0.10068541841E+03  0.11089621894E+03  0.15902047748E+03  0.00000000000E+00 0. -1.
</event>
<event>
 7    1  0.2693725E-009  0.1529076E+03  0.7561462E-02  0.1196945E+00
          2   -1    0    0  501    0  0.00000000000E+00  0.00000000000E+00  0.25643491270E+03  0.25643491270E+03  0.00000000000E+00 0. -1.
         -2   -1    0    0    0  501 -0.00000000000E+00 -0.00000000000E+00 -0.11362332853E+03  0.11362332853E+03  0.00000000000E+00 0.  1.
         25    2    1    2    0    0  0.78009968534E+02 -0.79105120698E+02 -0.22846080093E+01  0.16731709234E+03  0.12508642869E+03 0.  0.
          5    1    3    3  502    0  0.11213207560E+03 -0.67825216903E+02 -0.23381630369E+01  0.13113657702E+03  0.41800000000E+01 0.  1.
         -5    1    3    3    0  502 -0.34122107068E+02 -0.11279903795E+02  0.53555027540E-01  0.36180515316E+02  0.41800000000E+01 0.  1.
        -11    1    1    2    0    0 -0.51287986172E+02 -0.37855799494E+01  0.75032802464E+02  0.90965430723E+02  0.00000000000E+00 0.  1.
         11    1    1    2    0    0 -0.26721982362E+02  0.82890700648E+02  0.70063389716E+02  0.11177571818E+03  0.00000000000E+00 0. -1.
</event>
<event>
 7    1  0.2693725E-009  0.6367453E+02  0.7561462E-02  0.1383028E+00
         -2   -1    0    0    0  501 -0.00000000000E+00  0.00000000000E+00  0.27061968638E+03  0.27061968638E+03  0.00000000000E+00 0.  1.
          2   -1    0    0  501    0  0.00000000000E+00 -0.00000000000E+00 -0.51550865806E+02  0.51550865806E+02  0.00000000000E+00 0. -1.
         25    2    1    2    0    0 -0.34292861093E+02  0.26981314281E+02  0.16136730142E+03  0.20878252734E+03  0.12508695420E+03 0.  0.
          5    1    3    3  502    0 -0.18147992194E+02  0.36801280382E+02  0.17833606157E+03  0.18304345690E+03  0.41800000000E+01 0. -1.
         -5    1    3    3    0  502 -0.16144868899E+02 -0.98199661009E+01 -0.16968760149E+02  0.25739070437E+02  0.41800000000E+01 0. -1.
        -11    1    1    2    0    0  0.30411461159E+02 -0.41653255970E+02 -0.21734934529E+01  0.51619519337E+02  0.00000000000E+00 0. -1.
         11    1    1    2    0    0  0.38813999335E+01  0.14671941690E+02  0.59875012609E+02  0.61768505513E+02  0.00000000000E+00 0.  1.
</event>
<event>
 7    1  0.2693725E-009  0.1391466E+03  0.7561462E-02  0.1214482E+00
          1   -1    0    0  501    0  0.00000000000E+00  0.00000000000E+00  0.16095778329E+03  0.16095778329E+03  0.00000000000E+00 0. -1.
         -1   -1    0    0    0  501 -0.00000000000E+00 -0.00000000000E+00 -0.18332342839E+03  0.18332342839E+03  0.00000000000E+00 0.  1.
         25    2    1    2    0    0 -0.10862227894E+03 -0.18270290894E+02  0.62231268297E+02  0.17790920797E+03  0.12508538091E+03 0.  0.
          5    1    3    3  502    0 -0.15658541293E+02 -0.47873908121E+02 -0.15750607222E+02  0.52940107877E+02  0.41800000000E+01 0.  1.
         -5    1    3    3    0  502 -0.92963737643E+02  0.29603617227E+02  0.77981875519E+02  0.12496910010E+03  0.41800000000E+01 0.  1.
        -11    1    1    2    0    0  0.11267564057E+03  0.13347258413E+01 -0.93854680553E+02  0.14665020468E+03  0.00000000000E+00 0.  1.
         11    1    1    2    0    0 -0.40533616376E+01  0.16935565052E+02  0.92577671582E+01  0.19721799030E+02  0.00000000000E+00 0. -1.
</event>
<event>
 7    1  0.2693725E-009  0.1874179E+03  0.7561462E-02  0.1160811E+00
          1   -1    0    0  501    0  0.00000000000E+00  0.00000000000E+00  0.51565701147E+03  0.51565701147E+03  0.00000000000E+00 0. -1.
         -1   -1    0    0    0  501 -0.00000000000E+00 -0.00000000000E+00 -0.85951670290E+02  0.85951670290E+02  0.00000000000E+00 0.  1.
         25    2    1    2    0    0 -0.17122188754E+03 -0.39424193210E+02  0.17251295588E+03  0.27619255075E+03  0.12510157216E+03 0.  0.
          5    1    3    3  502    0 -0.35669980514E+02  0.94951698053E+00 -0.16948570528E+02  0.39723740197E+02  0.41800000000E+01 0. -1.
         -5    1    3    3    0  502 -0.13555190703E+03 -0.40373710191E+02  0.18946152641E+03  0.23646881055E+03  0.41800000000E+01 0. -1.
        -11    1    1    2    0    0  0.96043635643E+02  0.67250793870E+02  0.12993333298E+03  0.17501348589E+03  0.00000000000E+00 0. -1.
         11    1    1    2    0    0  0.75178251901E+02 -0.27826600660E+02  0.12725905231E+03  0.15040264512E+03  0.00000000000E+00 0.  1.
</event>
<event>
 7    1  0.2693725E-009  0.1046433E+03  0.7561462E-02  0.1270824E+00
         -1   -1    0    0    0  501 -0.00000000000E+00  0.00000000000E+00  0.92864822184E+01  0.92864822184E+01  0.00000000000E+00 0.  1.
          1   -1    0    0  501    0  0.00000000000E+00 -0.00000000000E+00 -0.23599926223E+04  0.23599926223E+04  0.00000000000E+00 0. -1.
         25    2    1    2    0    0 -0.63428201093E+02  0.85940388822E+01 -0.18837418036E+04  0.18889753160E+04  0.12509023817E+03 0.  0.
          5    1    3    3  502    0 -0.61073930395E+02 -0.34219159696E+02 -0.53897696405E+03  0.54352057554E+03  0.41800000000E+01 0. -1.
         -5    1    3    3    0  502 -0.23542706984E+01  0.42813198578E+02 -0.13447648396E+04  0.13454547405E+04  0.41800000000E+01 0. -1.
        -11    1    1    2    0    0 -0.12907396302E+02  0.11336908865E+02 -0.19716968794E+02  0.26151199597E+02  0.00000000000E+00 0.  1.
         11    1    1    2    0    0  0.76335597395E+02 -0.19930947748E+02 -0.44724736769E+03  0.45415258891E+03  0.00000000000E+00 0. -1.
</event>
<event>
 7    1  0.2693725E-009  0.9782394E+02  0.7561462E-02  0.1284940E+00
         -4   -1    0    0    0  501 -0.00000000000E+00  0.00000000000E+00  0.30563375436E+02  0.30563375436E+02  0.00000000000E+00 0.  1.
          4   -1    0    0  501    0  0.00000000000E+00 -0.00000000000E+00 -0.77838778972E+03  0.77838778972E+03  0.00000000000E+00 0. -1.
         25    2    1    2    0    0  0.19154952680E+02 -0.68660325268E+02 -0.18936134289E+03  0.23787750075E+03  0.12508730833E+03 0.  0.
          5    1    3    3  502    0  0.23436447323E+02 -0.66314706826E+02 -0.20723409142E+03  0.21888432665E+03  0.41800000000E+01 0.  1.
         -5    1    3    3    0  502 -0.42814946439E+01 -0.23456184418E+01  0.17872748534E+02  0.18993174101E+02  0.41800000000E+01 0.  1.
        -11    1    1    2    0    0  0.29171233359E+02 -0.60430545555E+01 -0.11690386669E+03  0.12063993290E+03  0.00000000000E+00 0. -1.
         11    1    1    2    0    0 -0.48326186039E+02  0.74703379823E+02 -0.44155920471E+03  0.45043373150E+03  0.00000000000E+00 0.  1.
</event>
<event>
 7    1  0.2693725E-009  0.9641385E+02  0.7561462E-02  0.1288023E+00
          2   -1    0    0  501    0  0.00000000000E+00  0.00000000000E+00  0.29980246060E+03  0.29980246060E+03  0.00000000000E+00 0.  1.
         -2   -1    0    0    0  501 -0.00000000000E+00 -0.00000000000E+00 -0.60613370548E+02  0.60613370548E+02  0.00000000000E+00 0. -1.
         25    2    1    2    0    0 -0.35781895886E+02 -0.62054754768E+02  0.17999332061E+03  0.23059889158E+03  0.12508843540E+03 0.  0.
          5    1    3    3  502    0  0.11244809127E+02 -0.10318773334E+02 -0.15977942163E+02  0.22487548803E+02  0.41800000000E+01 0. -1.
         -5    1    3    3    0  502 -0.47026705014E+02 -0.51735981434E+02  0.19597126277E+03  0.20811134277E+03  0.41800000000E+01 0. -1.
        -11    1    1    2    0    0  0.11737414061E+01  0.71166621364E+02  0.14636590806E+02  0.72665641507E+02  0.00000000000E+00 0.  1.
         11    1    1    2    0    0  0.34608154480E+02 -0.91118665957E+01  0.44559178642E+02  0.57151298066E+02  0.00000000000E+00 0. -1.
</event>
<event>
 7    1  0.2693725E-009  0.1002685E+03  0.7561462E-02  0.1279732E+00
         -1   -1    0    0    0  501 -0.00000000000E+00  0.00000000000E+00  0.47929286200E+03  0.47929286200E+03  0.00000000000E+00 0.  1.
          1   -1    0    0  501    0  0.00000000000E+00 -0.00000000000E+00 -0.50566254550E+02  0.50566254550E+02  0.00000000000E+00 0. -1.
         25    2    1    2    0    0 -0.24272520562E+02  0.85312607329E+02  0.34492092617E+03  0.37747203855E+03  0.12508916159E+03 0.  0.
          5    1    3    3  502    0 -0.25005596489E+02  0.95527461825E+02  0.13527130024E+03  0.16753081176E+03  0.41800000000E+01 0. -1.
         -5    1    3    3    0  502  0.73307592769E+00 -0.10214854496E+02  0.20964962593E+03  0.20994122679E+03  0.41800000000E+01 0. -1.
        -11    1    1    2    0    0 -0.22935015685E+01 -0.20018898384E+02  0.79224820627E+02  0.81747101755E+02  0.00000000000E+00 0.  1.
         11    1    1    2    0    0  0.26566022130E+02 -0.65293708945E+02  0.45808606452E+01  0.70639976245E+02  0.00000000000E+00 0. -1.
</event>
<event>
 7    1  0.2693725E-009  0.1812757E+03  0.7561462E-02  0.1166574E+00
          2   -1    0    0  501    0  0.00000000000E+00  0.00000000000E+00  0.31396312829E+03  0.31396312829E+03  0.00000000000E+00 0.  1.
         -2   -1    0    0    0  501 -0.00000000000E+00 -0.00000000000E+00 -0.12395489559E+03  0.12395489559E+03  0.00000000000E+00 0. -1.
         25    2    1    2    0    0  0.15114456712E+03 -0.55789803884E+02  0.64225131576E+02  0.21384416674E+03  0.12508907919E+03 0.  0.
          5    1    3    3  502    0  0.38982542834E+02 -0.73576604343E+02  0.12199868700E+00  0.83370514189E+02  0.41800000000E+01 0. -1.
         -5    1    3    3    0  502  0.11216202429E+03  0.17786800458E+02  0.64103132889E+02  0.13047365255E+03  0.41800000000E+01 0. -1.
        -11    1    1    2    0    0 -0.86654624492E+02  0.51734707737E+02  0.24369725315E+02  0.10382382888E+03  0.00000000000E+00 0. -1.
         11    1    1    2    0    0 -0.64489942633E+02  0.40550961479E+01  0.10141337581E+03  0.12025002827E+03  0.00000000000E+00 0.  1.
</event>
<event>
 7    1  0.2693725E-009  0.1064781E+03  0.7561462E-02  0.1267234E+00
         -2   -1    0    0    0  501 -0.00000000000E+00  0.00000000000E+00  0.11780981951E+02  0.11780981951E+02  0.00000000000E+00 0.  1.
          2   -1    0    0  501    0  0.00000000000E+00 -0.00000000000E+00 -0.16222710454E+04  0.16222710454E+04  0.00000000000E+00 0. -1.
         25    2    1    2    0    0 -0.71338041083E+02  0.36297388304E+02 -0.12357303099E+04  0.12446219925E+04  0.12509152186E+03 0.  0.
          5    1    3    3  502    0 -0.84597751846E+02  0.22014584496E+02 -0.12038279984E+04  0.12070048648E+04  0.41800000000E+01 0.  1.
         -5    1    3    3    0  502  0.13259710763E+02  0.14282803809E+02 -0.31902311466E+02  0.37617127629E+02  0.41800000000E+01 0.  1.
        -11    1    1    2    0    0  0.41192409037E+02  0.16771316690E+02 -0.17429982088E+03  0.17988473861E+03  0.00000000000E+00 0.  1.
         11    1    1    2    0    0  0.30145632046E+02 -0.53068704994E+02 -0.20045993264E+03  0.20954529623E+03  0.00000000000E+00 0. -1.
</event>
<event>
 7    1  0.2693725E-009  0.9220050E+02  0.7561462E-02  0.1297609E+00
          2   -1    0    0  501    0  0.00000000000E+00  0.00000000000E+00  0.25840977931E+03  0.25840977931E+03  0.00000000000E+00 0. -1.
         -2   -1    0    0    0  501 -0.00000000000E+00 -0.00000000000E+00 -0.75044541693E+02  0.75044541693E+02  0.00000000000E+00 0.  1.
         25    2    1    2    0    0  0.55109086143E+02  0.57838429006E+02  0.14015854292E+03  0.20414358904E+03  0.12509153667E+03 0.  0.
          5    1    3    3  502    0  0.27349198268E+02  0.44412551502E+02  0.15925659959E+03  0.16763230682E+03  0.41800000000E+01 0. -1.
         -5    1    3    3    0  502  0.27759887875E+02  0.13425877504E+02 -0.19098056661E+02  0.36511282227E+02  0.41800000000E+01 0. -1.
        -11    1    1    2    0    0 -0.38625700950E+02  0.22091275854E+01 -0.17395601491E+02  0.42419712043E+02  0.00000000000E+00 0.  1.
         11    1    1    2    0    0 -0.16483385193E+02 -0.60047556591E+02  0.60602296187E+02  0.86891019922E+02  0.00000000000E+00 0. -1.
</event>
<event>
 7    1  0.2693725E-009  0.2114347E+03  0.7561462E-02  0.1140435E+00
          1   -1    0    0  501    0  0.00000000000E+00  0.00000000000E+00  0.12525604404E+03  0.12525604404E+03  0.00000000000E+00 0. -1.
         -1   -1    0    0    0  501 -0.00000000000E+00 -0.00000000000E+00 -0.39850801798E+03  0.39850801798E+03  0.00000000000E+00 0.  1.
         25    2    1    2    0    0  0.11155886950E+03  0.15493585831E+03 -0.13670600877E+03  0.26605675374E+03  0.12508861587E+03 0.  0.
          5    1    3    3  502    0 -0.17873616831E+02  0.54038803872E+02 -0.66161595533E+02  0.87375555083E+02  0.41800000000E+01 0. -1.
         -5    1    3    3    0  502  0.12943248634E+03  0.10089705444E+03 -0.70544413237E+02  0.17868119865E+03  0.41800000000E+01 0. -1.
        -11    1    1    2    0    0 -0.33553476301E+02 -0.10195885141E+03 -0.22399096320E+02  0.10965018317E+03  0.00000000000E+00 0. -1.
         11    1    1    2    0    0 -0.78005393203E+02 -0.52977006898E+02 -0.11414686886E+03  0.14805712512E+03  0.00000000000E+00 0.  1.
</event>
<event>
 7    1  0.2693725E-009  0.1247046E+03  0.7561462E-02  0.1235532E+00
          2   -1    0    0  501    0  0.00000000000E+00  0.00000000000E+00  0.59277094300E+02  0.59277094300E+02  0.00000000000E+00 0. -1.
         -2   -1    0    0    0  501 -0.00000000000E+00 -0.00000000000E+00 -0.36282465621E+03  0.36282465621E+03  0.00000000000E+00 0.  1.
         25    2    1    2    0    0 -0.70711644536E+02 -0.59835668838E+02 -0.21975139089E+03  0.26929256570E+03  0.12508944083E+03 0.  0.
          5    1    3    3  502    0  0.35372203202E+02 -0.54686885090E+01 -0.58760485957E+02  0.68930156124E+02  0.41800000000E+01 0.  1.
         -5    1    3    3    0  502 -0.10608384774E+03 -0.54366980329E+02 -0.16099090493E+03  0.20036240958E+03  0.41800000000E+01 0.  1.
        -11    1    1    2    0    0  0.26778653771E+02  0.12621689761E+02 -0.83204414352E+02  0.88314086746E+02  0.00000000000E+00 0.  1.
         11    1    1    2    0    0  0.43932990765E+02  0.47213979077E+02 -0.59175666666E+00  0.64495098061E+02  0.00000000000E+00 0. -1.
</event>
<event>
 7    1  0.2693725E-009  0.1319844E+03  0.7561462E-02  0.1224541E+00
          1   -1    0    0  501    0  0.00000000000E+00  0.00000000000E+00  0.32573812973E+03  0.32573812973E+03  0.00000000000E+00 0. -1.
         -1   -1    0    0    0  501 -0.00000000000E+00 -0.00000000000E+00 -0.76887821809E+02  0.76887821809E+02  0.00000000000E+00 0.  1.
         25    2    1    2    0    0  0.59332762724E+02 -0.75341901385E+02  0.52462916485E+02  0.16611996423E+03  0.12508679416E+03 0.  0.
          5    1    3    3  502    0  0.88344738876E+02 -0.43851618805E+02  0.57842274517E+00  0.98719624856E+02  0.41800000000E+01 0.  1.
         -5    1    3    3    0  502 -0.29011976151E+02 -0.31490282580E+02  0.51884493740E+02  0.67400339375E+02  0.41800000000E+01 0.  1.
        -11    1    1    2    0    0  0.17829886081E+02  0.22499359568E+02  0.91890685574E+02  0.96270577613E+02  0.00000000000E+00 0. -1.
         11    1    1    2    0    0 -0.77162648806E+02  0.52842541817E+02  0.10449670586E+03  0.14023540969E+03  0.00000000000E+00 0.  1.
</event>
<event>
 7    1  0.2693725E-009  0.9888369E+02  0.7561462E-02  0.1282661E+00
          1   -1    0    0  501    0  0.00000000000E+00  0.00000000000E+00  0.16413535288E+02  0.16413535288E+02  0.00000000000E+00 0. -1.
         -1   -1    0    0    0  501 -0.00000000000E+00 -0.00000000000E+00 -0.73295167105E+03  0.73295167105E+03  0.00000000000E+00 0.  1.
         25    2    1    2    0    0  0.16297078942E+02  0.99581289507E+00 -0.37079385533E+03  0.39166901188E+03  0.12509974138E+03 0.  0.
          5    1    3    3  502    0 -0.39348529560E+02  0.33893003309E+02 -0.24149310898E+03  0.24704946172E+03  0.41800000000E+01 0. -1.
         -5    1    3    3    0  502  0.55645608503E+02 -0.32897190414E+02 -0.12930074635E+03  0.14461955017E+03  0.41800000000E+01 0. -1.
        -11    1    1    2    0    0 -0.45047491022E+02 -0.16803231648E+02 -0.28131570490E+03  0.28539472817E+03  0.00000000000E+00 0.  1.
         11    1    1    2    0    0  0.28750412080E+02  0.15807418753E+02 -0.64428575527E+02  0.72301466284E+02  0.00000000000E+00 0. -1.
</event>
<event>
 7    1  0.2693725E-009  0.1418157E+03  0.7561462E-02  0.1210907E+00
          1   -1    0    0  501    0  0.00000000000E+00  0.00000000000E+00  0.23796744421E+03  0.23796744421E+03  0.00000000000E+00 0.  1.
         -1   -1    0    0    0  501 -0.00000000000E+00 -0.00000000000E+00 -0.11475000961E+03  0.11475000961E+03  0.00000000000E+00 0. -1.
         25    2    1    2    0    0 -0.71598183499E+02  0.10095726548E+03  0.56092540952E+02  0.18469520807E+03  0.12508907786E+03 0.  0.
          5    1    3    3  502    0 -0.68485331595E+02  0.11781628907E+03  0.11600898040E+02  0.13683191093E+03  0.41800000000E+01 0.  1.
         -5    1    3    3    0  502 -0.31128519041E+01 -0.16859023593E+02  0.44491642912E+02  0.47863297134E+02  0.41800000000E+01 0.  1.
        -11    1    1    2    0    0  0.25131250196E+02 -0.91428748133E+01  0.59025198246E+02  0.64800817311E+02  0.00000000000E+00 0.  1.
         11    1    1    2    0    0  0.46466933304E+02 -0.91814390666E+02  0.80996954082E+01  0.10322142844E+03  0.00000000000E+00 0. -1.
</event>
<event>
 7    1  0.2693725E-009  0.1238208E+03  0.7561462E-02  0.1236924E+00
         -1   -1    0    0    0  501 -0.00000000000E+00  0.00000000000E+00  0.41950841976E+02  0.41950841976E+02  0.00000000000E+00 0.  1.
          1   -1    0    0  501    0  0.00000000000E+00 -0.00000000000E+00 -0.57353942259E+03  0.57353942259E+03  0.00000000000E+00 0. -1.
         25    2    1    2    0    0 -0.10602606662E+03 -0.91780909318E+01 -0.34845249124E+03  0.38521723528E+03  0.12508963005E+03 0.  0.
          5    1    3    3  502    0 -0.28870910902E+02  0.12383806920E+02 -0.44710414150E+01  0.32005480491E+02  0.41800000000E+01 0. -1.
         -5    1    3    3    0  502 -0.77155155717E+02 -0.21561897852E+02 -0.34398144983E+03  0.35321175479E+03  0.41800000000E+01 0. -1.
        -11    1    1    2    0    0  0.81827265320E+02  0.44322233306E+02 -0.98612854243E+02  0.13559003185E+03  0.00000000000E+00 0.  1.
         11    1    1    2    0    0  0.24198801299E+02 -0.35144142374E+02 -0.84523235128E+02  0.94682997439E+02  0.00000000000E+00 0. -1.
</event>
<event>
 7    1  0.2693725E-009  0.1154842E+03  0.7561462E-02  0.1250738E+00
         -2   -1    0    0    0  501 -0.00000000000E+00  0.00000000000E+00  0.42646517284E+02  0.42646517284E+02  0.00000000000E+00 0.  1.
          2   -1    0    0  501    0  0.00000000000E+00 -0.00000000000E+00 -0.50047402469E+03  0.50047402469E+03  0.00000000000E+00 0. -1.
         25    2    1    2    0    0 -0.56031638174E+02 -0.51882070736E+02 -0.13297064613E+03  0.19788775978E+03  0.12508828481E+03 0.  0.
          5    1    3    3  502    0 -0.35762452076E+02 -0.78912595175E+02 -0.33894724178E+02  0.93126126210E+02  0.41800000000E+01 0.  1.
         -5    1    3    3    0  502 -0.20269186098E+02  0.27030524439E+02 -0.99075921955E+02  0.10476163357E+03  0.41800000000E+01 0.  1.
        -11    1    1    2    0    0  0.49965185478E+02 -0.74737945006E+01 -0.93162656346E+02  0.10597951642E+03  0.00000000000E+00 0.  1.
         11    1    1    2    0    0  0.60664526966E+01  0.59355865236E+02 -0.23169420493E+03  0.23925326578E+03  0.00000000000E+00 0. -1.
</event>
<event>
 7    1  0.2693725E-009  0.1286935E+03  0.7561462E-02  0.1229407E+00
         -2   -1    0    0    0  501 -0.00000000000E+00  0.00000000000E+00  0.36247407727E+03  0.36247407727E+03  0.00000000000E+00 0.  1.
          2   -1    0    0  501    0  0.00000000000E+00 -0.00000000000E+00 -0.56485334417E+02  0.56485334417E+02  0.00000000000E+00 0. -1.
         25    2    1    2    0    0  0.37977979347E+02  0.88517435401E+02  0.20101527874E+03  0.25560213975E+03  0.12509056027E+03 0.  0.
          5    1    3    3  502    0 -0.24739400784E+02 -0.20165741168E+02  0.45420848272E+02  0.55670646895E+02  0.41800000000E+01 0. -1.
         -5    1    3    3    0  502  0.62717380131E+02  0.10868317657E+03  0.15559443047E+03  0.19993149285E+03  0.41800000000E+01 0. -1.
        -11    1    1    2    0    0 -0.34785975957E+02 -0.49508467252E+02  0.10919817303E+02  0.61484915734E+02  0.00000000000E+00 0. -1.
         11    1    1    2    0    0 -0.31920033900E+01 -0.39008968149E+02  0.94053646805E+02  0.10187235621E+03  0.00000000000E+00 0.  1.
</event>
<event>
 7    1  0.2693725E-009  0.1203581E+03  0.7561462E-02  0.1242507E+00
          2   -1    0    0  501    0  0.00000000000E+00  0.00000000000E+00  0.11097809627E+04  0.11097809627E+04  0.00000000000E+00 0.  1.
         -2   -1    0    0    0  501 -0.00000000000E+00 -0.00000000000E+00 -0.16209915424E+02  0.16209915424E+02  0.00000000000E+00 0. -1.
         25    2    1    2    0    0 -0.32431105980E+02 -0.64480293574E+02  0.72455652987E+03  0.73880904095E+03  0.12508856513E+03 0.  0.
          5    1    3    3  502    0 -0.14183423733E+02 -0.92080223756E+02  0.65572654121E+03  0.66232522703E+03  0.41800000000E+01 0.  1.
         -5    1    3    3    0  502 -0.18247682247E+02  0.27599930182E+02  0.68829988659E+02  0.76483813923E+02  0.41800000000E+01 0.  1.
        -11    1    1    2    0    0  0.29375935381E+02  0.86770362225E+02  0.25467781720E+03  0.27065260374E+03  0.00000000000E+00 0.  1.
         11    1    1    2    0    0  0.30551705982E+01 -0.22290068651E+02  0.11433670017E+03  0.11652923339E+03  0.00000000000E+00 0. -1.
</event>
<event>
 7    1  0.2693725E-009  0.1324898E+03  0.7561462E-02  0.1223807E+00
         -2   -1    0    0    0  501 -0.00000000000E+00  0.00000000000E+00  0.60884066310E+02  0.60884066310E+02  0.00000000000E+00 0.  1.
          2   -1    0    0  501    0  0.00000000000E+00 -0.00000000000E+00 -0.40104179874E+03  0.40104179874E+03  0.00000000000E+00 0. -1.
         25    2    1    2    0    0 -0.65316945070E+02  0.82427174868E+02 -0.24009465841E+03  0.29043715704E+03  0.12509098577E+03 0.  0.
          5    1    3    3  502    0  0.83497190140E+01  0.69015166891E+02 -0.49002178548E+02  0.85155721892E+02  0.41800000000E+01 0. -1.
         -5    1    3    3    0  502 -0.73666664084E+02  0.13412007977E+02 -0.19109247986E+03  0.20528143514E+03  0.41800000000E+01 0. -1.
        -11    1    1    2    0    0  0.27488970711E+02 -0.77454561120E+02 -0.22757240082E+02  0.85280387694E+02  0.00000000000E+00 0.  1.
         11    1    1    2    0    0  0.37827974359E+02 -0.49726137480E+01 -0.77305833941E+02  0.86208320323E+02  0.00000000000E+00 0. -1.
</event>
<event>
 7    1  0.2693725E-009  0.1103912E+03  0.7561462E-02  0.1259847E+00
         -1   -1    0    0    0  501 -0.00000000000E+00  0.00000000000E+00  0.17252324182E+03  0.17252324182E+03  0.00000000000E+00 0.  1.
          1   -1    0    0  501    0  0.00000000000E+00 -0.00000000000E+00 -0.86347520101E+02  0.86347520101E+02  0.00000000000E+00 0. -1.
         25    2    1    2    0    0  0.21460812338E+02  0.51099958662E+02  0.42201875812E+02  0.14317987810E+03  0.12509079475E+03 0.  0.
          5    1    3    3  502    0  0.61835063329E+02  0.45409062838E+02 -0.92634848766E+01  0.77387612683E+02  0.41800000000E+01 0.  1.
         -5    1    3    3    0  502 -0.40374250991E+02  0.56908958245E+01  0.51465360689E+02  0.65792265421E+02  0.41800000000E+01 0.  1.
        -11    1    1    2    0    0 -0.35507928983E+02  0.12643045730E+02  0.31753541099E+02  0.49284348411E+02  0.00000000000E+00 0.  1.
         11    1    1    2    0    0  0.14047116645E+02 -0.63743004392E+02  0.12220304807E+02  0.66406535405E+02  0.00000000000E+00 0. -1.
</event>
<event>
 7    1  0.2693725E-009  0.1021590E+03  0.7561462E-02  0.1275820E+00
         -2   -1    0    0    0  501 -0.00000000000E+00  0.00000000000E+00  0.50111345644E+02  0.50111345644E+02  0.00000000000E+00 0.  1.
          2   -1    0    0  501    0  0.00000000000E+00 -0.00000000000E+00 -0.30663960324E+03  0.30663960324E+03  0.00000000000E+00 0. -1.
         25    2    1    2    0    0 -0.23230651177E+02 -0.52460607130E+02 -0.17367563189E+03  0.22158942711E+03  0.12508745198E+03 0.  0.
          5    1    3    3  502    0 -0.18687206386E+01  0.30104003293E+02 -0.28133514738E+01  0.30579903166E+02  0.41800000000E+01 0. -1.
         -5    1    3    3    0  502 -0.21361930539E+02 -0.82564610423E+02 -0.17086228041E+03  0.19100952395E+03  0.41800000000E+01 0. -1.
        -11    1    1    2    0    0 -0.25612384379E+01 -0.15542526848E+02  0.88897993751E+01  0.18087526533E+02  0.00000000000E+00 0.  1.
         11    1    1    2    0    0  0.25791889615E+02  0.68003133977E+02 -0.91742425080E+02  0.11707399523E+03  0.00000000000E+00 0. -1.
</event>
<event>
 7    1  0.2693725E-009  0.1072296E+03  0.7561462E-02  0.1265788E+00
          3   -1    0    0  501    0  0.00000000000E+00  0.00000000000E+00  0.11499565704E+03  0.11499565704E+03  0.00000000000E+00 0. -1.
         -3   -1    0    0    0  501 -0.00000000000E+00 -0.00000000000E+00 -0.15268436663E+03  0.15268436663E+03  0.00000000000E+00 0.  1.
         25    2    1    2    0    0 -0.48993682127E+02  0.56852319716E+02 -0.42365406919E+02  0.15190627688E+03  0.12509245423E+03 0.  0.
          5    1    3    3  502    0  0.76294552787E+01  0.45403407082E+02 -0.72982329821E+02  0.86391960440E+02  0.41800000000E+01 0. -1.
         -5    1    3    3    0  502 -0.56623137406E+02  0.11448912633E+02  0.30616922903E+02  0.65514316437E+02  0.41800000000E+01 0. -1.
        -11    1    1    2    0    0  0.71726865194E+02 -0.41323166087E+02  0.18718149117E+02  0.84868818493E+02  0.00000000000E+00 0. -1.
         11    1    1    2    0    0 -0.22733183067E+02 -0.15529153629E+02 -0.14041451793E+02  0.30904928300E+02  0.00000000000E+00 0.  1.
</event>
<event>
 7    1  0.2693725E-009  0.1017553E+03  0.7561462E-02  0.1276647E+00
          1   -1    0    0  501    0  0.00000000000E+00  0.00000000000E+00  0.54679659093E+03  0.54679659093E+03  0.00000000000E+00 0. -1.
         -1   -1    0    0    0  501 -0.00000000000E+00 -0.00000000000E+00 -0.88181309524E+02  0.88181309524E+02  0.00000000000E+00 0.  1.
         25    2    1    2    0    0  0.39104529608E+02  0.53804225364E+02  0.49705368672E+03  0.51684998208E+03  0.12508987804E+03 0.  0.
          5    1    3    3  502    0  0.21661288248E+00  0.73344772084E+02  0.43367683689E+03  0.43985517363E+03  0.41800000000E+01 0. -1.
         -5    1    3    3    0  502  0.38887916726E+02 -0.19540546720E+02  0.63376849830E+02  0.76994808447E+02  0.41800000000E+01 0. -1.
        -11    1    1    2    0    0 -0.50010042484E+02 -0.25801387437E+02 -0.59141016463E+02  0.81635628075E+02  0.00000000000E+00 0.  1.
         11    1    1    2    0    0  0.10905512875E+02 -0.28002837927E+02  0.20702611143E+02  0.36492290298E+02  0.00000000000E+00 0. -1.
</event>
<event>
 7    1  0.2693725E-009  0.1810642E+03  0.7561462E-02  0.1166777E+00
         -2   -1    0    0    0  501 -0.00000000000E+00  0.00000000000E+00  0.29355126995E+02  0.29355126995E+02  0.00000000000E+00 0. -1.
          2   -1    0    0  501    0  0.00000000000E+00 -0.00000000000E+00 -0.20312574792E+04  0.20312574792E+04  0.00000000000E+00 0.  1.
         25    2    1    2    0    0 -0.42492048151E+02  0.14825787741E+03 -0.16849126752E+04  0.16965742747E+04  0.12509026413E+03 0.  0.
          5    1    3    3  502    0  0.31356115378E+02  0.64520713830E+02 -0.36930993850E+03  0.37623587224E+03  0.41800000000E+01 0. -1.
         -5    1    3    3    0  502 -0.73848163529E+02  0.83737163583E+02 -0.13156027366E+04  0.13203384024E+04  0.41800000000E+01 0. -1.
        -11    1    1    2    0    0  0.24772786503E+02 -0.15688950497E+03 -0.28955424357E+03  0.33025697221E+03  0.00000000000E+00 0.  1.
         11    1    1    2    0    0  0.17719261648E+02  0.86316275613E+01 -0.27435433482E+02  0.33781359328E+02  0.00000000000E+00 0. -1.
</event>
<event>
 7    1  0.2693725E-009  0.1433232E+03  0.7561462E-02  0.1208926E+00
         -2   -1    0    0    0  501 -0.00000000000E+00  0.00000000000E+00  0.13946357277E+03  0.13946357277E+03  0.00000000000E+00 0.  1.
          2   -1    0    0  501    0  0.00000000000E+00 -0.00000000000E+00 -0.36803792321E+03  0.36803792321E+03  0.00000000000E+00 0. -1.
         25    2    1    2    0    0  0.11705102983E+02  0.12920858127E+03  0.54561585246E+02  0.18829869686E+03  0.12509023041E+03 0.  0.
          5    1    3    3  502    0  0.27284057954E+02  0.30665674642E+02 -0.35045280557E+02  0.54133607944E+02  0.41800000000E+01 0.  1.
         -5    1    3    3    0  502 -0.15578954971E+02  0.98542906631E+02  0.89606865802E+02  0.13416508892E+03  0.41800000000E+01 0.  1.
        -11    1    1    2    0    0  0.25404777115E+02 -0.79763266022E+02 -0.18731365145E+03  0.20516818790E+03  0.00000000000E+00 0. -1.
         11    1    1    2    0    0 -0.37109880098E+02 -0.49445315251E+02 -0.95822284232E+02  0.11403461122E+03  0.00000000000E+00 0.  1.
</event>
<event>
 7    1  0.2693725E-009  0.1477423E+03  0.7561462E-02  0.1203275E+00
          2   -1    0    0  501    0  0.00000000000E+00  0.00000000000E+00  0.34546932336E+03  0.34546932336E+03  0.00000000000E+00 0. -1.
         -2   -1    0    0    0  501 -0.00000000000E+00 -0.00000000000E+00 -0.70754033594E+02  0.70754033594E+02  0.00000000000E+00 0.  1.
         25    2    1    2    0    0 -0.10478404798E+03 -0.20398134907E+02  0.18021568738E+03  0.24396901484E+03  0.12508959030E+03 0.  0.
          5    1    3    3  502    0 -0.13363276946E+03 -0.12858098745E+02  0.14559377064E+03  0.19808600714E+03  0.41800000000E+01 0.  1.
         -5    1    3    3    0  502  0.28848721476E+02 -0.75400361622E+01  0.34621916748E+02  0.45883007698E+02  0.41800000000E+01 0.  1.
        -11    1    1    2    0    0  0.28174740235E+02  0.42801528930E+02  0.37234809178E+01  0.51377535716E+02  0.00000000000E+00 0.  1.
         11    1    1    2    0    0  0.76609307748E+02 -0.22403394023E+02  0.90776121461E+02  0.12087680640E+03  0.00000000000E+00 0. -1.
</event>
<event>
 7    1  0.2693725E-009  0.1642614E+03  0.7561462E-02  0.1183968E+00
          2   -1    0    0  501    0  0.00000000000E+00  0.00000000000E+00  0.80399995523E+03  0.80399995523E+03  0.00000000000E+00 0. -1.
         -2   -1    0    0    0  501 -0.00000000000E+00 -0.00000000000E+00 -0.37201277371E+02  0.37201277371E+02  0.00000000000E+00 0.  1.
         25    2    1    2    0    0 -0.70115403808E+02  0.10948985424E+03  0.32552869138E+03  0.37218323658E+03  0.12508890697E+03 0.  0.
          5    1    3    3  502    0 -0.57667290038E+02  0.13234327689E+03  0.21820141583E+03  0.26166694393E+03  0.41800000000E+01 0. -1.
         -5    1    3    3    0  502 -0.12448113770E+02 -0.22853422645E+02  0.10732727556E+03  0.11051629265E+03  0.41800000000E+01 0. -1.
        -11    1    1    2    0    0  0.89245867253E+02 -0.68481427544E+02  0.28737257303E+03  0.30860577842E+03  0.00000000000E+00 0.  1.
         11    1    1    2    0    0 -0.19130463445E+02 -0.41008426696E+02  0.15389741344E+03  0.16041221760E+03  0.00000000000E+00 0. -1.
</event>
<event>
 7    1  0.2693725E-009  0.2684342E+03  0.7561462E-02  0.1102179E+00
         -2   -1    0    0    0  501 -0.00000000000E+00  0.00000000000E+00  0.25892288180E+02  0.25892288180E+02  0.00000000000E+00 0.  1.
          2   -1    0    0  501    0  0.00000000000E+00 -0.00000000000E+00 -0.31225296991E+04  0.31225296991E+04  0.00000000000E+00 0. -1.
         25    2    1    2    0    0 -0.18663251030E+03  0.17276131526E+03 -0.19552115034E+04  0.19756460884E+04  0.12508907832E+03 0.  0.
          5    1    3    3  502    0 -0.59947280859E+02  0.12405393872E+03 -0.72712696377E+03  0.74007712439E+03  0.41800000000E+01 0.  1.
         -5    1    3    3    0  502 -0.12668522944E+03  0.48707376533E+02 -0.12280845397E+04  0.12355689640E+04  0.41800000000E+01 0.  1.
        -11    1    1    2    0    0  0.15629008900E+03 -0.10304533502E+03 -0.68774562232E+03  0.71276852766E+03  0.00000000000E+00 0. -1.
         11    1    1    2    0    0  0.30342421298E+02 -0.69715980236E+02 -0.45368028511E+03  0.46000737117E+03  0.00000000000E+00 0.  1.
</event>
<event>
 7    1  0.2693725E-009  0.1378062E+03  0.7561462E-02  0.1216312E+00
          1   -1    0    0  501    0  0.00000000000E+00  0.00000000000E+00  0.61171726628E+03  0.61171726628E+03  0.00000000000E+00 0. -1.
         -1   -1    0    0    0  501 -0.00000000000E+00 -0.00000000000E+00 -0.32586637537E+02  0.32586637537E+02  0.00000000000E+00 0.  1.
         25    2    1    2    0    0  0.60406192266E+02 -0.67165649648E+02  0.32938361688E+03  0.36373226451E+03  0.12508981024E+03 0.  0.
          5    1    3    3  502    0  0.30293325710E+02  0.35709940620E+02  0.98572212021E+02  0.10921006741E+03  0.41800000000E+01 0. -1.
         -5    1    3    3    0  502  0.30112866555E+02 -0.10287559027E+03  0.23081140486E+03  0.25452219710E+03  0.41800000000E+01 0. -1.
        -11    1    1    2    0    0  0.72056759316E+01  0.51394634697E+02  0.64783019276E+02  0.83007046856E+02  0.00000000000E+00 0.  1.
         11    1    1    2    0    0 -0.67611868197E+02  0.15771014952E+02  0.18496399259E+03  0.19756459245E+03  0.00000000000E+00 0. -1.
</event>
<event>
 7    1  0.2693725E-009  0.1022729E+03  0.7561462E-02  0.1275588E+00
          2   -1    0    0  501    0  0.00000000000E+00  0.00000000000E+00  0.12765083581E+03  0.12765083581E+03  0.00000000000E+00 0. -1.
         -2   -1    0    0    0  501 -0.00000000000E+00 -0.00000000000E+00 -0.10033152752E+03  0.10033152752E+03  0.00000000000E+00 0.  1.
         25    2    1    2    0    0 -0.11333427734E+01 -0.72182361413E+01 -0.97108643128E+01  0.12568124775E+03  0.12509231691E+03 0.  0.
          5    1    3    3  502    0  0.33710979762E+00  0.56546019285E+02  0.12410260696E+02  0.58043543229E+02  0.41800000000E+01 0.  1.
         -5    1    3    3    0  502 -0.14704525710E+01 -0.63764255427E+02 -0.22121125009E+02  0.67637704519E+02  0.41800000000E+01 0.  1.
        -11    1    1    2    0    0 -0.27082368304E+02 -0.27896418873E+02 -0.67767651442E+01  0.39466307209E+02  0.00000000000E+00 0.  1.
         11    1    1    2    0    0  0.28215711078E+02  0.35114655014E+02  0.43806937753E+02  0.62834808376E+02  0.00000000000E+00 0. -1.
</event>
<event>
 7    1  0.2693725E-009  0.1255309E+03  0.7561462E-02  0.1234242E+00
         -4   -1    0    0    0  501 -0.00000000000E+00  0.00000000000E+00  0.12222768538E+04  0.12222768538E+04  0.00000000000E+00 0.  1.
          4   -1    0    0  501    0  0.00000000000E+00 -0.00000000000E+00 -0.16798038926E+02  0.16798038926E+02  0.00000000000E+00 0. -1.
         25    2    1    2    0    0  0.77805264853E+02 -0.49520193851E+02  0.71927548311E+03  0.73587392333E+03  0.12508917459E+03 0.  0.
          5    1    3    3  502    0  0.93527750412E+02 -0.51725468628E+02  0.70781779492E+03  0.71585366340E+03  0.41800000000E+01 0.  1.
         -5    1    3    3    0  502 -0.15722485559E+02  0.22052747773E+01  0.11457688190E+02  0.20020259929E+02  0.41800000000E+01 0.  1.
        -11    1    1    2    0    0 -0.31853780071E+02  0.70355005875E+02  0.33557045548E+03  0.34434288253E+03  0.00000000000E+00 0.  1.
         11    1    1    2    0    0 -0.45951484782E+02 -0.20834812024E+02  0.15063287632E+03  0.15885808690E+03  0.00000000000E+00 0. -1.
</event>
<event>
 7    1  0.2693725E-009  0.9450807E+02  0.7561462E-02  0.1292288E+00
          1   -1    0    0  501    0  0.00000000000E+00  0.00000000000E+00  0.10467070767E+03  0.10467070767E+03  0.00000000000E+00 0. -1.
         -1   -1    0    0    0  501 -0.00000000000E+00 -0.00000000000E+00 -0.10860745216E+03  0.10860745216E+03  0.00000000000E+00 0.  1.
         25    2    1    2    0    0  0.17614553051E+02  0.10137463151E+02  0.87306295168E+01  0.12702965200E+03  0.12508904011E+03 0.  0.
          5    1    3    3  502    0  0.43431800519E+02  0.53146840471E+02  0.26435759520E+02  0.73669734150E+02  0.41800000000E+01 0.  1.
         -5    1    3    3    0  502 -0.25817247468E+02 -0.43009377320E+02 -0.17705130003E+02  0.53359917848E+02  0.41800000000E+01 0.  1.
        -11    1    1    2    0    0 -0.30899729447E+02  0.20118310515E+02 -0.31254010639E+02  0.48335834315E+02  0.00000000000E+00 0.  1.
         11    1    1    2    0    0  0.13285176396E+02 -0.30255773666E+02  0.18586636635E+02  0.37912673519E+02  0.00000000000E+00 0. -1.
</event>
<event>
 7    1  0.2693725E-009  0.1484990E+03  0.7561462E-02  0.1202330E+00
         -2   -1    0    0    0  501 -0.00000000000E+00  0.00000000000E+00  0.56531666484E+02  0.56531666484E+02  0.00000000000E+00 0.  1.
          2   -1    0    0  501    0  0.00000000000E+00 -0.00000000000E+00 -0.47372908399E+03  0.47372908399E+03  0.00000000000E+00 0. -1.
         25    2    1    2    0    0  0.21004028646E+02 -0.11156522892E+03 -0.29752042284E+03  0.34213161815E+03  0.12509065756E+03 0.  0.
          5    1    3    3  502    0  0.62943230153E+02 -0.10988154604E+03 -0.22650778140E+03  0.25953622448E+03  0.41800000000E+01 0. -1.
         -5    1    3    3    0  502 -0.41939201506E+02 -0.16836828751E+01 -0.71012641437E+02  0.82595393666E+02  0.41800000000E+01 0. -1.
        -11    1    1    2    0    0  0.20006078286E+02  0.22786397393E+02 -0.74441877749E+02  0.80380695675E+02  0.00000000000E+00 0. -1.
         11    1    1    2    0    0 -0.41010106932E+02  0.88778831525E+02 -0.45235116915E+02  0.10774843665E+03  0.00000000000E+00 0.  1.
</event>
<event>
 7    1  0.2693725E-009  0.1538822E+03  0.7561462E-02  0.1195782E+00
          2   -1    0    0  501    0  0.00000000000E+00  0.00000000000E+00  0.99432652214E+03  0.99432652214E+03  0.00000000000E+00 0. -1.
         -2   -1    0    0    0  501 -0.00000000000E+00 -0.00000000000E+00 -0.29721118798E+02  0.29721118798E+02  0.00000000000E+00 0.  1.
         25    2    1    2    0    0 -0.85145576539E+02  0.84569403854E+02  0.69224614916E+03  0.71362035522E+03  0.12509007589E+03 0.  0.
          5    1    3    3  502    0 -0.45446066531E+02 -0.27267142620E+02  0.17381880695E+03  0.18176713696E+03  0.41800000000E+01 0. -1.
         -5    1    3    3    0  502 -0.39699510008E+02  0.11183654647E+03  0.51842734221E+03  0.53185321826E+03  0.41800000000E+01 0. -1.
        -11    1    1    2    0    0  0.24939799967E+02  0.73251367739E+01  0.13652570017E+02  0.29360584449E+02  0.00000000000E+00 0.  1.
         11    1    1    2    0    0  0.60205776572E+02 -0.91894540628E+02  0.25870668416E+03  0.28106670127E+03  0.00000000000E+00 0. -1.
</event>
<event>
 7    1  0.2693725E-009  0.1175556E+03  0.7561462E-02  0.1247185E+00
          1   -1    0    0  501    0  0.00000000000E+00  0.00000000000E+00  0.68456753680E+03  0.68456753680E+03  0.00000000000E+00 0. -1.
         -1   -1    0    0    0  501 -0.00000000000E+00 -0.00000000000E+00 -0.22743319426E+02  0.22743319426E+02  0.00000000000E+00 0.  1.
         25    2    1    2    0    0  0.61572457775E+02 -0.49175950335E+00  0.34817282354E+03  0.37505154411E+03  0.12509171156E+03 0.  0.
          5    1    3    3  502    0  0.99080916470E+02  0.11479049904E+02  0.24901179103E+03  0.26827810396E+03  0.41800000000E+01 0. -1.
         -5    1    3    3    0  502 -0.37508458694E+02 -0.11970809407E+02  0.99161032518E+02  0.10677344015E+03  0.41800000000E+01 0. -1.
        -11    1    1    2    0    0 -0.25308727197E+02  0.36608762278E+02  0.22942452292E+03  0.23370140108E+03  0.00000000000E+00 0.  1.
         11    1    1    2    0    0 -0.36263730578E+02 -0.36117002774E+02  0.84226870909E+02  0.98557911037E+02  0.00000000000E+00 0. -1.
</event>
<event>
 7    1  0.2693725E-009  0.1518024E+03  0.7561462E-02  0.1198276E+00
         -1   -1    0    0    0  501 -0.00000000000E+00  0.00000000000E+00  0.19605853603E+03  0.19605853603E+03  0.00000000000E+00 0.  1.
          1   -1    0    0  501    0  0.00000000000E+00 -0.00000000000E+00 -0.13180517028E+03  0.13180517028E+03  0.00000000000E+00 0. -1.
         25    2    1    2    0    0 -0.11188349655E+03  0.32579848619E+02  0.62771851856E+02  0.18212498147E+03  0.12509932117E+03 0.  0.
          5    1    3    3  502    0 -0.26354024616E+02  0.71902724710E+02  0.30188056702E+02  0.82421645225E+02  0.41800000000E+01 0. -1.
         -5    1    3    3    0  502 -0.85529471929E+02 -0.39322876091E+02  0.32583795155E+02  0.99703336250E+02  0.41800000000E+01 0. -1.
        -11    1    1    2    0    0  0.10482296790E+02  0.16873352922E+02 -0.22901604392E+02  0.30316201420E+02  0.00000000000E+00 0. -1.
         11    1    1    2    0    0  0.10140119976E+03 -0.49453201541E+02  0.24383118290E+02  0.11542252342E+03  0.00000000000E+00 0.  1.
</event>
<event>
 7    1  0.2693725E-009  0.8589496E+02  0.7561462E-02  0.1313109E+00
          2   -1    0    0  501    0  0.00000000000E+00  0.00000000000E+00  0.23296041176E+02  0.23296041176E+02  0.00000000000E+00 0. -1.
         -2   -1    0    0    0  501 -0.00000000000E+00 -0.00000000000E+00 -0.46794569131E+03  0.46794569131E+03  0.00000000000E+00 0.  1.
         25    2    1    2    0    0 -0.22364993195E+02  0.40955969058E+02 -0.32867642860E+03  0.35475762598E+03  0.12508874509E+03 0.  0.
          5    1    3    3  502    0 -0.46704986204E+02  0.56552887703E+02 -0.31320219710E+03  0.32170277200E+03  0.41800000000E+01 0. -1.
         -5    1    3    3    0  502  0.24339993008E+02 -0.15596918645E+02 -0.15474231502E+02  0.33054853977E+02  0.41800000000E+01 0. -1.
        -11    1    1    2    0    0 -0.59734197477E+01 -0.40330894062E+02 -0.48896691965E+02  0.63664348300E+02  0.00000000000E+00 0. -1.
         11    1    1    2    0    0  0.28338412943E+02 -0.62507499549E+00 -0.67076529568E+02  0.72819758210E+02  0.00000000000E+00 0.  1.
</event>
<event>
 7    1  0.2693725E-009  0.9762108E+02  0.7561462E-02  0.1285380E+00
         -1   -1    0    0    0  501 -0.00000000000E+00  0.00000000000E+00  0.37686026964E+03  0.37686026964E+03  0.00000000000E+00 0.  1.
          1   -1    0    0  501    0  0.00000000000E+00 -0.00000000000E+00 -0.33110145818E+02  0.33110145818E+02  0.00000000000E+00 0. -1.
         25    2    1    2    0    0 -0.28055665032E+02 -0.12049117473E+02  0.19681334270E+03  0.23519021800E+03  0.12508655086E+03 0.  0.
          5    1    3    3  502    0 -0.75097780892E+01  0.55103436495E+02  0.11103026341E+03  0.12424965703E+03  0.41800000000E+01 0. -1.
         -5    1    3    3    0  502 -0.20545886943E+02 -0.67152553968E+02  0.85783079295E+02  0.11094056097E+03  0.41800000000E+01 0. -1.
        -11    1    1    2    0    0  0.34577326194E+02  0.32624307357E+02  0.14558933855E+03  0.15315414593E+03  0.00000000000E+00 0.  1.
         11    1    1    2    0    0 -0.65216611626E+01 -0.20575189884E+02  0.13474425715E+01  0.21626051525E+02  0.00000000000E+00 0. -1.
</event>
<event>
 7    1  0.2693725E-009  0.1113360E+03  0.7561462E-02  0.1258116E+00
          2   -1    0    0  501    0  0.00000000000E+00  0.00000000000E+00  0.11879217511E+04  0.11879217511E+04  0.00000000000E+00 0. -1.
         -2   -1    0    0    0  501 -0.00000000000E+00 -0.00000000000E+00 -0.11060052941E+02  0.11060052941E+02  0.00000000000E+00 0.  1.
         25    2    1    2    0    0  0.31875325307E+02  0.68684031155E+01  0.77716655124E+03  0.78784406118E+03  0.12508878862E+03 0.  0.
          5    1    3    3  502    0  0.79724802758E+02 -0.43197918281E+01  0.48011548458E+03  0.48672688000E+03  0.41800000000E+01 0. -1.
         -5    1    3    3    0  502 -0.47849477451E+02  0.11188194944E+02  0.29705106666E+03  0.30111718118E+03  0.41800000000E+01 0. -1.
        -11    1    1    2    0    0 -0.56134911162E+02 -0.26613480764E+02  0.21432404774E+03  0.22314614729E+03  0.00000000000E+00 0.  1.
         11    1    1    2    0    0  0.24259585856E+02  0.19745077649E+02  0.18537109919E+03  0.18799159559E+03  0.00000000000E+00 0. -1.
</event>
<event>
 7    1  0.2693725E-009  0.9128774E+02  0.7561462E-02  0.1299763E+00
         -3   -1    0    0    0  501 -0.00000000000E+00  0.00000000000E+00  0.13521593587E+04  0.13521593587E+04  0.00000000000E+00 0.  1.
          3   -1    0    0  501    0  0.00000000000E+00 -0.00000000000E+00 -0.12112514862E+02  0.12112514862E+02  0.00000000000E+00 0. -1.
         25    2    1    2    0    0 -0.49606935558E+02 -0.23415598399E+02  0.96020438039E+03  0.96987082484E+03  0.12509127245E+03 0.  0.
          5    1    3    3  502    0 -0.63261688531E+02 -0.17805019122E+02  0.22332355068E+03  0.23283028289E+03  0.41800000000E+01 0.  1.
         -5    1    3    3    0  502  0.13654752973E+02 -0.56105792765E+01  0.73688082971E+03  0.73704054195E+03  0.41800000000E+01 0.  1.
        -11    1    1    2    0    0  0.70738866463E+02  0.33141606359E+02  0.33375894108E+03  0.34277891425E+03  0.00000000000E+00 0.  1.
         11    1    1    2    0    0 -0.21131930906E+02 -0.97260079599E+01  0.46083522371E+02  0.51622134484E+02  0.00000000000E+00 0. -1.
</event>
<event>
 7    1  0.2693725E-009  0.2061815E+03  0.7561462E-02  0.1144626E+00
         -2   -1    0    0    0  501 -0.00000000000E+00  0.00000000000E+00  0.18578749260E+03  0.18578749260E+03  0.00000000000E+00 0.  1.
          2   -1    0    0  501    0  0.00000000000E+00 -0.00000000000E+00 -0.28350679012E+03  0.28350679012E+03  0.00000000000E+00 0. -1.
         25    2    1    2    0    0 -0.19285877259E+03  0.42058555240E+02 -0.92661438861E+02  0.25138797815E+03  0.12508535116E+03 0.  0.
          5    1    3    3  502    0 -0.11416686319E+03  0.13552472266E+02  0.13836021311E+02  0.11587342250E+03  0.41800000000E+01 0.  1.
         -5    1    3    3    0  502 -0.78691909396E+02  0.28506082973E+02 -0.10649746017E+03  0.13551455565E+03  0.41800000000E+01 0.  1.
        -11    1    1    2    0    0  0.92128165723E+02  0.21247182581E+02  0.19226047585E+02  0.96481514255E+02  0.00000000000E+00 0.  1.
         11    1    1    2    0    0  0.10073060686E+03 -0.63305737821E+02 -0.24283906251E+02  0.12142479031E+03  0.00000000000E+00 0. -1.
</event>
<event>
 7    1  0.2693725E-009  0.1381620E+03  0.7561462E-02  0.1215824E+00
          2   -1    0    0  501    0  0.00000000000E+00  0.00000000000E+00  0.11598126685E+04  0.11598126685E+04  0.00000000000E+00 0. -1.
         -2   -1    0    0    0  501 -0.00000000000E+00 -0.00000000000E+00 -0.44834457878E+02  0.44834457878E+02  0.00000000000E+00 0.  1.
         25    2    1    2    0    0 -0.55455868309E+02  0.69357119815E+02  0.10544763070E+04  0.10655775884E+04  0.12509816741E+03 0.  0.
          5    1    3    3  502    0  0.39648521159E+02  0.22288664072E+02  0.25213904897E+03  0.25624277979E+03  0.41800000000E+01 0. -1.
         -5    1    3    3    0  502 -0.95104389467E+02  0.47068455743E+02  0.80233725807E+03  0.80933480866E+03  0.41800000000E+01 0. -1.
        -11    1    1    2    0    0  0.72942458018E+02 -0.76373166819E+02  0.56627247632E+02  0.11983366792E+03  0.00000000000E+00 0.  1.
         11    1    1    2    0    0 -0.17486589710E+02  0.70160470038E+01  0.38746559042E+01  0.19235869973E+02  0.00000000000E+00 0. -1.
</event>
<event>
 7    1  0.2693725E-009  0.1315074E+03  0.7561462E-02  0.1225236E+00
          1   -1    0    0  501    0  0.00000000000E+00  0.00000000000E+00  0.24890069471E+03  0.24890069471E+03  0.00000000000E+00 0. -1.
         -1   -1    0    0    0  501 -0.00000000000E+00 -0.00000000000E+00 -0.72539092563E+02  0.72539092563E+02  0.00000000000E+00 0.  1.
         25    2    1    2    0    0 -0.72006536628E+02 -0.30977356192E+02  0.85970658543E+02  0.17082929761E+03  0.12508859612E+03 0.  0.
          5    1    3    3  502    0 -0.57329786553E+02  0.42855845072E+02  0.49121781508E+02  0.86912310415E+02  0.41800000000E+01 0. -1.
         -5    1    3    3    0  502 -0.14676750075E+02 -0.73833201264E+02  0.36848877035E+02  0.83916987198E+02  0.41800000000E+01 0. -1.
        -11    1    1    2    0    0  0.73697368541E+02 -0.10472093660E+02  0.76806746669E+02  0.10695907259E+03  0.00000000000E+00 0. -1.
         11    1    1    2    0    0 -0.16908319133E+01  0.41449449853E+02  0.13584196932E+02  0.43651417067E+02  0.00000000000E+00 0.  1.
</event>
<event>
 7    1  0.4224736E-009  0.1763777E+03  0.7561462E-02  0.1171355E+00
          2   -1    0    0  501    0  0.00000000000E+00  0.00000000000E+00  0.11263579156E+04  0.11263579156E+04  0.00000000000E+00 0. -1.
         -2   -1    0    0    0  501 -0.00000000000E+00 -0.00000000000E+00 -0.30387177995E+02  0.30387177995E+02  0.00000000000E+00 0.  1.
         25    2    1    2    0    0  0.70827586922E+02  0.12696543161E+03  0.46946660523E+03  0.50713169648E+03  0.12508755435E+03 0.  0.
          5    1    3    3  502    0  0.82425316634E+02  0.14197507973E+03  0.35647524591E+03  0.39248303076E+03  0.41800000000E+01 0. -1.
         -5    1    3    3    0  502 -0.11597729712E+02 -0.15009648112E+02  0.11299135932E+03  0.11464866572E+03  0.41800000000E+01 0. -1.
        -11    1    1    2    0    0  0.40968118681E+01 -0.81225923740E+02  0.35808971022E+03  0.36720930696E+03  0.00000000000E+00 0.  1.
         11    1    1    2    0    0 -0.74924398790E+02 -0.45739507873E+02  0.26841442218E+03  0.28240409017E+03  0.00000000000E+00 0. -1.
</event>
<event>
 7    1  0.2693725E-009  0.1119719E+03  0.7561462E-02  0.1256961E+00
          1   -1    0    0  501    0  0.00000000000E+00  0.00000000000E+00  0.97626480747E+03  0.97626480747E+03  0.00000000000E+00 0. -1.
         -1   -1    0    0    0  501 -0.00000000000E+00 -0.00000000000E+00 -0.15154896672E+02  0.15154896672E+02  0.00000000000E+00 0.  1.
         25    2    1    2    0    0 -0.46356602425E+02 -0.27142488530E+02  0.49959950163E+03  0.51781659068E+03  0.12509480517E+03 0.  0.
          5    1    3    3  502    0  0.18411026329E+01  0.37661938632E+02  0.30102038702E+03  0.30340164318E+03  0.41800000000E+01 0. -1.
         -5    1    3    3    0  502 -0.48197705058E+02 -0.64804427162E+02  0.19857911461E+03  0.21441494750E+03  0.41800000000E+01 0. -1.
        -11    1    1    2    0    0  0.53073828897E+02  0.55027943858E+02  0.36498869917E+03  0.37290971621E+03  0.00000000000E+00 0. -1.
         11    1    1    2    0    0 -0.67172264726E+01 -0.27885455328E+02  0.96521709997E+02  0.10069339726E+03  0.00000000000E+00 0.  1.
</event>
<event>
 7    1  0.2693725E-009  0.1079805E+03  0.7561462E-02  0.1264356E+00
          1   -1    0    0  501    0  0.00000000000E+00  0.00000000000E+00  0.67186078712E+03  0.67186078712E+03  0.00000000000E+00 0. -1.
         -1   -1    0    0    0  501 -0.00000000000E+00 -0.00000000000E+00 -0.28385707647E+02  0.28385707647E+02  0.00000000000E+00 0.  1.
         25    2    1    2    0    0  0.59035245971E+02 -0.60455778942E+02  0.33153453868E+03  0.36428390359E+03  0.12509016988E+03 0.  0.
          5    1    3    3  502    0  0.33200113688E+02  0.16112885492E+02  0.23680231710E+03  0.23969706383E+03  0.41800000000E+01 0. -1.
         -5    1    3    3    0  502  0.25835132283E+02 -0.76568664434E+02  0.94732221582E+02  0.12458683975E+03  0.41800000000E+01 0. -1.
        -11    1    1    2    0    0 -0.41115717407E+02  0.72353619526E+01  0.38416436304E+02  0.56733369887E+02  0.00000000000E+00 0.  1.
         11    1    1    2    0    0 -0.17919528565E+02  0.53220416989E+02  0.27352410449E+03  0.27922922130E+03  0.00000000000E+00 0. -1.
</event>
<event>
 7    1  0.2693725E-009  0.1600865E+03  0.7561462E-02  0.1188599E+00
         -1   -1    0    0    0  501 -0.00000000000E+00  0.00000000000E+00  0.20120465130E+02  0.20120465130E+02  0.00000000000E+00 0.  1.
          1   -1    0    0  501    0  0.00000000000E+00 -0.00000000000E+00 -0.16919476860E+04  0.16919476860E+04  0.00000000000E+00 0. -1.
         25    2    1    2    0    0  0.13416193677E+03 -0.27149299694E+02 -0.11539454445E+04  0.11687487702E+04  0.12508832590E+03 0.  0.
          5    1    3    3  502    0  0.13422695244E+03  0.10241649921E+02 -0.10415857269E+04  0.10502571424E+04  0.41800000000E+01 0. -1.
         -5    1    3    3    0  502 -0.65015666392E-01 -0.37390949615E+02 -0.11235971756E+03  0.11849162785E+03  0.41800000000E+01 0. -1.
        -11    1    1    2    0    0 -0.33436036132E+02  0.32990841169E+02 -0.70593038054E+02  0.84792341252E+02  0.00000000000E+00 0.  1.
         11    1    1    2    0    0 -0.10072590064E+03 -0.58415414748E+01 -0.44728873831E+03  0.45852703965E+03  0.00000000000E+00 0. -1.
</event>
<event>
 7    1  0.2693725E-009  0.8779258E+02  0.7561462E-02  0.1308287E+00
          1   -1    0    0  501    0  0.00000000000E+00  0.00000000000E+00  0.21275585214E+03  0.21275585214E+03  0.00000000000E+00 0. -1.
         -1   -1    0    0    0  501 -0.00000000000E+00 -0.00000000000E+00 -0.57669682479E+02  0.57669682479E+02  0.00000000000E+00 0.  1.
         25    2    1    2    0    0  0.97244663791E+01  0.26216866563E+00  0.11308038312E+03  0.16890576756E+03  0.12508937321E+03 0.  0.
          5    1    3    3  502    0 -0.12282772443E+02 -0.59318761892E+02  0.66351446282E+02  0.89942030414E+02  0.41800000000E+01 0.  1.
         -5    1    3    3    0  502  0.22007238822E+02  0.59580930558E+02  0.46728936839E+02  0.78963737150E+02  0.41800000000E+01 0.  1.
        -11    1    1    2    0    0 -0.24525213530E+02 -0.16253152411E+02  0.64074594276E+02  0.70506770552E+02  0.00000000000E+00 0. -1.
         11    1    1    2    0    0  0.14800747151E+02  0.15990983745E+02 -0.22068807734E+02  0.31012996504E+02  0.00000000000E+00 0.  1.
</event>
<event>
 7    1  0.2759108E-009  0.1339507E+03  0.7561462E-02  0.1221709E+00
          2   -1    0    0  501    0  0.00000000000E+00  0.00000000000E+00  0.79707666408E+03  0.79707666408E+03  0.00000000000E+00 0. -1.
         -2   -1    0    0    0  501 -0.00000000000E+00 -0.00000000000E+00 -0.34524879581E+02  0.34524879581E+02  0.00000000000E+00 0.  1.
         25    2    1    2    0    0  0.36438475052E+02 -0.10320896305E+03  0.25452148825E+03  0.30398793866E+03  0.12509047265E+03 0.  0.
          5    1    3    3  502    0  0.18889621051E+02 -0.10645132836E+03  0.26255627793E+03  0.28397530628E+03  0.41800000000E+01 0. -1.
         -5    1    3    3    0  502  0.17548854001E+02  0.32423653123E+01 -0.80347896774E+01  0.20012632379E+02  0.41800000000E+01 0. -1.
        -11    1    1    2    0    0  0.28000466518E+02  0.52035081270E+02  0.18161505179E+03  0.19098613260E+03  0.00000000000E+00 0.  1.
         11    1    1    2    0    0 -0.64438941570E+02  0.51173881780E+02  0.32641524445E+03  0.33662747240E+03  0.00000000000E+00 0. -1.
</event>
<event>
 7    1  0.2693725E-009  0.2369271E+03  0.7561462E-02  0.1121857E+00
          2   -1    0    0  501    0  0.00000000000E+00  0.00000000000E+00  0.11165444286E+04  0.11165444286E+04  0.00000000000E+00 0. -1.
         -2   -1    0    0    0  501 -0.00000000000E+00 -0.00000000000E+00 -0.60445330449E+02  0.60445330449E+02  0.00000000000E+00 0.  1.
         25    2    1    2    0    0 -0.19405247713E+03 -0.92359215596E+02  0.32322222014E+03  0.40780586010E+03  0.12508568003E+03 0.  0.
          5    1    3    3  502    0  0.12130082618E+02  0.10155947888E+02  0.10534275970E+02  0.19460872335E+02  0.41800000000E+01 0. -1.
         -5    1    3    3    0  502 -0.20618255975E+03 -0.10251516348E+03  0.31268794417E+03  0.38834498777E+03  0.41800000000E+01 0. -1.
        -11    1    1    2    0    0  0.15078419830E+03  0.10303460991E+03  0.50542497849E+03  0.53740712144E+03  0.00000000000E+00 0.  1.
         11    1    1    2    0    0  0.43268278833E+02 -0.10675394314E+02  0.22745189956E+03  0.23177677755E+03  0.00000000000E+00 0. -1.
</event>
<event>
 7    1  0.2693725E-009  0.4060610E+03  0.7561462E-02  0.1041701E+00
          2   -1    0    0  501    0  0.00000000000E+00  0.00000000000E+00  0.42865365409E+03  0.42865365409E+03  0.00000000000E+00 0. -1.
         -2   -1    0    0    0  501 -0.00000000000E+00 -0.00000000000E+00 -0.46872633810E+03  0.46872633810E+03  0.00000000000E+00 0.  1.
         25    2    1    2    0    0 -0.39491147480E+03 -0.72763208405E+02 -0.18688119051E+03  0.46023553110E+03  0.12507040934E+03 0.  0.
          5    1    3    3  502    0 -0.63754894455E+02  0.51708278398E+01 -0.82255717262E+02  0.10428278597E+03  0.41800000000E+01 0.  1.
         -5    1    3    3    0  502 -0.33115658035E+03 -0.77934036245E+02 -0.10462547325E+03  0.35595274513E+03  0.41800000000E+01 0.  1.
        -11    1    1    2    0    0  0.10033353447E+03 -0.12534361097E+02  0.10897367743E+02  0.10169897232E+03  0.00000000000E+00 0.  1.
         11    1    1    2    0    0  0.29457794033E+03  0.85297569502E+02  0.13591113876E+03  0.33544548877E+03  0.00000000000E+00 0. -1.
</event>
<event>
 7    1  0.2693725E-009  0.9560883E+02  0.7561462E-02  0.1289811E+00
          2   -1    0    0  501    0  0.00000000000E+00  0.00000000000E+00  0.31564368341E+03  0.31564368341E+03  0.00000000000E+00 0. -1.
         -2   -1    0    0    0  501 -0.00000000000E+00 -0.00000000000E+00 -0.50524092906E+02  0.50524092906E+02  0.00000000000E+00 0.  1.
         25    2    1    2    0    0  0.25643117114E+02 -0.87824385324E+01  0.23820815806E+03  0.27042311195E+03  0.12510328623E+03 0.  0.
          5    1    3    3  502    0  0.34421055570E+02  0.44647005913E+02  0.53263639388E+02  0.77670147962E+02  0.41800000000E+01 0. -1.
         -5    1    3    3    0  502 -0.87779384555E+01 -0.53429444446E+02  0.18494451868E+03  0.19275296399E+03  0.41800000000E+01 0. -1.
        -11    1    1    2    0    0  0.26149105314E+02 -0.53593559583E+01  0.32167153335E+02  0.41799810510E+02  0.00000000000E+00 0. -1.
         11    1    1    2    0    0 -0.51792222428E+02  0.14141794491E+02 -0.52557208966E+01  0.53944853856E+02  0.00000000000E+00 0.  1.
</event>
<event>
 7    1  0.2693725E-009  0.2373966E+03  0.7561462E-02  0.1121539E+00
          3   -1    0    0  501    0  0.00000000000E+00  0.00000000000E+00  0.17316288142E+03  0.17316288142E+03  0.00000000000E+00 0. -1.
         -3   -1    0    0    0  501 -0.00000000000E+00 -0.00000000000E+00 -0.42618250665E+03  0.42618250665E+03  0.00000000000E+00 0.  1.
         25    2    1    2    0    0 -0.62619591008E+02  0.22456786979E+03 -0.22536628832E+03  0.34754677472E+03  0.12508739099E+03 0.  0.
          5    1    3    3  502    0 -0.52107060568E+02  0.90167250943E+02 -0.17478010465E+03  0.20349652647E+03  0.41800000000E+01 0.  1.
         -5    1    3    3    0  502 -0.10512530440E+02  0.13440061885E+03 -0.50586183673E+02  0.14405024825E+03  0.41800000000E+01 0.  1.
        -11    1    1    2    0    0  0.12292100895E+02 -0.10835920363E+03 -0.55154873239E+02  0.12220831722E+03  0.00000000000E+00 0.  1.
         11    1    1    2    0    0  0.50327490112E+02 -0.11620866616E+03  0.27501536331E+02  0.12959029614E+03  0.00000000000E+00 0. -1.
</event>
<event>
 7    1  0.2693725E-009  0.8325345E+02  0.7561462E-02  0.1320064E+00
          2   -1    0    0  501    0  0.00000000000E+00  0.00000000000E+00  0.33394638416E+03  0.33394638416E+03  0.00000000000E+00 0. -1.
         -2   -1    0    0    0  501 -0.00000000000E+00 -0.00000000000E+00 -0.42808672236E+02  0.42808672236E+02  0.00000000000E+00 0.  1.
         25    2    1    2    0    0  0.67615983559E+02  0.95298817412E+01  0.15975494463E+03  0.21408026449E+03  0.12508388158E+03 0.  0.
          5    1    3    3  502    0  0.25018648975E+01 -0.95270776027E+01 -0.19570137980E+02  0.22304421897E+02  0.41800000000E+01 0.  1.
         -5    1    3    3    0  502  0.65114118662E+02  0.19056959344E+02  0.17932508261E+03  0.19177584259E+03  0.41800000000E+01 0.  1.
        -11    1    1    2    0    0 -0.64669833320E+02  0.12279162501E+02  0.12225511679E+03  0.13884984247E+03  0.00000000000E+00 0. -1.
         11    1    1    2    0    0 -0.29461502390E+01 -0.21809044242E+02  0.91276505086E+01  0.23824949439E+02  0.00000000000E+00 0.  1.
</event>
<event>
 7    1  0.2693725E-009  0.9582294E+02  0.7561462E-02  0.1289333E+00
          1   -1    0    0  501    0  0.00000000000E+00  0.00000000000E+00  0.25637216425E+03  0.25637216425E+03  0.00000000000E+00 0. -1.
         -1   -1    0    0    0  501 -0.00000000000E+00 -0.00000000000E+00 -0.54279080984E+02  0.54279080984E+02  0.00000000000E+00 0.  1.
         25    2    1    2    0    0 -0.30830418021E+02  0.43418654604E+02  0.17757928021E+03  0.22364555466E+03  0.12508892483E+03 0.  0.
          5    1    3    3  502    0 -0.60877010568E+02  0.61985627583E+02  0.16387805807E+03  0.18553091052E+03  0.41800000000E+01 0.  1.
         -5    1    3    3    0  502  0.30046592547E+02 -0.18566972979E+02  0.13701222140E+02  0.38114644134E+02  0.41800000000E+01 0.  1.
        -11    1    1    2    0    0  0.33637967283E+02 -0.93492064698E+01 -0.12065583847E+02  0.36939123137E+02  0.00000000000E+00 0.  1.
         11    1    1    2    0    0 -0.28075492623E+01 -0.34069448134E+02  0.36579386898E+02  0.50066567436E+02  0.00000000000E+00 0. -1.
</event>
<event>
 7    1  0.2693725E-009  0.9316850E+02  0.7561462E-02  0.1295355E+00
          2   -1    0    0  501    0  0.00000000000E+00  0.00000000000E+00  0.10384979788E+03  0.10384979788E+03  0.00000000000E+00 0. -1.
         -2   -1    0    0    0  501 -0.00000000000E+00 -0.00000000000E+00 -0.14284190258E+03  0.14284190258E+03  0.00000000000E+00 0.  1.
         25    2    1    2    0    0 -0.41084371474E+02 -0.20282326532E+02  0.99900621264E+01  0.13359601518E+03  0.12509514611E+03 0.  0.
          5    1    3    3  502    0 -0.13120419051E+02  0.36278257753E+02  0.46511702528E+02  0.60572834288E+02  0.41800000000E+01 0.  1.
         -5    1    3    3    0  502 -0.27963952424E+02 -0.56560584285E+02 -0.36521640402E+02  0.73023180891E+02  0.41800000000E+01 0.  1.
        -11    1    1    2    0    0  0.19196160901E+02 -0.26457647919E+02 -0.51973054401E+02  0.61397867313E+02  0.00000000000E+00 0.  1.
         11    1    1    2    0    0  0.21888210573E+02  0.46739974451E+02  0.29908875774E+01  0.51697817965E+02  0.00000000000E+00 0. -1.
</event>
<event>
 7    1  0.2693725E-009  0.2296482E+03  0.7561462E-02  0.1126888E+00
         -2   -1    0    0    0  501 -0.00000000000E+00  0.00000000000E+00  0.92242081478E+02  0.92242081478E+02  0.00000000000E+00 0.  1.
          2   -1    0    0  501    0  0.00000000000E+00 -0.00000000000E+00 -0.77114500412E+03  0.77114500412E+03  0.00000000000E+00 0. -1.
         25    2    1    2    0    0 -0.20725003363E+03  0.21938330524E+02 -0.55162932205E+03  0.60280810529E+03  0.12509530798E+03 0.  0.
          5    1    3    3  502    0  0.72603955553E+00 -0.27639549933E+02 -0.85747984334E+02  0.90192355947E+02  0.41800000000E+01 0.  1.
         -5    1    3    3    0  502 -0.20797607318E+03  0.49577880457E+02 -0.46588133771E+03  0.51261574935E+03  0.41800000000E+01 0.  1.
        -11    1    1    2    0    0  0.15323313984E+03  0.11987800795E+02 -0.52789129031E+02  0.16251398296E+03  0.00000000000E+00 0.  1.
         11    1    1    2    0    0  0.54016893789E+02 -0.33926131319E+02 -0.74484471560E+02  0.98064997346E+02  0.00000000000E+00 0. -1.
</event>
<event>
 7    1  0.2693725E-009  0.1379822E+03  0.7561462E-02  0.1216070E+00
          2   -1    0    0  501    0  0.00000000000E+00  0.00000000000E+00  0.50581636395E+03  0.50581636395E+03  0.00000000000E+00 0. -1.
         -2   -1    0    0    0  501 -0.00000000000E+00 -0.00000000000E+00 -0.45646334719E+02  0.45646334719E+02  0.00000000000E+00 0.  1.
         25    2    1    2    0    0 -0.99287727556E+02 -0.18647519422E+02  0.19180590865E+03  0.25028400968E+03  0.12508715396E+03 0.  0.
          5    1    3    3  502    0 -0.81863181355E+02 -0.67885576133E+02  0.14608318174E+03  0.18074235889E+03  0.41800000000E+01 0.  1.
         -5    1    3    3    0  502 -0.17424546202E+02  0.49238056711E+02  0.45722726906E+02  0.69541650791E+02  0.41800000000E+01 0.  1.
        -11    1    1    2    0    0  0.97654520852E+02 -0.76270892119E+00  0.26362469406E+03  0.28113158216E+03  0.00000000000E+00 0. -1.
         11    1    1    2    0    0  0.16332067038E+01  0.19410228343E+02  0.47394265181E+01  0.20047106828E+02  0.00000000000E+00 0.  1.
</event>
<event>
 7    1  0.2693725E-009  0.6769226E+02  0.7561462E-02  0.1368121E+00
          2   -1    0    0  501    0  0.00000000000E+00  0.00000000000E+00  0.26677667499E+02  0.26677667499E+02  0.00000000000E+00 0. -1.
         -2   -1    0    0    0  501 -0.00000000000E+00 -0.00000000000E+00 -0.54097038397E+03  0.54097038397E+03  0.00000000000E+00 0.  1.
         25    2    1    2    0    0  0.51485498989E+01  0.27708569968E+02 -0.26717489133E+03  0.29635134901E+03  0.12508967618E+03 0.  0.
          5    1    3    3  502    0 -0.65394711471E+00  0.36802668908E+02 -0.27802993929E+03  0.28048704716E+03  0.41800000000E+01 0. -1.
         -5    1    3    3    0  502  0.58024970137E+01 -0.90940989404E+01  0.10855047953E+02  0.15864301850E+02  0.41800000000E+01 0. -1.
        -11    1    1    2    0    0  0.34356868858E+02  0.59529169906E+01 -0.24267480792E+02  0.42482258443E+02  0.00000000000E+00 0. -1.
         11    1    1    2    0    0 -0.39505418757E+02 -0.33661486958E+02 -0.22285034435E+03  0.22881444402E+03  0.00000000000E+00 0.  1.
</event>
<event>
 7    1  0.2693725E-009  0.1909231E+03  0.7561462E-02  0.1157631E+00
          1   -1    0    0  501    0  0.00000000000E+00  0.00000000000E+00  0.45121718970E+03  0.45121718970E+03  0.00000000000E+00 0. -1.
         -1   -1    0    0    0  501 -0.00000000000E+00 -0.00000000000E+00 -0.11625794211E+03  0.11625794211E+03  0.00000000000E+00 0.  1.
         25    2    1    2    0    0 -0.49410469010E+02  0.16187322247E+03  0.30647957213E+03  0.37178219665E+03  0.12509172241E+03 0.  0.
          5    1    3    3  502    0 -0.31719474622E+02  0.56898663756E+01  0.65697031126E+01  0.33153175544E+02  0.41800000000E+01 0.  1.
         -5    1    3    3    0  502 -0.17690994388E+02  0.15618335610E+03  0.29990986902E+03  0.33862902111E+03  0.41800000000E+01 0.  1.
        -11    1    1    2    0    0  0.49745025206E+02 -0.25796880688E+02  0.19454759870E+02  0.59317234153E+02  0.00000000000E+00 0. -1.
         11    1    1    2    0    0 -0.33455619562E+00 -0.13607634178E+03  0.90249155902E+01  0.13637570100E+03  0.00000000000E+00 0.  1.
</event>
<event>
 7    1  0.3030588E-009  0.2459499E+03  0.7561462E-02  0.1115891E+00
          1   -1    0    0  501    0  0.00000000000E+00  0.00000000000E+00  0.33702354864E+03  0.33702354864E+03  0.00000000000E+00 0. -1.
         -1   -1    0    0    0  501 -0.00000000000E+00 -0.00000000000E+00 -0.18926981372E+03  0.18926981372E+03  0.00000000000E+00 0.  1.
         25    2    1    2    0    0  0.20920988725E+03  0.80694323358E+02  0.34349420613E+02  0.25905137611E+03  0.12508949606E+03 0.  0.
          5    1    3    3  502    0  0.22471394569E+03  0.75275625458E+02  0.41549671295E+02  0.24063795370E+03  0.41800000000E+01 0. -1.
         -5    1    3    3    0  502 -0.15504058441E+02  0.54186979002E+01 -0.72002506819E+01  0.18413422413E+02  0.41800000000E+01 0. -1.
        -11    1    1    2    0    0 -0.10640236800E+03  0.13276869594E+01  0.26680028313E+02  0.10970437813E+03  0.00000000000E+00 0.  1.
         11    1    1    2    0    0 -0.10280751925E+03 -0.82022010318E+02  0.86724285989E+02  0.15753760812E+03  0.00000000000E+00 0. -1.
</event>
<event>
 7    1  0.2693725E-009  0.1391513E+03  0.7561462E-02  0.1214476E+00
          2   -1    0    0  501    0  0.00000000000E+00  0.00000000000E+00  0.97781064062E+03  0.97781064062E+03  0.00000000000E+00 0. -1.
         -2   -1    0    0    0  501 -0.00000000000E+00 -0.00000000000E+00 -0.32039913526E+02  0.32039913526E+02  0.00000000000E+00 0.  1.
         25    2    1    2    0    0  0.63358208611E+02 -0.10096149295E+03  0.70871578934E+03  0.72947465207E+03  0.12509081615E+03 0.  0.
          5    1    3    3  502    0  0.16736216954E+02  0.10708611543E+01  0.40996812753E+03  0.41033228692E+03  0.41800000000E+01 0. -1.
         -5    1    3    3    0  502  0.46621991657E+02 -0.10203235410E+03  0.29874766182E+03  0.31914236515E+03  0.41800000000E+01 0. -1.
        -11    1    1    2    0    0 -0.26346967608E+02 -0.12684123367E+02  0.34890647456E+02  0.45523696770E+02  0.00000000000E+00 0. -1.
         11    1    1    2    0    0 -0.37011241003E+02  0.11364561632E+03  0.20216429030E+03  0.23485220531E+03  0.00000000000E+00 0.  1.
</event>
<event>
 7    1  0.2693725E-009  0.1127892E+03  0.7561462E-02  0.1255490E+00
          1   -1    0    0  501    0  0.00000000000E+00  0.00000000000E+00  0.37017036463E+03  0.37017036463E+03  0.00000000000E+00 0. -1.
         -1   -1    0    0    0  501 -0.00000000000E+00 -0.00000000000E+00 -0.48529043852E+02  0.48529043852E+02  0.00000000000E+00 0.  1.
         25    2    1    2    0    0  0.62759184639E+02 -0.39694250217E+02  0.14204686997E+03  0.20332303905E+03  0.12509434911E+03 0.  0.
          5    1    3    3  502    0  0.45374558309E+02  0.16224070580E+02 -0.13356193769E+01  0.48387263687E+02  0.41800000000E+01 0. -1.
         -5    1    3    3    0  502  0.17384626329E+02 -0.55918320797E+02  0.14338248935E+03  0.15493577536E+03  0.41800000000E+01 0. -1.
        -11    1    1    2    0    0 -0.33682717896E+02 -0.28656701593E+02  0.58850750141E+02  0.73614827468E+02  0.00000000000E+00 0.  1.
         11    1    1    2    0    0 -0.29076466743E+02  0.68350951810E+02  0.12074370066E+03  0.14176154197E+03  0.00000000000E+00 0. -1.
</event>
<event>
 7    1  0.2693725E-009  0.1237464E+03  0.7561462E-02  0.1237042E+00
          1   -1    0    0  501    0  0.00000000000E+00  0.00000000000E+00  0.11547621586E+03  0.11547621586E+03  0.00000000000E+00 0. -1.
         -1   -1    0    0    0  501 -0.00000000000E+00 -0.00000000000E+00 -0.15876151707E+03  0.15876151707E+03  0.00000000000E+00 0.  1.
         25    2    1    2    0    0 -0.80003330794E+02 -0.13333370737E+02 -0.25534502953E+02  0.15125959689E+03  0.12509653512E+03 0.  0.
          5    1    3    3  502    0 -0.61471441358E+01  0.40346759241E+02 -0.41636983750E+02  0.58453051059E+02  0.41800000000E+01 0.  1.
         -5    1    3    3    0  502 -0.73856186658E+02 -0.53680129978E+02  0.16102480797E+02  0.92806545835E+02  0.41800000000E+01 0.  1.
        -11    1    1    2    0    0  0.32748363955E+02  0.46830362740E+02  0.11185736222E+02  0.58229364679E+02  0.00000000000E+00 0. -1.
         11    1    1    2    0    0  0.47254966839E+02 -0.33496992002E+02 -0.28936534478E+02  0.64748771353E+02  0.00000000000E+00 0.  1.
</event>
<event>
 7    1  0.2696796E-009  0.1507279E+03  0.7561462E-02  0.1199581E+00
         -2   -1    0    0    0  501 -0.00000000000E+00  0.00000000000E+00  0.61498251690E+02  0.61498251690E+02  0.00000000000E+00 0.  1.
          2   -1    0    0  501    0  0.00000000000E+00 -0.00000000000E+00 -0.52427748798E+03  0.52427748798E+03  0.00000000000E+00 0. -1.
         25    2    1    2    0    0 -0.89059132402E+01 -0.13552143131E+03 -0.17196740584E+03  0.25232209291E+03  0.12509307040E+03 0.  0.
          5    1    3    3  502    0  0.76027951621E+01 -0.14476383822E+03 -0.18016624940E+03  0.23128277319E+03  0.41800000000E+01 0. -1.
         -5    1    3    3    0  502 -0.16508708402E+02  0.92424069054E+01  0.81988435597E+01  0.21039319719E+02  0.41800000000E+01 0. -1.
        -11    1    1    2    0    0  0.12181245212E+02  0.49659117743E+02 -0.20773273779E+03  0.21393293589E+03  0.00000000000E+00 0. -1.
         11    1    1    2    0    0 -0.32753319718E+01  0.85862313567E+02 -0.83079092659E+02  0.11952071087E+03  0.00000000000E+00 0.  1.
</event>
<event>
 7    1  0.3087008E-009  0.1862687E+03  0.7561462E-02  0.1161870E+00
         -2   -1    0    0    0  501 -0.00000000000E+00  0.00000000000E+00  0.34548022452E+03  0.34548022452E+03  0.00000000000E+00 0.  1.
          2   -1    0    0  501    0  0.00000000000E+00 -0.00000000000E+00 -0.21125914978E+03  0.21125914978E+03  0.00000000000E+00 0. -1.
         25    2    1    2    0    0 -0.11529464921E+03  0.11160549828E+03  0.26231128605E+03  0.33196973822E+03  0.12509217771E+03 0.  0.
          5    1    3    3  502    0 -0.11795558451E+02  0.97987009962E+02  0.13491852962E+03  0.16721564327E+03  0.41800000000E+01 0.  1.
         -5    1    3    3    0  502 -0.10349909076E+03  0.13618488319E+02  0.12739275643E+03  0.16475409495E+03  0.41800000000E+01 0.  1.
        -11    1    1    2    0    0  0.61896259709E+02 -0.23403500502E+02 -0.82600182494E+01  0.66686570637E+02  0.00000000000E+00 0.  1.
         11    1    1    2    0    0  0.53398389498E+02 -0.88201997779E+02 -0.11983019305E+03  0.15808306544E+03  0.00000000000E+00 0. -1.
</event>
<event>
 7    1  0.2693725E-009  0.1159459E+03  0.7561462E-02  0.1249939E+00
          2   -1    0    0  501    0  0.00000000000E+00  0.00000000000E+00  0.38209706997E+02  0.38209706997E+02  0.00000000000E+00 0. -1.
         -2   -1    0    0    0  501 -0.00000000000E+00 -0.00000000000E+00 -0.45001396765E+03  0.45001396765E+03  0.00000000000E+00 0.  1.
         25    2    1    2    0    0  0.38817074386E+02  0.23643212614E+02 -0.11924392838E+03  0.17869614790E+03  0.12508969603E+03 0.  0.
          5    1    3    3  502    0 -0.70213195734E+01  0.67385211223E+02 -0.47273321623E+02  0.82718226271E+02  0.41800000000E+01 0.  1.
         -5    1    3    3    0  502  0.45838393959E+02 -0.43741998609E+02 -0.71970606753E+02  0.95977921625E+02  0.41800000000E+01 0.  1.
        -11    1    1    2    0    0 -0.19566135275E+01  0.32932663116E+02 -0.11183892076E+03  0.11660331399E+03  0.00000000000E+00 0. -1.
         11    1    1    2    0    0 -0.36860460858E+02 -0.56575875730E+02 -0.18072141152E+03  0.19292421277E+03  0.00000000000E+00 0.  1.
</event>
<event>
 7    1  0.2693725E-009  0.1144880E+03  0.7561462E-02  0.1252478E+00
         -1   -1    0    0    0  501 -0.00000000000E+00  0.00000000000E+00  0.25148430555E+02  0.25148430555E+02  0.00000000000E+00 0.  1.
          1   -1    0    0  501    0  0.00000000000E+00 -0.00000000000E+00 -0.68017605574E+03  0.68017605574E+03  0.00000000000E+00 0. -1.
         25    2    1    2    0    0  0.36061357400E+02 -0.51364139123E+02 -0.45689094890E+03  0.47784487508E+03  0.12509072375E+03 0.  0.
          5    1    3    3  502    0 -0.27103056632E+02  0.13334072775E+02 -0.35301731387E+02  0.46648234848E+02  0.41800000000E+01 0. -1.
         -5    1    3    3    0  502  0.63164414032E+02 -0.64698211898E+02 -0.42158921751E+03  0.43119664023E+03  0.41800000000E+01 0. -1.
        -11    1    1    2    0    0 -0.21501872291E+02 -0.23411387224E+02 -0.34107087183E+02  0.46623137602E+02  0.00000000000E+00 0.  1.
         11    1    1    2    0    0 -0.14559485109E+02  0.74775526347E+02 -0.16402958910E+03  0.18085647361E+03  0.00000000000E+00 0. -1.
</event>
<event>
 7    1  0.2981936E-009  0.8353917E+02  0.7561462E-02  0.1319298E+00
         -1   -1    0    0    0  501 -0.00000000000E+00  0.00000000000E+00  0.19540122921E+02  0.19540122921E+02  0.00000000000E+00 0.  1.
          1   -1    0    0  501    0  0.00000000000E+00 -0.00000000000E+00 -0.84521020502E+03  0.84521020502E+03  0.00000000000E+00 0. -1.
         25    2    1    2    0    0 -0.64094507475E+02  0.10418150908E+02 -0.53461231070E+03  0.55287830907E+03  0.12508980030E+03 0.  0.
          5    1    3    3  502    0 -0.18862941650E+02  0.71362887916E+01 -0.48469891412E+01  0.21158990740E+02  0.41800000000E+01 0.  1.
         -5    1    3    3    0  502 -0.45231565825E+02  0.32818621162E+01 -0.52976532156E+03  0.53171931833E+03  0.41800000000E+01 0.  1.
        -11    1    1    2    0    0  0.36859361046E+02 -0.44196092951E+02 -0.95011444277E+02  0.11108141911E+03  0.00000000000E+00 0.  1.
         11    1    1    2    0    0  0.27235146430E+02  0.33777942044E+02 -0.19604632713E+03  0.20079059976E+03  0.00000000000E+00 0. -1.
</event>
<event>
 7    1  0.2693725E-009  0.1324967E+03  0.7561462E-02  0.1223797E+00
         -1   -1    0    0    0  501 -0.00000000000E+00  0.00000000000E+00  0.15370256839E+03  0.15370256839E+03  0.00000000000E+00 0.  1.
          1   -1    0    0  501    0  0.00000000000E+00 -0.00000000000E+00 -0.14219677254E+03  0.14219677254E+03  0.00000000000E+00 0. -1.
         25    2    1    2    0    0  0.90843933197E+01 -0.93078117556E+02 -0.27778183579E+02  0.15862724894E+03  0.12507963245E+03 0.  0.
          5    1    3    3  502    0  0.52172358491E+02 -0.52265453511E+02  0.26025135763E+02  0.78411814879E+02  0.41800000000E+01 0.  1.
         -5    1    3    3    0  502 -0.43087965171E+02 -0.40812664045E+02 -0.53803319342E+02  0.80215434059E+02  0.41800000000E+01 0.  1.
        -11    1    1    2    0    0  0.32580817613E+02  0.82270243883E+02  0.26361435600E+02  0.92329995081E+02  0.00000000000E+00 0.  1.
         11    1    1    2    0    0 -0.41665210933E+02  0.10807873674E+02  0.12922543833E+02  0.44942096908E+02  0.00000000000E+00 0. -1.
</event>
<event>
 7    1  0.2693725E-009  0.1172555E+03  0.7561462E-02  0.1247694E+00
          2   -1    0    0  501    0  0.00000000000E+00  0.00000000000E+00  0.39189027329E+03  0.39189027329E+03  0.00000000000E+00 0. -1.
         -2   -1    0    0    0  501 -0.00000000000E+00 -0.00000000000E+00 -0.63276193988E+02  0.63276193988E+02  0.00000000000E+00 0.  1.
         25    2    1    2    0    0 -0.49623394409E+01  0.74860004920E+02  0.53488320389E+02  0.15535987212E+03  0.12508814611E+03 0.  0.
          5    1    3    3  502    0  0.52263429716E+02  0.69416864387E+02  0.22205008889E+02  0.89781412145E+02  0.41800000000E+01 0.  1.
         -5    1    3    3    0  502 -0.57225769157E+02  0.54431405326E+01  0.31283311500E+02  0.65578459976E+02  0.41800000000E+01 0.  1.
        -11    1    1    2    0    0  0.26620613777E+02 -0.30263482644E+02  0.22755758061E+03  0.23109951959E+03  0.00000000000E+00 0. -1.
         11    1    1    2    0    0 -0.21658274336E+02 -0.44596522275E+02  0.47568178302E+02  0.68707075569E+02  0.00000000000E+00 0.  1.
</event>
<event>
 7    1  0.2693725E-009  0.1373889E+03  0.7561462E-02  0.1216886E+00
          1   -1    0    0  501    0  0.00000000000E+00  0.00000000000E+00  0.23868912739E+03  0.23868912739E+03  0.00000000000E+00 0. -1.
         -1   -1    0    0    0  501 -0.00000000000E+00 -0.00000000000E+00 -0.15406038991E+03  0.15406038991E+03  0.00000000000E+00 0.  1.
         25    2    1    2    0    0 -0.75635471701E+02 -0.64737773984E+02 -0.79376759464E+02  0.17849917483E+03  0.12509828741E+03 0.  0.
          5    1    3    3  502    0 -0.92209811143E+02 -0.80350417907E+02 -0.91087247419E+02  0.15255555700E+03  0.41800000000E+01 0. -1.
         -5    1    3    3    0  502  0.16574339442E+02  0.15612643923E+02  0.11710487955E+02  0.25943617834E+02  0.41800000000E+01 0. -1.
        -11    1    1    2    0    0  0.30950091438E+02  0.76937213721E+02  0.66490909681E+02  0.10629338684E+03  0.00000000000E+00 0.  1.
         11    1    1    2    0    0  0.44685380264E+02 -0.12199439736E+02  0.97514587264E+02  0.10795695563E+03  0.00000000000E+00 0. -1.
</event>
<event>
 7    1  0.2693725E-009  0.9972759E+02  0.7561462E-02  0.1280870E+00
         -2   -1    0    0    0  501 -0.00000000000E+00  0.00000000000E+00  0.48946454059E+02  0.48946454059E+02  0.00000000000E+00 0. -1.
          2   -1    0    0  501    0  0.00000000000E+00 -0.00000000000E+00 -0.24768988184E+03  0.24768988184E+03  0.00000000000E+00 0.  1.
         25    2    1    2    0    0  0.24002624970E+01  0.20170790341E+02 -0.10908471856E+03  0.16721342633E+03  0.12509289380E+03 0.  0.
          5    1    3    3  502    0  0.48853680393E+02 -0.19013311478E+02 -0.88438897567E+02  0.10289363005E+03  0.41800000000E+01 0. -1.
         -5    1    3    3    0  502 -0.46453417896E+02  0.39184101820E+02 -0.20645820988E+02  0.64319796283E+02  0.41800000000E+01 0. -1.
        -11    1    1    2    0    0  0.26698568435E+02  0.22081173921E+02 -0.12637016427E+02  0.36879343573E+02  0.00000000000E+00 0. -1.
         11    1    1    2    0    0 -0.29098830932E+02 -0.42251964262E+02 -0.77021692796E+02  0.92543565994E+02  0.00000000000E+00 0.  1.
</event>
<event>
 7    1  0.2693725E-009  0.9315127E+02  0.7561462E-02  0.1295395E+00
          2   -1    0    0  501    0  0.00000000000E+00  0.00000000000E+00  0.21539631011E+03  0.21539631011E+03  0.00000000000E+00 0. -1.
         -2   -1    0    0    0  501 -0.00000000000E+00 -0.00000000000E+00 -0.58473244864E+02  0.58473244864E+02  0.00000000000E+00 0.  1.
         25    2    1    2    0    0 -0.23037875986E+02  0.81215868518E+01  0.68666110249E+02  0.14476981537E+03  0.12508621364E+03 0.  0.
          5    1    3    3  502    0  0.26816931741E+02  0.35364420269E+02  0.75210141354E+02  0.87428987249E+02  0.41800000000E+01 0.  1.
         -5    1    3    3    0  502 -0.49854807727E+02 -0.27242833417E+02 -0.65440311045E+01  0.57340828118E+02  0.41800000000E+01 0.  1.
        -11    1    1    2    0    0 -0.10598477099E+02  0.31235844324E+02  0.63840644043E+02  0.71858426919E+02  0.00000000000E+00 0. -1.
         11    1    1    2    0    0  0.33636353085E+02 -0.39357431176E+02  0.24416310954E+02  0.57241312688E+02  0.00000000000E+00 0.  1.
</event>
<event>
 7    1  0.2693725E-009  0.1811602E+03  0.7561462E-02  0.1166685E+00
          1   -1    0    0  501    0  0.00000000000E+00  0.00000000000E+00  0.16563224041E+03  0.16563224041E+03  0.00000000000E+00 0. -1.
         -1   -1    0    0    0  501 -0.00000000000E+00 -0.00000000000E+00 -0.21356091239E+03  0.21356091239E+03  0.00000000000E+00 0.  1.
         25    2    1    2    0    0  0.14750267355E+03  0.30790343537E+02 -0.54500458337E+02  0.20327959309E+03  0.12508880465E+03 0.  0.
          5    1    3    3  502    0  0.47262174210E+01  0.43214110717E+02 -0.39911326913E+02  0.59162343701E+02  0.41800000000E+01 0. -1.
         -5    1    3    3    0  502  0.14277645613E+03 -0.12423767180E+02 -0.14589131424E+02  0.14411724939E+03  0.41800000000E+01 0. -1.
        -11    1    1    2    0    0 -0.78671784135E+02 -0.61541993415E+02  0.10433330261E+02  0.10042669442E+03  0.00000000000E+00 0.  1.
         11    1    1    2    0    0 -0.68830889419E+02  0.30751649878E+02 -0.38615439110E+01  0.75486865280E+02  0.00000000000E+00 0. -1.
</event>
<event>
 7    1  0.2693725E-009  0.9612218E+02  0.7561462E-02  0.1288668E+00
          2   -1    0    0  501    0  0.00000000000E+00  0.00000000000E+00  0.27427277500E+03  0.27427277500E+03  0.00000000000E+00 0. -1.
         -2   -1    0    0    0  501 -0.00000000000E+00 -0.00000000000E+00 -0.57013603336E+02  0.57013603336E+02  0.00000000000E+00 0.  1.
         25    2    1    2    0    0  0.39812700213E+01  0.33276347668E+02  0.45433870741E+02  0.13723919501E+03  0.12508874534E+03 0.  0.
          5    1    3    3  502    0  0.58958375523E+02  0.71866874245E+01 -0.26020737353E+01  0.59598504245E+02  0.41800000000E+01 0.  1.
         -5    1    3    3    0  502 -0.54977105502E+02  0.26089660243E+02  0.48035944477E+02  0.77640690767E+02  0.41800000000E+01 0.  1.
        -11    1    1    2    0    0  0.28233761168E+02 -0.26632367720E+02  0.14909592604E+03  0.15406499746E+03  0.00000000000E+00 0. -1.
         11    1    1    2    0    0 -0.32215031189E+02 -0.66439799479E+01  0.22729374882E+02  0.39982185865E+02  0.00000000000E+00 0.  1.
</event>
<event>
 7    1  0.2693725E-009  0.1275308E+03  0.7561462E-02  0.1231166E+00
         -2   -1    0    0    0  501 -0.00000000000E+00  0.00000000000E+00  0.74287644153E+02  0.74287644153E+02  0.00000000000E+00 0.  1.
          2   -1    0    0  501    0  0.00000000000E+00 -0.00000000000E+00 -0.26075036353E+03  0.26075036353E+03  0.00000000000E+00 0. -1.
         25    2    1    2    0    0 -0.82410677501E+02  0.11109721208E+02 -0.67294773082E+02  0.16459223320E+03  0.12508825314E+03 0.  0.
          5    1    3    3  502    0 -0.79849731280E+02 -0.45796663301E+02 -0.50402561588E+02  0.10502954141E+03  0.41800000000E+01 0. -1.
         -5    1    3    3    0  502 -0.25609462208E+01  0.56906384509E+02 -0.16892211494E+02  0.59562691784E+02  0.41800000000E+01 0. -1.
        -11    1    1    2    0    0  0.49668967317E+02  0.26203614302E+02 -0.20117609668E+02  0.59651939915E+02  0.00000000000E+00 0.  1.
         11    1    1    2    0    0  0.32741710184E+02 -0.37313335510E+02 -0.99050336625E+02  0.11079383457E+03  0.00000000000E+00 0. -1.
</event>
<event>
 7    1  0.2693725E-009  0.1316965E+03  0.7561462E-02  0.1224960E+00
          1   -1    0    0  501    0  0.00000000000E+00  0.00000000000E+00  0.14762118681E+03  0.14762118681E+03  0.00000000000E+00 0. -1.
         -1   -1    0    0    0  501 -0.00000000000E+00 -0.00000000000E+00 -0.13375432315E+03  0.13375432315E+03  0.00000000000E+00 0.  1.
         25    2    1    2    0    0  0.79246251660E+02 -0.19168250998E+02 -0.10689299860E+02  0.14969801438E+03  0.12509134314E+03 0.  0.
          5    1    3    3  502    0  0.61048792053E+02 -0.66714750539E+02  0.16209090727E+02  0.91967494109E+02  0.41800000000E+01 0.  1.
         -5    1    3    3    0  502  0.18197459607E+02  0.47546499541E+02 -0.26898390587E+02  0.57730520272E+02  0.41800000000E+01 0.  1.
        -11    1    1    2    0    0 -0.27258808558E+02 -0.36539210916E+02 -0.12036652575E+02  0.47149099499E+02  0.00000000000E+00 0.  1.
         11    1    1    2    0    0 -0.51987443102E+02  0.55707461914E+02  0.36592816096E+02  0.84528396075E+02  0.00000000000E+00 0. -1.
</event>
<event>
 7    1  0.2693725E-009  0.8671624E+02  0.7561462E-02  0.1311004E+00
         -4   -1    0    0    0  501 -0.00000000000E+00  0.00000000000E+00  0.38495246911E+03  0.38495246911E+03  0.00000000000E+00 0.  1.
          4   -1    0    0  501    0  0.00000000000E+00 -0.00000000000E+00 -0.42089405008E+02  0.42089405008E+02  0.00000000000E+00 0. -1.
         25    2    1    2    0    0  0.28157574226E+02 -0.30800397349E+02  0.11450346413E+03  0.17464655502E+03  0.12509541326E+03 0.  0.
          5    1    3    3  502    0  0.35381978938E+02 -0.40938911732E+02  0.13768989390E+03  0.14799952098E+03  0.41800000000E+01 0.  1.
         -5    1    3    3    0  502 -0.72244047114E+01  0.10138514383E+02 -0.23186429776E+02  0.26647034039E+02  0.41800000000E+01 0.  1.
        -11    1    1    2    0    0 -0.16597435475E+01  0.63735996571E+02  0.15704438589E+03  0.16949327758E+03  0.00000000000E+00 0.  1.
         11    1    1    2    0    0 -0.26497830679E+02 -0.32935599222E+02  0.71315214093E+02  0.82902041519E+02  0.00000000000E+00 0. -1.
</event>
<event>
 7    1  0.2693725E-009  0.1116452E+03  0.7561462E-02  0.1257553E+00
         -2   -1    0    0    0  501 -0.00000000000E+00  0.00000000000E+00  0.19375637404E+02  0.19375637404E+02  0.00000000000E+00 0.  1.
          2   -1    0    0  501    0  0.00000000000E+00 -0.00000000000E+00 -0.15272371118E+04  0.15272371118E+04  0.00000000000E+00 0. -1.
         25    2    1    2    0    0  0.20680449820E+02  0.64722330354E+02 -0.13215534872E+04  0.13291985186E+04  0.12509365001E+03 0.  0.
          5    1    3    3  502    0  0.13085067189E+02 -0.21772950287E+02 -0.80275238247E+03  0.80316507663E+03  0.41800000000E+01 0. -1.
         -5    1    3    3    0  502  0.75953826312E+01  0.86495280640E+02 -0.51880110476E+03  0.52603344201E+03  0.41800000000E+01 0. -1.
        -11    1    1    2    0    0 -0.78569474758E+01 -0.85684703794E+02 -0.15814664333E+03  0.18003877606E+03  0.00000000000E+00 0.  1.
         11    1    1    2    0    0 -0.12823502344E+02  0.20962373440E+02 -0.28161343792E+02  0.37375454469E+02  0.00000000000E+00 0. -1.
</event>
<event>
 7    1  0.2892610E-009  0.1647768E+03  0.7561462E-02  0.1183407E+00
          1   -1    0    0  501    0  0.00000000000E+00  0.00000000000E+00  0.17773972334E+03  0.17773972334E+03  0.00000000000E+00 0. -1.
         -1   -1    0    0    0  501 -0.00000000000E+00 -0.00000000000E+00 -0.21821029210E+03  0.21821029210E+03  0.00000000000E+00 0.  1.
         25    2    1    2    0    0  0.14688987185E+00 -0.15162704486E+03  0.41108622005E+02  0.20082161211E+03  0.12509443944E+03 0.  0.
          5    1    3    3  502    0 -0.24311986821E+02 -0.14199732373E+03 -0.86584162976E+01  0.14438404768E+03  0.41800000000E+01 0. -1.
         -5    1    3    3    0  502  0.24458876692E+02 -0.96297211284E+01  0.49767038302E+02  0.56437564436E+02  0.41800000000E+01 0. -1.
        -11    1    1    2    0    0  0.16965484044E+02  0.20662731192E+02 -0.53922209950E+02  0.60186217983E+02  0.00000000000E+00 0.  1.
         11    1    1    2    0    0 -0.17112373916E+02  0.13096431367E+03 -0.27656980813E+02  0.13494218534E+03  0.00000000000E+00 0. -1.
</event>
<event>
 7    1  0.2693725E-009  0.1716643E+03  0.7561462E-02  0.1176123E+00
          2   -1    0    0  501    0  0.00000000000E+00  0.00000000000E+00  0.82588928042E+03  0.82588928042E+03  0.00000000000E+00 0.  1.
         -2   -1    0    0    0  501 -0.00000000000E+00 -0.00000000000E+00 -0.42905479186E+02  0.42905479186E+02  0.00000000000E+00 0. -1.
         25    2    1    2    0    0 -0.13999458975E+03  0.59367437764E+02  0.45241650716E+03  0.49340772363E+03  0.12508999947E+03 0.  0.
          5    1    3    3  502    0 -0.84605741083E+02 -0.14458026936E+02  0.32405170396E+03  0.33525236048E+03  0.41800000000E+01 0. -1.
         -5    1    3    3    0  502 -0.55388848664E+02  0.73825464700E+02  0.12836480319E+03  0.15815536315E+03  0.41800000000E+01 0. -1.
        -11    1    1    2    0    0  0.97521799731E+02 -0.71395987203E+02  0.16816734054E+03  0.20709452633E+03  0.00000000000E+00 0. -1.
         11    1    1    2    0    0  0.42472790016E+02  0.12028549438E+02  0.16239995354E+03  0.16829250965E+03  0.00000000000E+00 0.  1.
</event>
<event>
 7    1  0.2693725E-009  0.2096307E+03  0.7561462E-02  0.1141859E+00
          2   -1    0    0  501    0  0.00000000000E+00  0.00000000000E+00  0.46510508006E+03  0.46510508006E+03  0.00000000000E+00 0.  1.
         -2   -1    0    0    0  501 -0.00000000000E+00 -0.00000000000E+00 -0.17415803320E+03  0.17415803320E+03  0.00000000000E+00 0. -1.
         25    2    1    2    0    0 -0.10189120061E+03 -0.17288797591E+03  0.33900111629E+03  0.41332846194E+03  0.12508633670E+03 0.  0.
          5    1    3    3  502    0 -0.53625886327E+02 -0.15057445017E+03  0.31813258475E+03  0.35605366816E+03  0.41800000000E+01 0.  1.
         -5    1    3    3    0  502 -0.48265314284E+02 -0.22313525740E+02  0.20868531532E+02  0.57274793777E+02  0.41800000000E+01 0.  1.
        -11    1    1    2    0    0  0.32192044732E+02  0.19725782405E+02  0.21957743368E+02  0.43675814009E+02  0.00000000000E+00 0.  1.
         11    1    1    2    0    0  0.69699155879E+02  0.15316219350E+03 -0.70011812795E+02  0.18225883731E+03  0.00000000000E+00 0. -1.
</event>
<event>
 7    1  0.2693725E-009  0.2418881E+03  0.7561462E-02  0.1118541E+00
         -1   -1    0    0    0  501 -0.00000000000E+00  0.00000000000E+00  0.47220696322E+02  0.47220696322E+02  0.00000000000E+00 0. -1.
          1   -1    0    0  501    0  0.00000000000E+00 -0.00000000000E+00 -0.15484406410E+04  0.15484406410E+04  0.00000000000E+00 0.  1.
         25    2    1    2    0    0 -0.90522693439E+02  0.20814686240E+03 -0.10397894362E+04  0.10716011650E+04  0.12509001144E+03 0.  0.
          5    1    3    3  502    0 -0.15739421090E+02  0.12919606491E+03 -0.35318880828E+03  0.37642948776E+03  0.41800000000E+01 0.  1.
         -5    1    3    3    0  502 -0.74783272349E+02  0.78950797488E+02 -0.68660062790E+03  0.69517167727E+03  0.41800000000E+01 0.  1.
        -11    1    1    2    0    0  0.98984797417E+02 -0.11726907263E+03 -0.24395237897E+03  0.28820615664E+03  0.00000000000E+00 0.  1.
         11    1    1    2    0    0 -0.84621039784E+01 -0.90877789765E+02 -0.21747812951E+03  0.23585401564E+03  0.00000000000E+00 0. -1.
</event>
<event>
 7    1  0.2693725E-009  0.9600098E+02  0.7561462E-02  0.1288937E+00
          1   -1    0    0  501    0  0.00000000000E+00  0.00000000000E+00  0.52349640787E+03  0.52349640787E+03  0.00000000000E+00 0. -1.
         -1   -1    0    0    0  501 -0.00000000000E+00 -0.00000000000E+00 -0.30963432295E+02  0.30963432295E+02  0.00000000000E+00 0.  1.
         25    2    1    2    0    0 -0.47558738165E+02  0.41647597283E+02  0.32802876289E+03  0.35671677124E+03  0.12509048591E+03 0.  0.
          5    1    3    3  502    0 -0.21894889745E+02 -0.11259764739E+02  0.27879196164E+03  0.27990819705E+03  0.41800000000E+01 0. -1.
         -5    1    3    3    0  502 -0.25663848421E+02  0.52907362022E+02  0.49236801247E+02  0.76808574189E+02  0.41800000000E+01 0. -1.
        -11    1    1    2    0    0  0.31306242994E+02  0.24631688623E+02  0.44766714238E+02  0.59923781911E+02  0.00000000000E+00 0. -1.
         11    1    1    2    0    0  0.16252495171E+02 -0.66279285906E+02  0.11973749845E+03  0.13781928702E+03  0.00000000000E+00 0.  1.
</event>
<event>
 7    1  0.2693725E-009  0.1587711E+03  0.7561462E-02  0.1190091E+00
         -1   -1    0    0    0  501 -0.00000000000E+00  0.00000000000E+00  0.33311340056E+02  0.33311340056E+02  0.00000000000E+00 0.  1.
          1   -1    0    0  501    0  0.00000000000E+00 -0.00000000000E+00 -0.94787808903E+03  0.94787808903E+03  0.00000000000E+00 0. -1.
         25    2    1    2    0    0  0.11732594048E+03 -0.19639867986E+02 -0.68702554417E+03  0.70838052798E+03  0.12509106027E+03 0.  0.
          5    1    3    3  502    0  0.11529852942E+03 -0.57536295948E+02 -0.59389287021E+03  0.60772558768E+03  0.41800000000E+01 0. -1.
         -5    1    3    3    0  502  0.20274110612E+01  0.37896427962E+02 -0.93132673956E+02  0.10065494030E+03  0.41800000000E+01 0. -1.
        -11    1    1    2    0    0 -0.12358130405E+02 -0.31380830159E+02 -0.47822144918E+02  0.58518693023E+02  0.00000000000E+00 0. -1.
         11    1    1    2    0    0 -0.10496781008E+03  0.51020698145E+02 -0.17971905989E+03  0.21429020808E+03  0.00000000000E+00 0.  1.
</event>
<event>
 7    1  0.2693725E-009  0.8295821E+02  0.7561462E-02  0.1320860E+00
          1   -1    0    0  501    0  0.00000000000E+00  0.00000000000E+00  0.12929589656E+03  0.12929589656E+03  0.00000000000E+00 0. -1.
         -1   -1    0    0    0  501 -0.00000000000E+00 -0.00000000000E+00 -0.11384988226E+03  0.11384988226E+03  0.00000000000E+00 0.  1.
         25    2    1    2    0    0 -0.25530644885E+02 -0.71691836318E+01  0.57525656971E+02  0.14021285256E+03  0.12508889555E+03 0.  0.
          5    1    3    3  502    0 -0.23668577400E+02  0.35889884507E+02 -0.22886501114E+02  0.48883020562E+02  0.41800000000E+01 0.  1.
         -5    1    3    3    0  502 -0.18620674858E+01 -0.43059068139E+02  0.80412158084E+02  0.91329831994E+02  0.41800000000E+01 0.  1.
        -11    1    1    2    0    0 -0.19636148493E+02  0.24186804211E+02 -0.44825551222E+02  0.54588550703E+02  0.00000000000E+00 0.  1.
         11    1    1    2    0    0  0.45166793378E+02 -0.17017620580E+02  0.27459085522E+01  0.48344375557E+02  0.00000000000E+00 0. -1.
</event>
<event>
 7    1  0.2693725E-009  0.1113156E+03  0.7561462E-02  0.1258153E+00
         -1   -1    0    0    0  501 -0.00000000000E+00  0.00000000000E+00  0.38404391599E+02  0.38404391599E+02  0.00000000000E+00 0.  1.
          1   -1    0    0  501    0  0.00000000000E+00 -0.00000000000E+00 -0.55644045634E+03  0.55644045634E+03  0.00000000000E+00 0. -1.
         25    2    1    2    0    0  0.17209894961E+02 -0.54266970956E+02 -0.44540729988E+03  0.46612856685E+03  0.12508834249E+03 0.  0.
          5    1    3    3  502    0  0.36477978883E+02  0.18413216938E+02 -0.55674655916E+02  0.69186915040E+02  0.41800000000E+01 0.  1.
         -5    1    3    3    0  502 -0.19268083922E+02 -0.72680187894E+02 -0.38973264396E+03  0.39694165181E+03  0.41800000000E+01 0.  1.
        -11    1    1    2    0    0  0.17697750624E+02 -0.18463334885E+02 -0.16445721421E+02  0.30406691127E+02  0.00000000000E+00 0.  1.
         11    1    1    2    0    0 -0.34907645585E+02  0.72730305841E+02 -0.56183043437E+02  0.98309589958E+02  0.00000000000E+00 0. -1.
</event>
<event>
 7    1  0.2693725E-009  0.1057272E+03  0.7561462E-02  0.1268694E+00
          2   -1    0    0  501    0  0.00000000000E+00  0.00000000000E+00  0.41962916970E+02  0.41962916970E+02  0.00000000000E+00 0.  1.
         -2   -1    0    0    0  501 -0.00000000000E+00 -0.00000000000E+00 -0.31621723213E+03  0.31621723213E+03  0.00000000000E+00 0. -1.
         25    2    1    2    0    0 -0.15659871335E+02 -0.89583824193E+01 -0.21640582325E+03  0.25060692766E+03  0.12508744008E+03 0.  0.
          5    1    3    3  502    0  0.33793486065E+02  0.40574258147E+02 -0.65743963208E+02  0.84427550141E+02  0.41800000000E+01 0.  1.
         -5    1    3    3    0  502 -0.49453357400E+02 -0.49532640566E+02 -0.15066186004E+03  0.16617937752E+03  0.41800000000E+01 0.  1.
        -11    1    1    2    0    0 -0.35963488383E+02  0.74166395404E+01 -0.12342596637E+02  0.38739111121E+02  0.00000000000E+00 0.  1.
         11    1    1    2    0    0  0.51623359717E+02  0.15417428790E+01 -0.45505895276E+02  0.68834110327E+02  0.00000000000E+00 0. -1.
</event>
<event>
 7    1  0.2693725E-009  0.1733539E+03  0.7561462E-02  0.1174395E+00
          1   -1    0    0  501    0  0.00000000000E+00  0.00000000000E+00  0.95040002638E+03  0.95040002638E+03  0.00000000000E+00 0. -1.
         -1   -1    0    0    0  501 -0.00000000000E+00 -0.00000000000E+00 -0.43407809709E+02  0.43407809709E+02  0.00000000000E+00 0.  1.
         25    2    1    2    0    0  0.14573288978E+03 -0.78581928756E+02  0.35750867370E+03  0.41336812021E+03  0.12509019282E+03 0.  0.
          5    1    3    3  502    0  0.34990547288E+02 -0.32847850633E+02  0.14957013480E+02  0.50443080229E+02  0.41800000000E+01 0.  1.
         -5    1    3    3    0  502  0.11074234249E+03 -0.45734078122E+02  0.34255166022E+03  0.36292503998E+03  0.41800000000E+01 0.  1.
        -11    1    1    2    0    0 -0.95855927309E+02  0.13732999401E+02  0.21020827089E+03  0.23143999486E+03  0.00000000000E+00 0. -1.
         11    1    1    2    0    0 -0.49876962473E+02  0.64848929354E+02  0.33927527208E+03  0.34899972101E+03  0.00000000000E+00 0.  1.
</event>
<event>
 7    1  0.2693725E-009  0.1306895E+03  0.7561462E-02  0.1226436E+00
          2   -1    0    0  501    0  0.00000000000E+00  0.00000000000E+00  0.15131729270E+04  0.15131729270E+04  0.00000000000E+00 0. -1.
         -2   -1    0    0    0  501 -0.00000000000E+00 -0.00000000000E+00 -0.16655514265E+02  0.16655514265E+02  0.00000000000E+00 0.  1.
         25    2    1    2    0    0 -0.10045220994E+02  0.82739310216E+02  0.12027448438E+04  0.12121008286E+04  0.12508620747E+03 0.  0.
          5    1    3    3  502    0 -0.32169082617E+02  0.10958884989E+03  0.85763437841E+03  0.86521602235E+03  0.41800000000E+01 0.  1.
         -5    1    3    3    0  502  0.22123861623E+02 -0.26849539674E+02  0.34511046543E+03  0.34688480622E+03  0.41800000000E+01 0.  1.
        -11    1    1    2    0    0  0.42784489031E+02 -0.45160702958E+02  0.10104158992E+03  0.11865666642E+03  0.00000000000E+00 0.  1.
         11    1    1    2    0    0 -0.32739268037E+02 -0.37578607258E+02  0.19273097899E+03  0.19907094629E+03  0.00000000000E+00 0. -1.
</event>
<event>
 7    1  0.2693725E-009  0.9174494E+02  0.7561462E-02  0.1298680E+00
         -1   -1    0    0    0  501 -0.00000000000E+00  0.00000000000E+00  0.13110207465E+03  0.13110207465E+03  0.00000000000E+00 0.  1.
          1   -1    0    0  501    0  0.00000000000E+00 -0.00000000000E+00 -0.97511997073E+02  0.97511997073E+02  0.00000000000E+00 0. -1.
         25    2    1    2    0    0  0.18522387617E+02 -0.13277116719E+02  0.34873570212E+00  0.12715668743E+03  0.12509732559E+03 0.  0.
          5    1    3    3  502    0  0.41809403572E+02 -0.39619174638E+02  0.42796835287E+02  0.71880085814E+02  0.41800000000E+01 0. -1.
         -5    1    3    3    0  502 -0.23287015955E+02  0.26342057919E+02 -0.42448099584E+02  0.55276601612E+02  0.41800000000E+01 0. -1.
        -11    1    1    2    0    0  0.15285313620E+01  0.49182986323E+02  0.10273823595E+01  0.49217456926E+02  0.00000000000E+00 0. -1.
         11    1    1    2    0    0 -0.20050918979E+02 -0.35905869604E+02  0.32213959512E+02  0.52239927367E+02  0.00000000000E+00 0.  1.
</event>
<event>
 7    1  0.2693725E-009  0.2008981E+03  0.7561462E-02  0.1148984E+00
         -1   -1    0    0    0  501 -0.00000000000E+00  0.00000000000E+00  0.16366802585E+03  0.16366802585E+03  0.00000000000E+00 0.  1.
          1   -1    0    0  501    0  0.00000000000E+00 -0.00000000000E+00 -0.50019000325E+03  0.50019000325E+03  0.00000000000E+00 0. -1.
         25    2    1    2    0    0 -0.19815281207E+02 -0.16929005305E+03  0.62623809007E+02  0.22050271174E+03  0.12509171435E+03 0.  0.
          5    1    3    3  502    0  0.51524538743E+02 -0.65860617652E+02  0.10389749575E+02  0.84367163912E+02  0.41800000000E+01 0. -1.
         -5    1    3    3    0  502 -0.71339819951E+02 -0.10342943539E+03  0.52234059432E+02  0.13613554782E+03  0.41800000000E+01 0. -1.
        -11    1    1    2    0    0 -0.35498892044E+02  0.56395978794E+02 -0.15583415410E+03  0.16948439853E+03  0.00000000000E+00 0. -1.
         11    1    1    2    0    0  0.55314173251E+02  0.11289407425E+03 -0.24331163231E+03  0.27387091883E+03  0.00000000000E+00 0.  1.
</event>
<event>
 7    1  0.3747460E-009  0.1448098E+03  0.7561462E-02  0.1207000E+00
         -2   -1    0    0    0  501 -0.00000000000E+00  0.00000000000E+00  0.16032265829E+03  0.16032265829E+03  0.00000000000E+00 0.  1.
          2   -1    0    0  501    0  0.00000000000E+00 -0.00000000000E+00 -0.13718659095E+03  0.13718659095E+03  0.00000000000E+00 0. -1.
         25    2    1    2    0    0  0.95997757794E+02  0.28673020601E+02  0.32104363968E+01  0.16028943160E+03  0.12507870870E+03 0.  0.
          5    1    3    3  502    0  0.16028398220E+02  0.68577032870E+02  0.57512510150E+01  0.70783248548E+02  0.41800000000E+01 0. -1.
         -5    1    3    3    0  502  0.79969359573E+02 -0.39904012269E+02 -0.25408146182E+01  0.89506183052E+02  0.41800000000E+01 0. -1.
        -11    1    1    2    0    0 -0.10911020355E+02 -0.42073039850E+02  0.26378422805E+02  0.50843015618E+02  0.00000000000E+00 0.  1.
         11    1    1    2    0    0 -0.85086737438E+02  0.13400019249E+02 -0.64527918660E+01  0.86376802017E+02  0.00000000000E+00 0. -1.
</event>
<event>
 7    1  0.2866635E-009  0.1197662E+03  0.7561462E-02  0.1243483E+00
         -1   -1    0    0    0  501 -0.00000000000E+00  0.00000000000E+00  0.22194659199E+02  0.22194659199E+02  0.00000000000E+00 0.  1.
          1   -1    0    0  501    0  0.00000000000E+00 -0.00000000000E+00 -0.72821445460E+03  0.72821445460E+03  0.00000000000E+00 0. -1.
         25    2    1    2    0    0  0.34526559635E+02  0.46165373280E+02 -0.30027470908E+03  0.33035366832E+03  0.12508125458E+03 0.  0.
          5    1    3    3  502    0 -0.43622590892E+02  0.23841805845E+02 -0.16606925819E+03  0.17340078737E+03  0.41800000000E+01 0. -1.
         -5    1    3    3    0  502  0.78149150526E+02  0.22323567434E+02 -0.13420545089E+03  0.15695288095E+03  0.41800000000E+01 0. -1.
        -11    1    1    2    0    0 -0.42951500239E+02 -0.70475836776E+02 -0.29223111876E+03  0.30366215061E+03  0.00000000000E+00 0. -1.
         11    1    1    2    0    0  0.84249406044E+01  0.24310463496E+02 -0.11351396756E+03  0.11639329487E+03  0.00000000000E+00 0.  1.
</event>
<event>
 7    1  0.2693725E-009  0.1137677E+03  0.7561462E-02  0.1253748E+00
          2   -1    0    0  501    0  0.00000000000E+00  0.00000000000E+00  0.40542903831E+03  0.40542903831E+03  0.00000000000E+00 0. -1.
         -2   -1    0    0    0  501 -0.00000000000E+00 -0.00000000000E+00 -0.69179045066E+02  0.69179045066E+02  0.00000000000E+00 0.  1.
         25    2    1    2    0    0  0.31721150880E+01 -0.95762821971E+02  0.29705830419E+03  0.33626006252E+03  0.12508642281E+03 0.  0.
          5    1    3    3  502    0 -0.89178607686E+01 -0.10088399669E+03  0.30426849518E+03  0.32070843236E+03  0.41800000000E+01 0.  1.
         -5    1    3    3    0  502  0.12089975857E+02  0.51211747166E+01 -0.72101909846E+01  0.15551630163E+02  0.41800000000E+01 0.  1.
        -11    1    1    2    0    0  0.24139663138E+02  0.18407286005E+02 -0.20728896955E+02  0.36759198624E+02  0.00000000000E+00 0.  1.
         11    1    1    2    0    0 -0.27311778226E+02  0.77355535967E+02  0.59920586002E+02  0.10158882223E+03  0.00000000000E+00 0. -1.
</event>
<event>
 7    1  0.2693725E-009  0.7072468E+02  0.7561462E-02  0.1357646E+00
          1   -1    0    0  501    0  0.00000000000E+00  0.00000000000E+00  0.18630970838E+03  0.18630970838E+03  0.00000000000E+00 0. -1.
         -1   -1    0    0    0  501 -0.00000000000E+00 -0.00000000000E+00 -0.80690287249E+02  0.80690287249E+02  0.00000000000E+00 0.  1.
         25    2    1    2    0    0  0.51050402177E+02  0.87773017722E+01  0.30510355781E+02  0.13878794365E+03  0.12509207370E+03 0.  0.
          5    1    3    3  502    0 -0.35057563396E+01  0.34217654806E+01  0.70507161499E+02  0.70800642859E+02  0.41800000000E+01 0.  1.
         -5    1    3    3    0  502  0.54556158517E+02  0.53555362916E+01 -0.39996805719E+02  0.67987300791E+02  0.41800000000E+01 0.  1.
        -11    1    1    2    0    0 -0.13971759165E+02  0.25795204669E+02 -0.84039592445E+01  0.30516047730E+02  0.00000000000E+00 0.  1.
         11    1    1    2    0    0 -0.37078643012E+02 -0.34572506441E+02  0.83513024593E+02  0.97696004248E+02  0.00000000000E+00 0. -1.
</event>
<event>
 7    1  0.2693725E-009  0.7147258E+02  0.7561462E-02  0.1355156E+00
         -1   -1    0    0    0  501 -0.00000000000E+00  0.00000000000E+00  0.11926735587E+03  0.11926735587E+03  0.00000000000E+00 0.  1.
          1   -1    0    0  501    0  0.00000000000E+00 -0.00000000000E+00 -0.14119236834E+03  0.14119236834E+03  0.00000000000E+00 0. -1.
         25    2    1    2    0    0  0.34664893752E+02 -0.40235717175E+02 -0.56637807442E+02  0.14723170825E+03  0.12509503143E+03 0.  0.
          5    1    3    3  502    0 -0.47617881186E+01 -0.39782989361E+02 -0.87931400062E+02  0.96720030942E+02  0.41800000000E+01 0. -1.
         -5    1    3    3    0  502  0.39426681871E+02 -0.45272781432E+00  0.31293592621E+02  0.50511677313E+02  0.41800000000E+01 0. -1.
        -11    1    1    2    0    0  0.59271920766E+01  0.12539962309E+02 -0.29365600531E+02  0.32476464634E+02  0.00000000000E+00 0. -1.
         11    1    1    2    0    0 -0.40592085829E+02  0.27695754866E+02  0.64078395511E+02  0.80751551321E+02  0.00000000000E+00 0.  1.
</event>
<event>
 7    1  0.2693725E-009  0.2063301E+03  0.7561462E-02  0.1144506E+00
          1   -1    0    0  501    0  0.00000000000E+00  0.00000000000E+00  0.10297563886E+03  0.10297563886E+03  0.00000000000E+00 0. -1.
         -1   -1    0    0    0  501 -0.00000000000E+00 -0.00000000000E+00 -0.45740456899E+03  0.45740456899E+03  0.00000000000E+00 0.  1.
         25    2    1    2    0    0  0.16024813684E+03  0.84393730436E+02 -0.24931276881E+03  0.33257517477E+03  0.12509045960E+03 0.  0.
          5    1    3    3  502    0 -0.87239497498E+01  0.40544586004E+02 -0.75228374631E+02  0.86004369093E+02  0.41800000000E+01 0. -1.
         -5    1    3    3    0  502  0.16897208659E+03  0.43849144432E+02 -0.17408439418E+03  0.24657080567E+03  0.41800000000E+01 0. -1.
        -11    1    1    2    0    0 -0.71705734187E+02  0.32434766819E+01 -0.65245186018E+02  0.97000859557E+02  0.00000000000E+00 0.  1.
         11    1    1    2    0    0 -0.88542402654E+02 -0.87637207118E+02 -0.39870975302E+02  0.13080417352E+03  0.00000000000E+00 0. -1.
</event>
<event>
 7    1  0.2693725E-009  0.1379882E+03  0.7561462E-02  0.1216062E+00
         -2   -1    0    0    0  501 -0.00000000000E+00  0.00000000000E+00  0.29350660739E+02  0.29350660739E+02  0.00000000000E+00 0.  1.
          2   -1    0    0  501    0  0.00000000000E+00 -0.00000000000E+00 -0.83376931753E+03  0.83376931753E+03  0.00000000000E+00 0. -1.
         25    2    1    2    0    0 -0.67042066979E+02  0.89621723508E+02 -0.44701295492E+03  0.47749031570E+03  0.12509887152E+03 0.  0.
          5    1    3    3  502    0  0.25071393187E+01 -0.18595012405E+02 -0.95073084975E+01  0.21445781608E+02  0.41800000000E+01 0. -1.
         -5    1    3    3    0  502 -0.69549206298E+02  0.10821673591E+03 -0.43750564642E+03  0.45604453410E+03  0.41800000000E+01 0. -1.
        -11    1    1    2    0    0  0.38430221481E+02 -0.91631480315E+02 -0.33443176457E+03  0.34888080380E+03  0.00000000000E+00 0. -1.
         11    1    1    2    0    0  0.28611845498E+02  0.20097568066E+01 -0.22973937299E+02  0.36748858761E+02  0.00000000000E+00 0.  1.
</event>
<event>
 7    1  0.2693725E-009  0.1259810E+03  0.7561462E-02  0.1233544E+00
         -1   -1    0    0    0  501 -0.00000000000E+00  0.00000000000E+00  0.21786688942E+03  0.21786688942E+03  0.00000000000E+00 0.  1.
          1   -1    0    0  501    0  0.00000000000E+00 -0.00000000000E+00 -0.11669229580E+03  0.11669229580E+03  0.00000000000E+00 0. -1.
         25    2    1    2    0    0 -0.16969105575E+02 -0.11097453517E+03  0.72755744529E+02  0.18315155503E+03  0.12509114975E+03 0.  0.
          5    1    3    3  502    0 -0.15571117248E+02 -0.66728311510E+02  0.10693108623E+03  0.12707028311E+03  0.41800000000E+01 0. -1.
         -5    1    3    3    0  502 -0.13979883269E+01 -0.44246223656E+02 -0.34175341696E+02  0.56081271912E+02  0.41800000000E+01 0. -1.
        -11    1    1    2    0    0  0.46289780951E+02  0.94470646488E+02  0.44364734562E+02  0.11417388730E+03  0.00000000000E+00 0.  1.
         11    1    1    2    0    0 -0.29320675375E+02  0.16503888678E+02 -0.15945885473E+02  0.37233742888E+02  0.00000000000E+00 0. -1.
</event>
<event>
 7    1  0.2693725E-009  0.1354035E+03  0.7561462E-02  0.1219651E+00
          3   -1    0    0  501    0  0.00000000000E+00  0.00000000000E+00  0.28747661718E+03  0.28747661718E+03  0.00000000000E+00 0. -1.
         -3   -1    0    0    0  501 -0.00000000000E+00 -0.00000000000E+00 -0.80047674460E+02  0.80047674460E+02  0.00000000000E+00 0.  1.
         25    2    1    2    0    0  0.20263049364E+02  0.10000907748E+03  0.14571735106E+03  0.21747221890E+03  0.12509281692E+03 0.  0.
          5    1    3    3  502    0  0.36033230841E+02 -0.17034891966E+02  0.57106039486E+02  0.69764987027E+02  0.41800000000E+01 0. -1.
         -5    1    3    3    0  502 -0.15770181476E+02  0.11704396945E+03  0.88611311570E+02  0.14770723187E+03  0.41800000000E+01 0. -1.
        -11    1    1    2    0    0 -0.13127555598E+02 -0.86585033183E+00 -0.18239031035E+02  0.22488767549E+02  0.00000000000E+00 0.  1.
         11    1    1    2    0    0 -0.71354937669E+01 -0.99143227153E+02  0.79950622695E+02  0.12756330519E+03  0.00000000000E+00 0. -1.
</event>
<event>
 7    1  0.4498993E-009  0.1632133E+03  0.7561462E-02  0.1185116E+00
         -1   -1    0    0    0  501 -0.00000000000E+00  0.00000000000E+00  0.28489468721E+02  0.28489468721E+02  0.00000000000E+00 0.  1.
          1   -1    0    0  501    0  0.00000000000E+00 -0.00000000000E+00 -0.11285258968E+04  0.11285258968E+04  0.00000000000E+00 0. -1.
         25    2    1    2    0    0  0.64985868918E+02 -0.12576555351E+03 -0.63644947751E+03  0.66389495479E+03  0.12509370869E+03 0.  0.
          5    1    3    3  502    0  0.80134805514E+02 -0.11163336625E+03 -0.62483084928E+03  0.63977703782E+03  0.41800000000E+01 0.  1.
         -5    1    3    3    0  502 -0.15148936596E+02 -0.14132187251E+02 -0.11618628235E+02  0.24117916962E+02  0.41800000000E+01 0.  1.
        -11    1    1    2    0    0 -0.72201414034E+02  0.41583890249E+02 -0.21592492338E+03  0.23144294471E+03  0.00000000000E+00 0.  1.
         11    1    1    2    0    0  0.72155451157E+01  0.84181663257E+02 -0.24766202722E+03  0.26167746607E+03  0.00000000000E+00 0. -1.
</event>
<event>
 7    1  0.4731743E-009  0.2119194E+03  0.7561462E-02  0.1140055E+00
         -1   -1    0    0    0  501 -0.00000000000E+00  0.00000000000E+00  0.31093912894E+02  0.31093912894E+02  0.00000000000E+00 0.  1.
          1   -1    0    0  501    0  0.00000000000E+00 -0.00000000000E+00 -0.14593123115E+04  0.14593123115E+04  0.00000000000E+00 0. -1.
         25    2    1    2    0    0 -0.15908909306E+03  0.89937328221E+02 -0.70460891779E+03  0.73859237285E+03  0.12508758395E+03 0.  0.
          5    1    3    3  502    0 -0.18002941149E+03  0.74695766671E+02 -0.60855299178E+03  0.63901820222E+03  0.41800000000E+01 0. -1.
         -5    1    3    3    0  502  0.20940318435E+02  0.15241561551E+02 -0.96055926010E+02  0.99574170628E+02  0.41800000000E+01 0. -1.
        -11    1    1    2    0    0  0.11669600788E+03 -0.16504571610E+02 -0.46259083457E+03  0.47736845242E+03  0.00000000000E+00 0. -1.
         11    1    1    2    0    0  0.42393085177E+02 -0.73432756611E+02 -0.26101864627E+03  0.27444539916E+03  0.00000000000E+00 0.  1.
</event>
<event>
 7    1  0.2693725E-009  0.9046632E+02  0.7561462E-02  0.1301726E+00
          1   -1    0    0  501    0  0.00000000000E+00  0.00000000000E+00  0.34171056413E+02  0.34171056413E+02  0.00000000000E+00 0. -1.
         -1   -1    0    0    0  501 -0.00000000000E+00 -0.00000000000E+00 -0.36065321252E+03  0.36065321252E+03  0.00000000000E+00 0.  1.
         25    2    1    2    0    0  0.27519316748E+02  0.74474443395E+01 -0.19569304213E+03  0.23400518375E+03  0.12509948867E+03 0.  0.
          5    1    3    3  502    0 -0.98873242928E+01  0.45028076876E+02 -0.16755622935E+03  0.17383281992E+03  0.41800000000E+01 0.  1.
         -5    1    3    3    0  502  0.37406641040E+02 -0.37580632537E+02 -0.28136812783E+02  0.60172363834E+02  0.41800000000E+01 0.  1.
        -11    1    1    2    0    0 -0.27848029046E+02  0.31763021382E+02 -0.27674004287E+02  0.50500027350E+02  0.00000000000E+00 0. -1.
         11    1    1    2    0    0  0.32871229815E+00 -0.39210465721E+02 -0.10311510969E+03  0.11031905783E+03  0.00000000000E+00 0.  1.
</event>
<event>
 7    1  0.2693725E-009  0.2422210E+03  0.7561462E-02  0.1118322E+00
          3   -1    0    0  501    0  0.00000000000E+00  0.00000000000E+00  0.94084174247E+02  0.94084174247E+02  0.00000000000E+00 0. -1.
         -3   -1    0    0    0  501 -0.00000000000E+00 -0.00000000000E+00 -0.66044003012E+03  0.66044003012E+03  0.00000000000E+00 0.  1.
         25    2    1    2    0    0  0.22284547564E+03  0.13021552189E+02 -0.26478574070E+03  0.36822329491E+03  0.12508892676E+03 0.  0.
          5    1    3    3  502    0  0.96128072431E+02  0.66172816448E+02 -0.14243564496E+03  0.18418695204E+03  0.41800000000E+01 0.  1.
         -5    1    3    3    0  502  0.12671740321E+03 -0.53151264259E+02 -0.12235009574E+03  0.18403634287E+03  0.41800000000E+01 0.  1.
        -11    1    1    2    0    0 -0.77426305148E+02 -0.31521506193E+02 -0.16948399862E+03  0.18897953294E+03  0.00000000000E+00 0.  1.
         11    1    1    2    0    0 -0.14541917050E+03  0.18499954004E+02 -0.13208611655E+03  0.19732137652E+03  0.00000000000E+00 0. -1.
</event>
<event>
 7    1  0.2693725E-009  0.1173294E+03  0.7561462E-02  0.1247569E+00
         -1   -1    0    0    0  501 -0.00000000000E+00  0.00000000000E+00  0.11708995267E+03  0.11708995267E+03  0.00000000000E+00 0.  1.
          1   -1    0    0  501    0  0.00000000000E+00 -0.00000000000E+00 -0.37057204411E+03  0.37057204411E+03  0.00000000000E+00 0. -1.
         25    2    1    2    0    0 -0.18891498383E+02  0.10030689342E+03 -0.29926179722E+03  0.34003604534E+03  0.12509407370E+03 0.  0.
          5    1    3    3  502    0  0.51627115103E+01 -0.10966077746E+02  0.60400555008E+01  0.14172618732E+02  0.41800000000E+01 0. -1.
         -5    1    3    3    0  502 -0.24054209894E+02  0.11127297117E+03 -0.30530185272E+03  0.32586342661E+03  0.41800000000E+01 0. -1.
        -11    1    1    2    0    0 -0.27757348033E+01 -0.73028926059E+02 -0.17719118748E+02  0.75199041977E+02  0.00000000000E+00 0. -1.
         11    1    1    2    0    0  0.21667233187E+02 -0.27277967361E+02  0.63498824532E+02  0.72426909462E+02  0.00000000000E+00 0.  1.
</event>
<event>
 7    1  0.2693725E-009  0.1709578E+03  0.7561462E-02  0.1176853E+00
         -2   -1    0    0    0  501 -0.00000000000E+00  0.00000000000E+00  0.16808352485E+03  0.16808352485E+03  0.00000000000E+00 0.  1.
          2   -1    0    0  501    0  0.00000000000E+00 -0.00000000000E+00 -0.22540085244E+03  0.22540085244E+03  0.00000000000E+00 0. -1.
         25    2    1    2    0    0 -0.10641255252E+03  0.11068362134E+03 -0.84434413549E+02  0.21529494521E+03  0.12509295692E+03 0.  0.
          5    1    3    3  502    0  0.93105659929E+01  0.58259139471E+02 -0.62954233544E+02  0.86380101251E+02  0.41800000000E+01 0.  1.
         -5    1    3    3    0  502 -0.11572311852E+03  0.52424481873E+02 -0.21480180005E+02  0.12891484395E+03  0.41800000000E+01 0.  1.
        -11    1    1    2    0    0  0.38524460749E+02 -0.58430694031E+02  0.54003511024E+02  0.88400561559E+02  0.00000000000E+00 0.  1.
         11    1    1    2    0    0  0.67888091774E+02 -0.52252927313E+02 -0.26886425070E+02  0.89788870527E+02  0.00000000000E+00 0. -1.
</event>
<event>
 7    1  0.2693725E-009  0.1213109E+03  0.7561462E-02  0.1240950E+00
         -2   -1    0    0    0  501 -0.00000000000E+00  0.00000000000E+00  0.13652043473E+03  0.13652043473E+03  0.00000000000E+00 0.  1.
          2   -1    0    0  501    0  0.00000000000E+00 -0.00000000000E+00 -0.13465287035E+03  0.13465287035E+03  0.00000000000E+00 0. -1.
         25    2    1    2    0    0 -0.54035234134E+02 -0.41830997444E+02 -0.43616780552E+02  0.14905816982E+03  0.12508507333E+03 0.  0.
          5    1    3    3  502    0  0.24160429800E+02  0.27354462162E+02 -0.20393545839E+02  0.42016212112E+02  0.41800000000E+01 0.  1.
         -5    1    3    3    0  502 -0.78195663934E+02 -0.69185459607E+02 -0.23223234713E+02  0.10704195771E+03  0.41800000000E+01 0.  1.
        -11    1    1    2    0    0  0.40735707989E+02 -0.14709888737E+02 -0.69505830575E+01  0.43864442740E+02  0.00000000000E+00 0.  1.
         11    1    1    2    0    0  0.13299526145E+02  0.56540886181E+02  0.52434927993E+02  0.78250692517E+02  0.00000000000E+00 0. -1.
</event>
<event>
 7    1  0.2693725E-009  0.1089309E+03  0.7561462E-02  0.1262563E+00
         -1   -1    0    0    0  501 -0.00000000000E+00  0.00000000000E+00  0.22447356877E+03  0.22447356877E+03  0.00000000000E+00 0.  1.
          1   -1    0    0  501    0  0.00000000000E+00 -0.00000000000E+00 -0.83755112233E+02  0.83755112233E+02  0.00000000000E+00 0. -1.
         25    2    1    2    0    0 -0.50696385471E+02  0.28715532270E+02  0.99531485278E+01  0.13835197195E+03  0.12508995836E+03 0.  0.
          5    1    3    3  502    0  0.31117148629E+02 -0.21386715787E+02  0.17904266073E+02  0.41996472406E+02  0.41800000000E+01 0.  1.
         -5    1    3    3    0  502 -0.81813534099E+02  0.50102248057E+02 -0.79511175452E+01  0.96355499544E+02  0.41800000000E+01 0.  1.
        -11    1    1    2    0    0 -0.52912796715E+01 -0.27334040359E+02  0.10426595175E+03  0.10791911831E+03  0.00000000000E+00 0.  1.
         11    1    1    2    0    0  0.55987665142E+02 -0.13814919113E+01  0.26499356253E+02  0.61957590736E+02  0.00000000000E+00 0. -1.
</event>
<event>
 7    1  0.2693725E-009  0.1167231E+03  0.7561462E-02  0.1248603E+00
         -1   -1    0    0    0  501 -0.00000000000E+00  0.00000000000E+00  0.15213792690E+02  0.15213792690E+02  0.00000000000E+00 0. -1.
          1   -1    0    0  501    0  0.00000000000E+00 -0.00000000000E+00 -0.93552937954E+03  0.93552937954E+03  0.00000000000E+00 0.  1.
         25    2    1    2    0    0  0.17015395179E+02 -0.46278862833E+02 -0.54037769073E+03  0.55685437497E+03  0.12508992551E+03 0.  0.
          5    1    3    3  502    0  0.22933862998E+02 -0.86214765207E+02 -0.43177585505E+03  0.44091587544E+03  0.41800000000E+01 0. -1.
         -5    1    3    3    0  502 -0.59184678184E+01  0.39935902373E+02 -0.10860183568E+03  0.11593849953E+03  0.41800000000E+01 0. -1.
        -11    1    1    2    0    0  0.31201638617E+02  0.45689435422E+02 -0.21912819600E+03  0.22600494031E+03  0.00000000000E+00 0.  1.
         11    1    1    2    0    0 -0.48217033796E+02  0.58942741100E+00 -0.16080970012E+03  0.16788385695E+03  0.00000000000E+00 0. -1.
</event>
<event>
 7    1  0.2693725E-009  0.1280309E+03  0.7561462E-02  0.1230407E+00
          2   -1    0    0  501    0  0.00000000000E+00  0.00000000000E+00  0.15134176786E+03  0.15134176786E+03  0.00000000000E+00 0. -1.
         -2   -1    0    0    0  501 -0.00000000000E+00 -0.00000000000E+00 -0.14388825199E+03  0.14388825199E+03  0.00000000000E+00 0.  1.
         25    2    1    2    0    0 -0.70246716357E+02  0.67447075576E+02 -0.13754064426E+01  0.15853309956E+03  0.12508853965E+03 0.  0.
          5    1    3    3  502    0 -0.37595198393E+02  0.76654833976E+02 -0.50050538701E+02  0.99054991487E+02  0.41800000000E+01 0. -1.
         -5    1    3    3    0  502 -0.32651517964E+02 -0.92077583996E+01  0.48675132259E+02  0.59478108077E+02  0.41800000000E+01 0. -1.
        -11    1    1    2    0    0  0.18073761165E+02 -0.80594519487E+02  0.62042224127E+01  0.82828918801E+02  0.00000000000E+00 0. -1.
         11    1    1    2    0    0  0.52172955192E+02  0.13147443911E+02  0.26246999042E+01  0.53868001490E+02  0.00000000000E+00 0.  1.
</event>
<event>
 7    1  0.2693725E-009  0.1116829E+03  0.7561462E-02  0.1257485E+00
          1   -1    0    0  501    0  0.00000000000E+00  0.00000000000E+00  0.16692718886E+03  0.16692718886E+03  0.00000000000E+00 0. -1.
         -1   -1    0    0    0  501 -0.00000000000E+00 -0.00000000000E+00 -0.10260248595E+03  0.10260248595E+03  0.00000000000E+00 0.  1.
         25    2    1    2    0    0 -0.37724743746E+01  0.68565672686E+02  0.85964717349E+01  0.14295583630E+03  0.12508792416E+03 0.  0.
          5    1    3    3  502    0 -0.49987218269E+02  0.60864881069E+02 -0.27644327096E+02  0.83575935283E+02  0.41800000000E+01 0.  1.
         -5    1    3    3    0  502  0.46214743894E+02  0.77007916171E+01  0.36240798831E+02  0.59379901016E+02  0.41800000000E+01 0.  1.
        -11    1    1    2    0    0 -0.22126584503E+02 -0.68044659454E+02  0.76480352788E+01  0.71959390392E+02  0.00000000000E+00 0. -1.
         11    1    1    2    0    0  0.25899058877E+02 -0.52101323198E+00  0.48080195898E+02  0.54614448117E+02  0.00000000000E+00 0.  1.
</event>
<event>
 7    1  0.2693725E-009  0.9380662E+02  0.7561462E-02  0.1293887E+00
          2   -1    0    0  501    0  0.00000000000E+00  0.00000000000E+00  0.15371756133E+03  0.15371756133E+03  0.00000000000E+00 0. -1.
         -2   -1    0    0    0  501 -0.00000000000E+00 -0.00000000000E+00 -0.10549049840E+03  0.10549049840E+03  0.00000000000E+00 0.  1.
         25    2    1    2    0    0  0.50960281921E+02 -0.43961849738E+02  0.20338805016E+02  0.14349470107E+03  0.12508983844E+03 0.  0.
          5    1    3    3  502    0 -0.93411632579E+01  0.22879775989E+02 -0.30931426467E+02  0.39811644322E+02  0.41800000000E+01 0. -1.
         -5    1    3    3    0  502  0.60301445179E+02 -0.66841625727E+02  0.51270231483E+02  0.10368305675E+03  0.41800000000E+01 0. -1.
        -11    1    1    2    0    0 -0.13279099710E+01  0.14809209577E+02  0.51421239872E+02  0.53527749282E+02  0.00000000000E+00 0. -1.
         11    1    1    2    0    0 -0.49632371950E+02  0.29152640161E+02 -0.23532981957E+02  0.62185609377E+02  0.00000000000E+00 0.  1.
</event>
<event>
 7    1  0.2693725E-009  0.9133384E+02  0.7561462E-02  0.1299653E+00
         -1   -1    0    0    0  501 -0.00000000000E+00  0.00000000000E+00  0.98855331817E+02  0.98855331817E+02  0.00000000000E+00 0.  1.
          1   -1    0    0  501    0  0.00000000000E+00 -0.00000000000E+00 -0.11743354536E+03  0.11743354536E+03  0.00000000000E+00 0. -1.
         25    2    1    2    0    0 -0.18129563300E+02  0.64766194360E+01 -0.13622920255E+02  0.12729166161E+03  0.12508779115E+03 0.  0.
          5    1    3    3  502    0  0.59257247103E+01 -0.53373401479E+02 -0.28534824499E+02  0.60955252505E+02  0.41800000000E+01 0. -1.
         -5    1    3    3    0  502 -0.24055288010E+02  0.59850020915E+02  0.14911904245E+02  0.66336409105E+02  0.41800000000E+01 0. -1.
        -11    1    1    2    0    0  0.10426532226E+02 -0.34011187569E+02  0.28070215268E+02  0.45314572041E+02  0.00000000000E+00 0.  1.
         11    1    1    2    0    0  0.77030310737E+01  0.27534568133E+02 -0.33025508555E+02  0.43682643524E+02  0.00000000000E+00 0. -1.
</event>
<event>
 7    1  0.2693725E-009  0.1286031E+03  0.7561462E-02  0.1229543E+00
          1   -1    0    0  501    0  0.00000000000E+00  0.00000000000E+00  0.11582181295E+04  0.11582181295E+04  0.00000000000E+00 0. -1.
         -1   -1    0    0    0  501 -0.00000000000E+00 -0.00000000000E+00 -0.16898123448E+02  0.16898123448E+02  0.00000000000E+00 0.  1.
         25    2    1    2    0    0 -0.31552838326E+02  0.80146521046E+02  0.72141383259E+03  0.73722759148E+03  0.12509019688E+03 0.  0.
          5    1    3    3  502    0 -0.75674175346E+02  0.24755902467E+02  0.42774425806E+03  0.43511154687E+03  0.41800000000E+01 0. -1.
         -5    1    3    3    0  502  0.44121337021E+02  0.55390618579E+02  0.29366957453E+03  0.30211604461E+03  0.41800000000E+01 0. -1.
        -11    1    1    2    0    0  0.42832281172E+02 -0.23653719738E+02  0.85109797842E+02  0.98172197981E+02  0.00000000000E+00 0.  1.
         11    1    1    2    0    0 -0.11279442846E+02 -0.56492801308E+02  0.33479637557E+03  0.33971646343E+03  0.00000000000E+00 0. -1.
</event>
<event>
 7    1  0.2693725E-009  0.1457768E+03  0.7561462E-02  0.1205761E+00
         -1   -1    0    0    0  501 -0.00000000000E+00  0.00000000000E+00  0.36807154328E+02  0.36807154328E+02  0.00000000000E+00 0.  1.
          1   -1    0    0  501    0  0.00000000000E+00 -0.00000000000E+00 -0.60007642493E+03  0.60007642493E+03  0.00000000000E+00 0. -1.
         25    2    1    2    0    0 -0.51574098467E+02  0.86722540796E+02 -0.29143505230E+03  0.33280995536E+03  0.12508952779E+03 0.  0.
          5    1    3    3  502    0 -0.92602026606E+02  0.69372018498E+02 -0.20281006404E+03  0.23353159691E+03  0.41800000000E+01 0. -1.
         -5    1    3    3    0  502  0.41027928139E+02  0.17350522297E+02 -0.88624988263E+02  0.99278358447E+02  0.41800000000E+01 0. -1.
        -11    1    1    2    0    0 -0.18422958312E+02 -0.47153539100E+02 -0.14805416162E+03  0.15647011349E+03  0.00000000000E+00 0. -1.
         11    1    1    2    0    0  0.69997056779E+02 -0.39569001696E+02 -0.12378005669E+03  0.14760351041E+03  0.00000000000E+00 0.  1.
</event>
<event>
 7    1  0.2693725E-009  0.1216309E+03  0.7561462E-02  0.1240431E+00
          2   -1    0    0  501    0  0.00000000000E+00  0.00000000000E+00  0.11160545642E+04  0.11160545642E+04  0.00000000000E+00 0. -1.
         -2   -1    0    0    0  501 -0.00000000000E+00 -0.00000000000E+00 -0.14063810534E+02  0.14063810534E+02  0.00000000000E+00 0.  1.
         25    2    1    2    0    0 -0.52579245710E+02  0.32162332084E+02  0.70267759636E+03  0.71638194609E+03  0.12509314762E+03 0.  0.
          5    1    3    3  502    0 -0.88709224692E+02 -0.30053633397E+01  0.44976953187E+03  0.45846315332E+03  0.41800000000E+01 0.  1.
         -5    1    3    3    0  502  0.36129978982E+02  0.35167695424E+02  0.25290806449E+03  0.25791879277E+03  0.41800000000E+01 0.  1.
        -11    1    1    2    0    0  0.26656765999E+02 -0.60071258408E+02  0.30542700918E+03  0.31241766467E+03  0.00000000000E+00 0. -1.
         11    1    1    2    0    0  0.25922479711E+02  0.27908926323E+02  0.93886148156E+02  0.10131876400E+03  0.00000000000E+00 0.  1.
</event>
<event>
 7    1  0.2693725E-009  0.1572659E+03  0.7561462E-02  0.1191819E+00
         -1   -1    0    0    0  501 -0.00000000000E+00  0.00000000000E+00  0.86993079959E+02  0.86993079959E+02  0.00000000000E+00 0.  1.
          1   -1    0    0  501    0  0.00000000000E+00 -0.00000000000E+00 -0.34151574888E+03  0.34151574888E+03  0.00000000000E+00 0. -1.
         25    2    1    2    0    0 -0.13090715359E+03 -0.16980216579E+02 -0.10489433712E+03  0.20994165179E+03  0.12509062547E+03 0.  0.
          5    1    3    3  502    0  0.11524964896E+02  0.29228705744E+02 -0.23507233527E+02  0.39461430327E+02  0.41800000000E+01 0. -1.
         -5    1    3    3    0  502 -0.14243211849E+03 -0.46208922323E+02 -0.81387103596E+02  0.17048022146E+03  0.41800000000E+01 0. -1.
        -11    1    1    2    0    0  0.26584147738E+02 -0.32147687555E+01 -0.95759169268E+02  0.99432741831E+02  0.00000000000E+00 0. -1.
         11    1    1    2    0    0  0.10432300585E+03  0.20194985335E+02 -0.53869162524E+02  0.11913443521E+03  0.00000000000E+00 0.  1.
</event>
<event>
 7    1  0.2693725E-009  0.1294616E+03  0.7561462E-02  0.1228257E+00
          3   -1    0    0  501    0  0.00000000000E+00  0.00000000000E+00  0.63616590868E+03  0.63616590868E+03  0.00000000000E+00 0. -1.
         -3   -1    0    0    0  501 -0.00000000000E+00 -0.00000000000E+00 -0.30270374464E+02  0.30270374464E+02  0.00000000000E+00 0.  1.
         25    2    1    2    0    0 -0.69836424061E+02  0.36466758418E+02  0.40934537196E+03  0.43522155854E+03  0.12508885193E+03 0.  0.
          5    1    3    3  502    0 -0.10565137685E+02 -0.45050102008E+02  0.11301698255E+03  0.12219429025E+03  0.41800000000E+01 0.  1.
         -5    1    3    3    0  502 -0.59271286376E+02  0.81516860426E+02  0.29632838942E+03  0.31302726829E+03  0.41800000000E+01 0.  1.
        -11    1    1    2    0    0  0.27505501756E+01 -0.43995543164E+02  0.12636581629E+03  0.13383382559E+03  0.00000000000E+00 0. -1.
         11    1    1    2    0    0  0.67085873885E+02  0.75287847459E+01  0.70184345965E+02  0.97380899016E+02  0.00000000000E+00 0.  1.
</event>
<event>
 7    1  0.2693725E-009  0.1302028E+03  0.7561462E-02  0.1227155E+00
         -1   -1    0    0    0  501 -0.00000000000E+00  0.00000000000E+00  0.54773728187E+02  0.54773728187E+02  0.00000000000E+00 0.  1.
          1   -1    0    0  501    0  0.00000000000E+00 -0.00000000000E+00 -0.47814601658E+03  0.47814601658E+03  0.00000000000E+00 0. -1.
         25    2    1    2    0    0 -0.84104819094E+01 -0.10390818729E+03 -0.32495399351E+03  0.36346865235E+03  0.12508683284E+03 0.  0.
          5    1    3    3  502    0 -0.33517077875E+02 -0.82726444937E+02 -0.92289643326E+02  0.12845975972E+03  0.41800000000E+01 0.  1.
         -5    1    3    3    0  502  0.25106595965E+02 -0.21181742354E+02 -0.23266435018E+03  0.23500889263E+03  0.41800000000E+01 0.  1.
        -11    1    1    2    0    0 -0.28857884425E+02  0.14318591858E+01 -0.21147489374E+02  0.35805642307E+02  0.00000000000E+00 0.  1.
         11    1    1    2    0    0  0.37268366335E+02  0.10247632811E+03 -0.77270805511E+02  0.13364545011E+03  0.00000000000E+00 0. -1.
</event>
<event>
 7    1  0.2693725E-009  0.1182198E+03  0.7561462E-02  0.1246063E+00
          1   -1    0    0  501    0  0.00000000000E+00  0.00000000000E+00  0.33351696079E+03  0.33351696079E+03  0.00000000000E+00 0. -1.
         -1   -1    0    0    0  501 -0.00000000000E+00 -0.00000000000E+00 -0.55384353090E+02  0.55384353090E+02  0.00000000000E+00 0.  1.
         25    2    1    2    0    0 -0.76108073272E+02  0.21875792244E+01  0.12775938570E+03  0.19434317987E+03  0.12509830778E+03 0.  0.
          5    1    3    3  502    0  0.10405606872E+02  0.21523563000E+02 -0.13310351692E+02  0.27679925591E+02  0.41800000000E+01 0. -1.
         -5    1    3    3    0  502 -0.86513680144E+02 -0.19335983775E+02  0.14106973739E+03  0.16666325428E+03  0.41800000000E+01 0. -1.
        -11    1    1    2    0    0  0.25448020801E+02  0.46596868315E+02  0.66816800997E+02  0.85342573168E+02  0.00000000000E+00 0.  1.
         11    1    1    2    0    0  0.50660052470E+02 -0.48784447539E+02  0.83556421000E+02  0.10921556083E+03  0.00000000000E+00 0. -1.
</event>
<event>
 7    1  0.2693725E-009  0.1067389E+03  0.7561462E-02  0.1266731E+00
         -4   -1    0    0    0  501 -0.00000000000E+00  0.00000000000E+00  0.32334524664E+03  0.32334524664E+03  0.00000000000E+00 0.  1.
          4   -1    0    0  501    0  0.00000000000E+00 -0.00000000000E+00 -0.40228432626E+02  0.40228432626E+02  0.00000000000E+00 0. -1.
         25    2    1    2    0    0 -0.36154704570E+02  0.84299809977E+01  0.16466257544E+03  0.21009363313E+03  0.12508934282E+03 0.  0.
          5    1    3    3  502    0  0.20610970394E+02  0.48381032758E+02  0.10872391560E+03  0.12084659141E+03  0.41800000000E+01 0. -1.
         -5    1    3    3    0  502 -0.56765674964E+02 -0.39951051760E+02  0.55938659835E+02  0.89247041716E+02  0.41800000000E+01 0. -1.
        -11    1    1    2    0    0 -0.26664513423E+02  0.45143769223E+01  0.12891084286E+02  0.29959237793E+02  0.00000000000E+00 0. -1.
         11    1    1    2    0    0  0.62819217993E+02 -0.12944357920E+02  0.10556315429E+03  0.12352080835E+03  0.00000000000E+00 0.  1.
</event>
<event>
 7    1  0.2693725E-009  0.1097231E+03  0.7561462E-02  0.1261084E+00
         -1   -1    0    0    0  501 -0.00000000000E+00  0.00000000000E+00  0.12683993545E+03  0.12683993545E+03  0.00000000000E+00 0.  1.
          1   -1    0    0  501    0  0.00000000000E+00 -0.00000000000E+00 -0.13936488164E+03  0.13936488164E+03  0.00000000000E+00 0. -1.
         25    2    1    2    0    0 -0.58073419502E+02  0.12154175400E+02 -0.18333869332E+02  0.13965474419E+03  0.12508825196E+03 0.  0.
          5    1    3    3  502    0 -0.73663280919E+02  0.22874668389E+02 -0.57272128294E+02  0.96161834887E+02  0.41800000000E+01 0.  1.
         -5    1    3    3    0  502  0.15589861416E+02 -0.10720492989E+02  0.38938258962E+02  0.43492909306E+02  0.41800000000E+01 0.  1.
        -11    1    1    2    0    0  0.35390604719E+02  0.47366173039E+02  0.17771664886E+02  0.61740435078E+02  0.00000000000E+00 0. -1.
         11    1    1    2    0    0  0.22682814784E+02 -0.59520348439E+02 -0.11962741740E+02  0.64809637823E+02  0.00000000000E+00 0.  1.
</event>
<event>
 7    1  0.2693725E-009  0.2029140E+03  0.7561462E-02  0.1147303E+00
         -1   -1    0    0    0  501 -0.00000000000E+00  0.00000000000E+00  0.13272143049E+03  0.13272143049E+03  0.00000000000E+00 0.  1.
          1   -1    0    0  501    0  0.00000000000E+00 -0.00000000000E+00 -0.39406314204E+03  0.39406314204E+03  0.00000000000E+00 0. -1.
         25    2    1    2    0    0  0.62486101254E+02  0.18645192513E+03 -0.87097033656E+02  0.24880177473E+03  0.12509035376E+03 0.  0.
          5    1    3    3  502    0 -0.64235241937E+01  0.73928483145E+02  0.22032935284E+02  0.77521641626E+02  0.41800000000E+01 0. -1.
         -5    1    3    3    0  502  0.68909625448E+02  0.11252344199E+03 -0.10912996894E+03  0.17128013311E+03  0.41800000000E+01 0. -1.
        -11    1    1    2    0    0 -0.59419781108E+01 -0.67733417691E+02 -0.11535343027E+03  0.13390122050E+03  0.00000000000E+00 0. -1.
         11    1    1    2    0    0 -0.56544123143E+02 -0.11871850744E+03 -0.58891247624E+02  0.14408157730E+03  0.00000000000E+00 0.  1.
</event>
<event>
 7    1  0.2693725E-009  0.1125090E+03  0.7561462E-02  0.1255993E+00
          1   -1    0    0  501    0  0.00000000000E+00  0.00000000000E+00  0.30112033529E+03  0.30112033529E+03  0.00000000000E+00 0. -1.
         -1   -1    0    0    0  501 -0.00000000000E+00 -0.00000000000E+00 -0.47127478118E+02  0.47127478118E+02  0.00000000000E+00 0.  1.
         25    2    1    2    0    0  0.72780209892E+00  0.46580264630E+02  0.17038153554E+03  0.21644183922E+03  0.12508777464E+03 0.  0.
          5    1    3    3  502    0 -0.19258709407E+02 -0.34460137567E+02  0.20124801656E+02  0.44507066977E+02  0.41800000000E+01 0. -1.
         -5    1    3    3    0  502  0.19986511506E+02  0.81040402197E+02  0.15025673388E+03  0.17193477225E+03  0.41800000000E+01 0. -1.
        -11    1    1    2    0    0 -0.45246526954E+02 -0.17187479861E+02  0.36276564790E+02  0.60486749114E+02  0.00000000000E+00 0.  1.
         11    1    1    2    0    0  0.44518724855E+02 -0.29392784769E+02  0.47334756842E+02  0.71319225069E+02  0.00000000000E+00 0. -1.
</event>
<event>
 7    1  0.2693725E-009  0.1038987E+03  0.7561462E-02  0.1272305E+00
          1   -1    0    0  501    0  0.00000000000E+00  0.00000000000E+00  0.50334705725E+03  0.50334705725E+03  0.00000000000E+00 0. -1.
         -1   -1    0    0    0  501 -0.00000000000E+00 -0.00000000000E+00 -0.29761072517E+02  0.29761072517E+02  0.00000000000E+00 0.  1.
         25    2    1    2    0    0  0.72469421839E+01  0.22181796169E+02  0.37656626973E+03  0.39748471468E+03  0.12508953857E+03 0.  0.
          5    1    3    3  502    0  0.38276795446E+02 -0.40733452387E+02  0.19109826925E+03  0.19914906006E+03  0.41800000000E+01 0. -1.
         -5    1    3    3    0  502 -0.31029853263E+02  0.62915248556E+02  0.18546800047E+03  0.19833565462E+03  0.41800000000E+01 0. -1.
        -11    1    1    2    0    0  0.18609753269E+02 -0.43913431725E+02  0.20370093528E+02  0.51861865691E+02  0.00000000000E+00 0.  1.
         11    1    1    2    0    0 -0.25856695453E+02  0.21731635555E+02  0.76649621481E+02  0.83761549394E+02  0.00000000000E+00 0. -1.
</event>
<event>
 7    1  0.2693725E-009  0.2544187E+03  0.7561462E-02  0.1110544E+00
          1   -1    0    0  501    0  0.00000000000E+00  0.00000000000E+00  0.11435680694E+03  0.11435680694E+03  0.00000000000E+00 0. -1.
         -1   -1    0    0    0  501 -0.00000000000E+00 -0.00000000000E+00 -0.64988574481E+03  0.64988574481E+03  0.00000000000E+00 0.  1.
         25    2    1    2    0    0 -0.17400795319E+03 -0.17314169090E+03 -0.21194244840E+03  0.34759719857E+03  0.12508956037E+03 0.  0.
          5    1    3    3  502    0 -0.80482042455E+02 -0.18657835577E+02 -0.11767664660E+03  0.14384275978E+03  0.41800000000E+01 0.  1.
         -5    1    3    3    0  502 -0.93525910739E+02 -0.15448385533E+03 -0.94265801807E+02  0.20375443879E+03  0.41800000000E+01 0.  1.
        -11    1    1    2    0    0  0.71802999599E+02  0.72584304293E+02 -0.21079209579E+03  0.23421669374E+03  0.00000000000E+00 0.  1.
         11    1    1    2    0    0  0.10220495359E+03  0.10055738661E+03 -0.11279439368E+03  0.18242865945E+03  0.00000000000E+00 0. -1.
</event>
<event>
 7    1  0.2693725E-009  0.9832157E+02  0.7561462E-02  0.1283866E+00
          2   -1    0    0  501    0  0.00000000000E+00  0.00000000000E+00  0.39704891920E+03  0.39704891920E+03  0.00000000000E+00 0. -1.
         -2   -1    0    0    0  501 -0.00000000000E+00 -0.00000000000E+00 -0.76837817853E+02  0.76837817853E+02  0.00000000000E+00 0.  1.
         25    2    1    2    0    0 -0.67823268356E+02  0.53170412729E+02  0.20347670461E+03  0.25392263987E+03  0.12508736626E+03 0.  0.
          5    1    3    3  502    0 -0.70241814554E+01  0.48120892233E+02  0.18305603856E+03  0.18945169582E+03  0.41800000000E+01 0. -1.
         -5    1    3    3    0  502 -0.60799086900E+02  0.50495204961E+01  0.20420666052E+02  0.64470944054E+02  0.41800000000E+01 0. -1.
        -11    1    1    2    0    0  0.39587851807E+02 -0.36762837187E+02 -0.35251964720E+02  0.64508954614E+02  0.00000000000E+00 0.  1.
         11    1    1    2    0    0  0.28235416548E+02 -0.16407575542E+02  0.15198636145E+03  0.15545514256E+03  0.00000000000E+00 0. -1.
</event>
<event>
 7    1  0.2693725E-009  0.1106090E+03  0.7561462E-02  0.1259446E+00
         -1   -1    0    0    0  501 -0.00000000000E+00  0.00000000000E+00  0.13953982435E+03  0.13953982435E+03  0.00000000000E+00 0.  1.
          1   -1    0    0  501    0  0.00000000000E+00 -0.00000000000E+00 -0.11703713766E+03  0.11703713766E+03  0.00000000000E+00 0. -1.
         25    2    1    2    0    0 -0.58088454714E+02  0.11033425145E+02 -0.18939216248E+02  0.13965421730E+03  0.12509437021E+03 0.  0.
          5    1    3    3  502    0  0.30156866069E+02  0.18132359852E+02 -0.34744054854E+02  0.49627016761E+02  0.41800000000E+01 0.  1.
         -5    1    3    3    0  502 -0.88245320783E+02 -0.70989347073E+01  0.15804838606E+02  0.90027200543E+02  0.41800000000E+01 0.  1.
        -11    1    1    2    0    0  0.25820611306E+02 -0.44003966292E+02  0.48331528805E+02  0.70277946002E+02  0.00000000000E+00 0.  1.
         11    1    1    2    0    0  0.32267843408E+02  0.32970541147E+02 -0.68896258672E+01  0.46644798706E+02  0.00000000000E+00 0. -1.
</event>
<event>
 7    1  0.2693725E-009  0.1591096E+03  0.7561462E-02  0.1189706E+00
         -3   -1    0    0    0  501 -0.00000000000E+00  0.00000000000E+00  0.29389039305E+03  0.29389039305E+03  0.00000000000E+00 0.  1.
          3   -1    0    0  501    0  0.00000000000E+00 -0.00000000000E+00 -0.88244519185E+02  0.88244519185E+02  0.00000000000E+00 0. -1.
         25    2    1    2    0    0 -0.11462516480E+03 -0.20397735034E+02  0.95805838005E+02  0.19591091141E+03  0.12508929056E+03 0.  0.
          5    1    3    3  502    0 -0.43159919384E+02 -0.70938121944E+02  0.43049761861E+02  0.93625585085E+02  0.41800000000E+01 0. -1.
         -5    1    3    3    0  502 -0.71465245411E+02  0.50540386910E+02  0.52756076144E+02  0.10228532632E+03  0.41800000000E+01 0. -1.
        -11    1    1    2    0    0  0.63991884819E+02 -0.34554100048E+02  0.72505764670E+02  0.10269388036E+03  0.00000000000E+00 0. -1.
         11    1    1    2    0    0  0.50633279976E+02  0.54951835082E+02  0.37334271187E+02  0.83530120466E+02  0.00000000000E+00 0.  1.
</event>
<event>
 7    1  0.2693725E-009  0.8974637E+02  0.7561462E-02  0.1303467E+00
         -1   -1    0    0    0  501 -0.00000000000E+00  0.00000000000E+00  0.36130801334E+02  0.36130801334E+02  0.00000000000E+00 0.  1.
          1   -1    0    0  501    0  0.00000000000E+00 -0.00000000000E+00 -0.44410426306E+03  0.44410426306E+03  0.00000000000E+00 0. -1.
         25    2    1    2    0    0  0.25414018399E+02 -0.22785642808E+02 -0.11971944452E+03  0.17647987288E+03  0.12508933722E+03 0.  0.
          5    1    3    3  502    0 -0.34542686996E+02 -0.25752416711E+02 -0.90678812077E+00  0.43297561779E+02  0.41800000000E+01 0. -1.
         -5    1    3    3    0  502  0.59956705395E+02  0.29667739028E+01 -0.11881265640E+03  0.13318231110E+03  0.41800000000E+01 0. -1.
        -11    1    1    2    0    0  0.14944267965E+02  0.31388295994E+02 -0.44181091505E+02  0.56218547803E+02  0.00000000000E+00 0.  1.
         11    1    1    2    0    0 -0.40358286364E+02 -0.86026531861E+01 -0.24407292570E+03  0.24753664371E+03  0.00000000000E+00 0. -1.
</event>
<event>
 7    1  0.2693725E-009  0.1421002E+03  0.7561462E-02  0.1210531E+00
          2   -1    0    0  501    0  0.00000000000E+00  0.00000000000E+00  0.18844329119E+03  0.18844329119E+03  0.00000000000E+00 0. -1.
         -2   -1    0    0    0  501 -0.00000000000E+00 -0.00000000000E+00 -0.16605733128E+03  0.16605733128E+03  0.00000000000E+00 0.  1.
         25    2    1    2    0    0 -0.38502827783E+02  0.10202518014E+03  0.98620365318E+02  0.19303748389E+03  0.12508352650E+03 0.  0.
          5    1    3    3  502    0 -0.65950924537E+02  0.25850542462E+02  0.79481722689E+01  0.71403227065E+02  0.41800000000E+01 0. -1.
         -5    1    3    3    0  502  0.27448096754E+02  0.76174637682E+02  0.90672193049E+02  0.12163425683E+03  0.41800000000E+01 0. -1.
        -11    1    1    2    0    0 -0.18113319005E+02 -0.57054966750E+02 -0.64875568770E+02  0.88273444361E+02  0.00000000000E+00 0.  1.
         11    1    1    2    0    0  0.56616146788E+02 -0.44970213394E+02 -0.11358836646E+02  0.73189694219E+02  0.00000000000E+00 0. -1.
</event>
<event>
 7    1  0.2693725E-009  0.1004123E+03  0.7561462E-02  0.1279431E+00
         -2   -1    0    0    0  501 -0.00000000000E+00  0.00000000000E+00  0.21125369984E+02  0.21125369984E+02  0.00000000000E+00 0.  1.
          2   -1    0    0  501    0  0.00000000000E+00 -0.00000000000E+00 -0.64420503890E+03  0.64420503890E+03  0.00000000000E+00 0. -1.
         25    2    1    2    0    0  0.30498969542E+02 -0.10397985735E+02 -0.41753376621E+03  0.43705945274E+03  0.12509282175E+03 0.  0.
          5    1    3    3  502    0 -0.32368707234E+02 -0.22765709056E+02 -0.49719908333E+02  0.63683219151E+02  0.41800000000E+01 0.  1.
         -5    1    3    3    0  502  0.62867676775E+02  0.12367723320E+02 -0.36781385788E+03  0.37337623359E+03  0.41800000000E+01 0.  1.
        -11    1    1    2    0    0  0.49243713850E+01  0.46197862815E+02 -0.12409945130E+03  0.13251100247E+03  0.00000000000E+00 0. -1.
         11    1    1    2    0    0 -0.35423340927E+02 -0.35799877080E+02 -0.81446451410E+02  0.95759953679E+02  0.00000000000E+00 0.  1.
</event>
<event>
 7    1  0.2693725E-009  0.9217882E+02  0.7561462E-02  0.1297660E+00
         -2   -1    0    0    0  501 -0.00000000000E+00  0.00000000000E+00  0.35099790262E+02  0.35099790262E+02  0.00000000000E+00 0.  1.
          2   -1    0    0  501    0  0.00000000000E+00 -0.00000000000E+00 -0.47534349160E+03  0.47534349160E+03  0.00000000000E+00 0. -1.
         25    2    1    2    0    0  0.48375091634E+02  0.49281106659E+02 -0.20882398686E+03  0.25303117306E+03  0.12509412492E+03 0.  0.
          5    1    3    3  502    0  0.43698038598E+02  0.51496770940E+02 -0.29892641304E+02  0.73976201570E+02  0.41800000000E+01 0.  1.
         -5    1    3    3    0  502  0.46770530360E+01 -0.22156642813E+01 -0.17893134556E+03  0.17905497149E+03  0.41800000000E+01 0.  1.
        -11    1    1    2    0    0 -0.57122833288E+02  0.28341799013E+01 -0.14796114064E+03  0.15863022977E+03  0.00000000000E+00 0.  1.
         11    1    1    2    0    0  0.87477416548E+01 -0.52115286560E+02 -0.83458573844E+02  0.98781879034E+02  0.00000000000E+00 0. -1.
</event>
<event>
 7    1  0.2693725E-009  0.1171279E+03  0.7561462E-02  0.1247912E+00
          1   -1    0    0  501    0  0.00000000000E+00  0.00000000000E+00  0.21212761357E+03  0.21212761357E+03  0.00000000000E+00 0. -1.
         -1   -1    0    0    0  501 -0.00000000000E+00 -0.00000000000E+00 -0.71238581363E+02  0.71238581363E+02  0.00000000000E+00 0.  1.
         25    2    1    2    0    0 -0.46627596300E+02 -0.33519084962E+02  0.70686485665E+02  0.15473461816E+03  0.12509420854E+03 0.  0.
          5    1    3    3  502    0  0.10861475821E+02 -0.63636869746E+02  0.61122255755E+02  0.89000142678E+02  0.41800000000E+01 0. -1.
         -5    1    3    3    0  502 -0.57489072121E+02  0.30117784784E+02  0.95642299102E+01  0.65734475486E+02  0.41800000000E+01 0. -1.
        -11    1    1    2    0    0  0.98416570960E+01 -0.29753856277E+02  0.74245275224E+01  0.32206735114E+02  0.00000000000E+00 0. -1.
         11    1    1    2    0    0  0.36785939204E+02  0.63272941240E+02  0.62778019021E+02  0.96424841656E+02  0.00000000000E+00 0.  1.
</event>
<event>
 7    1  0.2693725E-009  0.1123719E+03  0.7561462E-02  0.1256240E+00
         -3   -1    0    0    0  501 -0.00000000000E+00  0.00000000000E+00  0.35472101141E+02  0.35472101141E+02  0.00000000000E+00 0.  1.
          3   -1    0    0  501    0  0.00000000000E+00 -0.00000000000E+00 -0.48104272009E+03  0.48104272009E+03  0.00000000000E+00 0. -1.
         25    2    1    2    0    0 -0.59320584114E+02  0.33158632710E+02 -0.20993877172E+03  0.25365262615E+03  0.12508773025E+03 0.  0.
          5    1    3    3  502    0 -0.77129111981E+02 -0.12308066964E+02 -0.17990708831E+03  0.19617446636E+03  0.41800000000E+01 0. -1.
         -5    1    3    3    0  502  0.17808527868E+02  0.45466699674E+02 -0.30031683402E+02  0.57478159783E+02  0.41800000000E+01 0. -1.
        -11    1    1    2    0    0  0.69166432379E+02 -0.69419581917E+01 -0.85751287842E+02  0.11038781417E+03  0.00000000000E+00 0.  1.
         11    1    1    2    0    0 -0.98458482648E+01 -0.26216674519E+02 -0.14988055939E+03  0.15247438091E+03  0.00000000000E+00 0. -1.
</event>
<event>
 7    1  0.2693725E-009  0.1017120E+03  0.7561462E-02  0.1276737E+00
          1   -1    0    0  501    0  0.00000000000E+00  0.00000000000E+00  0.13029286589E+03  0.13029286589E+03  0.00000000000E+00 0. -1.
         -1   -1    0    0    0  501 -0.00000000000E+00 -0.00000000000E+00 -0.11412052798E+03  0.11412052798E+03  0.00000000000E+00 0.  1.
         25    2    1    2    0    0 -0.32323260964E+02  0.42294748941E+02  0.19910156941E+02  0.13739442674E+03  0.12508866920E+03 0.  0.
          5    1    3    3  502    0 -0.31631463502E+02 -0.30280394240E+02  0.42602497457E+02  0.61236402149E+02  0.41800000000E+01 0.  1.
         -5    1    3    3    0  502 -0.69179746185E+00  0.72575143182E+02 -0.22692340516E+02  0.76158024591E+02  0.41800000000E+01 0.  1.
        -11    1    1    2    0    0 -0.20423055305E+02 -0.22531845638E+02  0.28872224779E+02  0.41933168489E+02  0.00000000000E+00 0. -1.
         11    1    1    2    0    0  0.52746316269E+02 -0.19762903304E+02 -0.32610043818E+02  0.65085798641E+02  0.00000000000E+00 0.  1.
</event>
<event>
 7    1  0.2693725E-009  0.1793207E+03  0.7561462E-02  0.1168462E+00
         -2   -1    0    0    0  501 -0.00000000000E+00  0.00000000000E+00  0.53457429274E+02  0.53457429274E+02  0.00000000000E+00 0.  1.
          2   -1    0    0  501    0  0.00000000000E+00 -0.00000000000E+00 -0.73965905854E+03  0.73965905854E+03  0.00000000000E+00 0. -1.
         25    2    1    2    0    0 -0.13404576302E+03 -0.79123488451E+02 -0.46962434116E+03  0.51032101613E+03  0.12510685310E+03 0.  0.
          5    1    3    3  502    0 -0.12444311903E+03 -0.11058733583E+03 -0.39325688830E+03  0.42706451658E+03  0.41800000000E+01 0. -1.
         -5    1    3    3    0  502 -0.96026439925E+01  0.31463847379E+02 -0.76367452851E+02  0.83256499557E+02  0.41800000000E+01 0. -1.
        -11    1    1    2    0    0  0.12687811368E+03  0.63767388695E+02 -0.12351498976E+03  0.18820278502E+03  0.00000000000E+00 0.  1.
         11    1    1    2    0    0  0.71676493433E+01  0.15356099757E+02 -0.93062298350E+02  0.94592686668E+02  0.00000000000E+00 0. -1.
</event>
<event>
 7    1  0.2693725E-009  0.1301590E+03  0.7561462E-02  0.1227220E+00
          1   -1    0    0  501    0  0.00000000000E+00  0.00000000000E+00  0.76908534056E+03  0.76908534056E+03  0.00000000000E+00 0. -1.
         -1   -1    0    0    0  501 -0.00000000000E+00 -0.00000000000E+00 -0.23701247180E+02  0.23701247180E+02  0.00000000000E+00 0.  1.
         25    2    1    2    0    0  0.14342789131E+02 -0.81923835940E+02  0.36944413243E+03  0.39881507612E+03  0.12508903812E+03 0.  0.
          5    1    3    3  502    0  0.15292233381E+02  0.32138088897E+02  0.79024722484E+02  0.86770319369E+02  0.41800000000E+01 0. -1.
         -5    1    3    3    0  502 -0.94944425088E+00 -0.11406192484E+03  0.29041940995E+03  0.31204475675E+03  0.41800000000E+01 0. -1.
        -11    1    1    2    0    0 -0.40240558148E+02  0.23909718453E+02  0.94593855086E+02  0.10554134060E+03  0.00000000000E+00 0.  1.
         11    1    1    2    0    0  0.25897769017E+02  0.58014117487E+02  0.28134610587E+03  0.28843017102E+03  0.00000000000E+00 0. -1.
</event>
<event>
 7    1  0.2693725E-009  0.1662571E+03  0.7561462E-02  0.1181808E+00
          1   -1    0    0  501    0  0.00000000000E+00  0.00000000000E+00  0.77152023369E+03  0.77152023369E+03  0.00000000000E+00 0. -1.
         -1   -1    0    0    0  501 -0.00000000000E+00 -0.00000000000E+00 -0.37043318819E+02  0.37043318819E+02  0.00000000000E+00 0.  1.
         25    2    1    2    0    0 -0.10328713467E+03  0.69296206598E+02  0.31704629528E+03  0.36281819828E+03  0.12509394555E+03 0.  0.
          5    1    3    3  502    0 -0.30445514415E+02  0.94374150802E+02  0.17746517790E+03  0.20333413745E+03  0.41800000000E+01 0.  1.
         -5    1    3    3    0  502 -0.72841620257E+02 -0.25077944204E+02  0.13958111738E+03  0.15948406082E+03  0.41800000000E+01 0.  1.
        -11    1    1    2    0    0 -0.14979596828E+02 -0.26309359138E+02  0.71894905509E+02  0.78009282381E+02  0.00000000000E+00 0.  1.
         11    1    1    2    0    0  0.11826673150E+03 -0.42986847460E+02  0.34553571408E+03  0.36773607185E+03  0.00000000000E+00 0. -1.
</event>
<event>
 7    1  0.2693725E-009  0.1221326E+03  0.7561462E-02  0.1239620E+00
         -2   -1    0    0    0  501 -0.00000000000E+00  0.00000000000E+00  0.59223782010E+02  0.59223782010E+02  0.00000000000E+00 0.  1.
          2   -1    0    0  501    0  0.00000000000E+00 -0.00000000000E+00 -0.28712346260E+03  0.28712346260E+03  0.00000000000E+00 0. -1.
         25    2    1    2    0    0 -0.72354436680E+02 -0.24669244696E+01 -0.11485445735E+03  0.18460971216E+03  0.12509176323E+03 0.  0.
          5    1    3    3  502    0 -0.86990300251E+02 -0.41976364559E+02 -0.10159070166E+03  0.14024075935E+03  0.41800000000E+01 0.  1.
         -5    1    3    3    0  502  0.14635863571E+02  0.39509440089E+02 -0.13263755689E+02  0.44368952812E+02  0.41800000000E+01 0.  1.
        -11    1    1    2    0    0  0.59804656452E+02 -0.32521485858E+02 -0.37931636180E+02  0.77929795323E+02  0.00000000000E+00 0.  1.
         11    1    1    2    0    0  0.12549780227E+02  0.34988410328E+02 -0.75113587060E+02  0.83807737126E+02  0.00000000000E+00 0. -1.
</event>
<event>
 7    1  0.2693725E-009  0.2192562E+03  0.7561462E-02  0.1134439E+00
         -2   -1    0    0    0  501 -0.00000000000E+00  0.00000000000E+00  0.25885609686E+02  0.25885609686E+02  0.00000000000E+00 0.  1.
          2   -1    0    0  501    0  0.00000000000E+00 -0.00000000000E+00 -0.18801056267E+04  0.18801056267E+04  0.00000000000E+00 0. -1.
         25    2    1    2    0    0  0.17264904416E+03 -0.80199563893E+02 -0.10142251525E+04  0.10394900829E+04  0.12508920827E+03 0.  0.
          5    1    3    3  502    0  0.54669205259E+02 -0.94097137089E+02 -0.49032445303E+03  0.50227336666E+03  0.41800000000E+01 0.  1.
         -5    1    3    3    0  502  0.11797983891E+03  0.13897573196E+02 -0.52390069942E+03  0.53721671622E+03  0.41800000000E+01 0.  1.
        -11    1    1    2    0    0 -0.30121858785E+02  0.59533444606E+02 -0.32317334761E+03  0.32998874225E+03  0.00000000000E+00 0.  1.
         11    1    1    2    0    0 -0.14252718538E+03  0.20666119286E+02 -0.51682151693E+03  0.53651241124E+03  0.00000000000E+00 0. -1.
</event>
<event>
 7    1  0.2693725E-009  0.9698926E+02  0.7561462E-02  0.1286758E+00
          2   -1    0    0  501    0  0.00000000000E+00  0.00000000000E+00  0.15740781843E+03  0.15740781843E+03  0.00000000000E+00 0. -1.
         -2   -1    0    0    0  501 -0.00000000000E+00 -0.00000000000E+00 -0.10361289754E+03  0.10361289754E+03  0.00000000000E+00 0.  1.
         25    2    1    2    0    0  0.49565334681E+02 -0.42596443758E+02  0.28685689662E+02  0.14402264562E+03  0.12509386171E+03 0.  0.
          5    1    3    3  502    0  0.17657186158E+02 -0.47742129458E+02 -0.42039289625E+02  0.66150294182E+02  0.41800000000E+01 0.  1.
         -5    1    3    3    0  502  0.31908148523E+02  0.51456856998E+01  0.70724979287E+02  0.77872351439E+02  0.41800000000E+01 0.  1.
        -11    1    1    2    0    0  0.22764503318E+02  0.28750514295E+02  0.23073695175E+02  0.43326782624E+02  0.00000000000E+00 0. -1.
         11    1    1    2    0    0 -0.72329837998E+02  0.13845929463E+02  0.20355360544E+01  0.73671287722E+02  0.00000000000E+00 0.  1.
</event>
<event>
 7    1  0.2693725E-009  0.1377863E+03  0.7561462E-02  0.1216339E+00
          2   -1    0    0  501    0  0.00000000000E+00  0.00000000000E+00  0.57047627451E+02  0.57047627451E+02  0.00000000000E+00 0. -1.
         -2   -1    0    0    0  501 -0.00000000000E+00 -0.00000000000E+00 -0.37753753891E+03  0.37753753891E+03  0.00000000000E+00 0.  1.
         25    2    1    2    0    0  0.39645407221E+02 -0.90758186830E+02 -0.19065244157E+03  0.24860139086E+03  0.12508193824E+03 0.  0.
          5    1    3    3  502    0  0.82161989926E+02 -0.35518894769E+02 -0.11158012916E+03  0.14310758923E+03  0.41800000000E+01 0.  1.
         -5    1    3    3    0  502 -0.42516582704E+02 -0.55239292061E+02 -0.79072312413E+02  0.10549380163E+03  0.41800000000E+01 0.  1.
        -11    1    1    2    0    0 -0.54242350431E+02  0.53810173367E+02 -0.36771469666E+02  0.84793327093E+02  0.00000000000E+00 0.  1.
         11    1    1    2    0    0  0.14596943210E+02  0.36948013463E+02 -0.93066000228E+02  0.10119044840E+03  0.00000000000E+00 0. -1.
</event>
<event>
 7    1  0.2693725E-009  0.1035387E+03  0.7561462E-02  0.1273026E+00
          1   -1    0    0  501    0  0.00000000000E+00  0.00000000000E+00  0.80273934568E+02  0.80273934568E+02  0.00000000000E+00 0. -1.
         -1   -1    0    0    0  501 -0.00000000000E+00 -0.00000000000E+00 -0.20537684670E+03  0.20537684670E+03  0.00000000000E+00 0.  1.
         25    2    1    2    0    0 -0.59800489783E+02  0.28257048666E+02 -0.89436189213E+02  0.16738024449E+03  0.12507099954E+03 0.  0.
          5    1    3    3  502    0 -0.17368319239E+02  0.60568015936E+02 -0.94485999024E+02  0.11364514719E+03  0.41800000000E+01 0. -1.
         -5    1    3    3    0  502 -0.42432170544E+02 -0.32310967270E+02  0.50498098106E+01  0.53735097303E+02  0.41800000000E+01 0. -1.
        -11    1    1    2    0    0  0.40242136698E+02  0.15010020746E+02 -0.52556062444E+02  0.67873927163E+02  0.00000000000E+00 0.  1.
         11    1    1    2    0    0  0.19558353084E+02 -0.43267069412E+02  0.16889339528E+02  0.50396609614E+02  0.00000000000E+00 0. -1.
</event>
<event>
 7    1  0.2693725E-009  0.9833515E+02  0.7561462E-02  0.1283836E+00
         -1   -1    0    0    0  501 -0.00000000000E+00  0.00000000000E+00  0.37823880558E+02  0.37823880558E+02  0.00000000000E+00 0.  1.
          1   -1    0    0  501    0  0.00000000000E+00 -0.00000000000E+00 -0.32770903232E+03  0.32770903232E+03  0.00000000000E+00 0. -1.
         25    2    1    2    0    0 -0.15752594069E+02 -0.47491201614E+01 -0.12624692281E+03  0.17848329087E+03  0.12508917316E+03 0.  0.
          5    1    3    3  502    0 -0.38280229480E+01 -0.55786158322E+02 -0.10997449262E+03  0.12344476759E+03  0.41800000000E+01 0. -1.
         -5    1    3    3    0  502 -0.11924571121E+02  0.51037038160E+02 -0.16272430191E+02  0.55038523281E+02  0.41800000000E+01 0. -1.
        -11    1    1    2    0    0 -0.31974734020E+02  0.20237946757E+02 -0.49000721034E+02  0.61911459088E+02  0.00000000000E+00 0. -1.
         11    1    1    2    0    0  0.47727328089E+02 -0.15488826596E+02 -0.11463750792E+03  0.12513816292E+03  0.00000000000E+00 0.  1.
</event>
<event>
 7    1  0.2693725E-009  0.1139776E+03  0.7561462E-02  0.1253376E+00
          1   -1    0    0  501    0  0.00000000000E+00  0.00000000000E+00  0.10904223118E+03  0.10904223118E+03  0.00000000000E+00 0. -1.
         -1   -1    0    0    0  501 -0.00000000000E+00 -0.00000000000E+00 -0.17302626261E+03  0.17302626261E+03  0.00000000000E+00 0.  1.
         25    2    1    2    0    0  0.79571357025E+02  0.23983862777E+02 -0.24341812316E+02  0.15214136003E+03  0.12509053950E+03 0.  0.
          5    1    3    3  502    0 -0.91449786807E+00  0.30436963150E+02 -0.57146183398E+02  0.64887623698E+02  0.41800000000E+01 0. -1.
         -5    1    3    3    0  502  0.80485854893E+02 -0.64531003722E+01  0.32804371082E+02  0.87253736335E+02  0.41800000000E+01 0. -1.
        -11    1    1    2    0    0 -0.52779220687E+02 -0.54425528087E+02 -0.39705474457E+01  0.75918044567E+02  0.00000000000E+00 0. -1.
         11    1    1    2    0    0 -0.26792136338E+02  0.30441665309E+02 -0.35671671661E+02  0.54009089193E+02  0.00000000000E+00 0.  1.
</event>
<event>
 7    1  0.2693725E-009  0.1273359E+03  0.7561462E-02  0.1231463E+00
         -1   -1    0    0    0  501 -0.00000000000E+00  0.00000000000E+00  0.15862596958E+02  0.15862596958E+02  0.00000000000E+00 0.  1.
          1   -1    0    0  501    0  0.00000000000E+00 -0.00000000000E+00 -0.12343697012E+04  0.12343697012E+04  0.00000000000E+00 0. -1.
         25    2    1    2    0    0  0.65517740051E+02 -0.31353786103E+02 -0.75979473512E+03  0.77344112334E+03  0.12508995803E+03 0.  0.
          5    1    3    3  502    0  0.12615594344E+02 -0.66415964333E+02 -0.22776074039E+03  0.23761872990E+03  0.41800000000E+01 0. -1.
         -5    1    3    3    0  502  0.52902145708E+02  0.35062178230E+02 -0.53203399473E+03  0.53582239344E+03  0.41800000000E+01 0. -1.
        -11    1    1    2    0    0 -0.39911267271E+02 -0.34451106193E+02 -0.12454766451E+03  0.13524758300E+03  0.00000000000E+00 0.  1.
         11    1    1    2    0    0 -0.25606472780E+02  0.65804892296E+02 -0.33416470463E+03  0.34154359183E+03  0.00000000000E+00 0. -1.
</event>
<event>
 7    1  0.2693725E-009  0.1190657E+03  0.7561462E-02  0.1244646E+00
         -1   -1    0    0    0  501 -0.00000000000E+00  0.00000000000E+00  0.64211285963E+02  0.64211285963E+02  0.00000000000E+00 0.  1.
          1   -1    0    0  501    0  0.00000000000E+00 -0.00000000000E+00 -0.41916463554E+03  0.41916463554E+03  0.00000000000E+00 0. -1.
         25    2    1    2    0    0 -0.87847835643E+02 -0.25510513011E+02 -0.69397976444E+02  0.16979362741E+03  0.12508304551E+03 0.  0.
          5    1    3    3  502    0 -0.93428052247E+02 -0.43378562372E+02 -0.56766181597E+01  0.10324823008E+03  0.41800000000E+01 0. -1.
         -5    1    3    3    0  502  0.55802166036E+01  0.17868049361E+02 -0.63721358285E+02  0.66545397339E+02  0.41800000000E+01 0. -1.
        -11    1    1    2    0    0  0.18778649185E+02  0.40981086126E+02 -0.18628877470E+03  0.19166531941E+03  0.00000000000E+00 0. -1.
         11    1    1    2    0    0  0.69069186458E+02 -0.15470573116E+02 -0.99266598437E+02  0.12191697468E+03  0.00000000000E+00 0.  1.
</event>
<event>
 7    1  0.2979696E-009  0.1557828E+03  0.7561462E-02  0.1193542E+00
         -1   -1    0    0    0  501 -0.00000000000E+00  0.00000000000E+00  0.54453288007E+03  0.54453288007E+03  0.00000000000E+00 0.  1.
          1   -1    0    0  501    0  0.00000000000E+00 -0.00000000000E+00 -0.56795990707E+02  0.56795990707E+02  0.00000000000E+00 0. -1.
         25    2    1    2    0    0  0.18044563652E+02  0.12719704227E+03  0.17260945386E+03  0.24889013227E+03  0.12509028956E+03 0.  0.
          5    1    3    3  502    0  0.65262258892E+02  0.32616547610E+02  0.79139726174E+02  0.10771986944E+03  0.41800000000E+01 0.  1.
         -5    1    3    3    0  502 -0.47217695240E+02  0.94580494664E+02  0.93469727686E+02  0.14117026283E+03  0.41800000000E+01 0.  1.
        -11    1    1    2    0    0 -0.26404668370E+02 -0.68671591433E+02  0.26469778621E+03  0.27473243712E+03  0.00000000000E+00 0.  1.
         11    1    1    2    0    0  0.83601047177E+01 -0.58525450840E+02  0.50429649299E+02  0.77706301388E+02  0.00000000000E+00 0. -1.
</event>
<event>
 7    1  0.2693725E-009  0.7565007E+02  0.7561462E-02  0.1341870E+00
          4   -1    0    0  501    0  0.00000000000E+00  0.00000000000E+00  0.87514518917E+02  0.87514518917E+02  0.00000000000E+00 0.  1.
         -4   -1    0    0    0  501 -0.00000000000E+00 -0.00000000000E+00 -0.18046839537E+03  0.18046839537E+03  0.00000000000E+00 0. -1.
         25    2    1    2    0    0 -0.12801411771E+02 -0.57947891912E+02 -0.27980134696E+02  0.14125157991E+03  0.12508911451E+03 0.  0.
          5    1    3    3  502    0  0.30098434697E+01 -0.86925482562E+01 -0.72300507248E+02  0.73003118435E+02  0.41800000000E+01 0. -1.
         -5    1    3    3    0  502 -0.15811255241E+02 -0.49255343655E+02  0.44320372552E+02  0.68248461478E+02  0.41800000000E+01 0. -1.
        -11    1    1    2    0    0 -0.10474235665E+02  0.64317767585E+02 -0.90080533407E+01  0.65784723644E+02  0.00000000000E+00 0.  1.
         11    1    1    2    0    0  0.23275647436E+02 -0.63698756734E+01 -0.55965688416E+02  0.60946610731E+02  0.00000000000E+00 0. -1.
</event>
<event>
 7    1  0.2693725E-009  0.2423530E+03  0.7561462E-02  0.1118235E+00
          1   -1    0    0  501    0  0.00000000000E+00  0.00000000000E+00  0.68850004138E+02  0.68850004138E+02  0.00000000000E+00 0. -1.
         -1   -1    0    0    0  501 -0.00000000000E+00 -0.00000000000E+00 -0.96976909623E+03  0.96976909623E+03  0.00000000000E+00 0.  1.
         25    2    1    2    0    0 -0.10556448878E+03  0.20486177315E+03 -0.38173825535E+03  0.46311993421E+03  0.12507505937E+03 0.  0.
          5    1    3    3  502    0  0.90951434016E+01 -0.76983079002E+01 -0.57083544629E+02  0.58463570242E+02  0.41800000000E+01 0.  1.
         -5    1    3    3    0  502 -0.11465963218E+03  0.21256008105E+03 -0.32465471072E+03  0.40465636397E+03  0.41800000000E+01 0.  1.
        -11    1    1    2    0    0  0.36503524150E+02 -0.65118902297E+02 -0.28175579946E+03  0.29147780231E+03  0.00000000000E+00 0.  1.
         11    1    1    2    0    0  0.69060964627E+02 -0.13974287086E+03 -0.23742503728E+03  0.28402136384E+03  0.00000000000E+00 0. -1.
</event>
<event>
 7    1  0.2693725E-009  0.1476436E+03  0.7561462E-02  0.1203399E+00
          2   -1    0    0  501    0  0.00000000000E+00  0.00000000000E+00  0.15821854457E+03  0.15821854457E+03  0.00000000000E+00 0. -1.
         -2   -1    0    0    0  501 -0.00000000000E+00 -0.00000000000E+00 -0.20583438466E+03  0.20583438466E+03  0.00000000000E+00 0.  1.
         25    2    1    2    0    0 -0.10351076322E+03 -0.87183675836E+02 -0.74341016570E+02  0.19871845608E+03  0.12508783558E+03 0.  0.
          5    1    3    3  502    0 -0.71134464515E+02 -0.37422899372E+02 -0.10457794130E+03  0.13196440295E+03  0.41800000000E+01 0.  1.
         -5    1    3    3    0  502 -0.32376298707E+02 -0.49760776464E+02  0.30236924734E+02  0.66754053133E+02  0.41800000000E+01 0.  1.
        -11    1    1    2    0    0  0.10089328721E+03  0.10009042224E+03  0.38957038128E+02  0.14736077785E+03  0.00000000000E+00 0.  1.
         11    1    1    2    0    0  0.26174760138E+01 -0.12906746408E+02 -0.12231861647E+02  0.17973695304E+02  0.00000000000E+00 0. -1.
</event>
<event>
 7    1  0.2693725E-009  0.8105521E+02  0.7561462E-02  0.1326083E+00
          2   -1    0    0  501    0  0.00000000000E+00  0.00000000000E+00  0.18931038021E+03  0.18931038021E+03  0.00000000000E+00 0. -1.
         -2   -1    0    0    0  501 -0.00000000000E+00 -0.00000000000E+00 -0.95828087634E+02  0.95828087634E+02  0.00000000000E+00 0.  1.
         25    2    1    2    0    0  0.42254563857E+01  0.21843296368E+02 -0.28631864937E+02  0.13023770405E+03  0.12508833595E+03 0.  0.
          5    1    3    3  502    0 -0.10238666649E+02 -0.33075430244E+02  0.31804516320E+02  0.47199724988E+02  0.41800000000E+01 0.  1.
         -5    1    3    3    0  502  0.14464123034E+02  0.54918726612E+02 -0.60436381257E+02  0.83037979065E+02  0.41800000000E+01 0.  1.
        -11    1    1    2    0    0  0.28216886803E+02  0.44053696226E+01  0.10663200311E+03  0.11039014480E+03  0.00000000000E+00 0. -1.
         11    1    1    2    0    0 -0.32442343188E+02 -0.26248665990E+02  0.15482154404E+02  0.44510618989E+02  0.00000000000E+00 0.  1.
</event>
<event>
 7    1  0.2693725E-009  0.7530550E+02  0.7561462E-02  0.1342928E+00
         -2   -1    0    0    0  501 -0.00000000000E+00  0.00000000000E+00  0.81299320368E+02  0.81299320368E+02  0.00000000000E+00 0.  1.
          2   -1    0    0  501    0  0.00000000000E+00 -0.00000000000E+00 -0.14600005518E+03  0.14600005518E+03  0.00000000000E+00 0. -1.
         25    2    1    2    0    0 -0.15274768768E+02  0.11802159691E+01 -0.37873833892E+02  0.13159239999E+03  0.12508965173E+03 0.  0.
          5    1    3    3  502    0  0.46745128018E+02  0.23411563164E+02 -0.39336973050E+02  0.65559729499E+02  0.41800000000E+01 0.  1.
         -5    1    3    3    0  502 -0.62019896786E+02 -0.22231347195E+02  0.14631391575E+01  0.66032670487E+02  0.41800000000E+01 0.  1.
        -11    1    1    2    0    0  0.84085249459E+01  0.13520800257E+02  0.31429897498E+02  0.35232850978E+02  0.00000000000E+00 0.  1.
         11    1    1    2    0    0  0.68662438222E+01 -0.14701016226E+02 -0.58256798421E+02  0.60474124587E+02  0.00000000000E+00 0. -1.
</event>
<event>
 7    1  0.2693725E-009  0.1023261E+03  0.7561462E-02  0.1275479E+00
          1   -1    0    0  501    0  0.00000000000E+00  0.00000000000E+00  0.18643407404E+03  0.18643407404E+03  0.00000000000E+00 0. -1.
         -1   -1    0    0    0  501 -0.00000000000E+00 -0.00000000000E+00 -0.11827728812E+03  0.11827728812E+03  0.00000000000E+00 0.  1.
         25    2    1    2    0    0  0.14209466172E+01 -0.40269648783E+01  0.13820093905E+03  0.18645321937E+03  0.12508824055E+03 0.  0.
          5    1    3    3  502    0 -0.49513161045E+02  0.25715501147E+02  0.30840129190E+02  0.63886039824E+02  0.41800000000E+01 0.  1.
         -5    1    3    3    0  502  0.50934107662E+02 -0.29742466025E+02  0.10736080986E+03  0.12256717954E+03  0.41800000000E+01 0.  1.
        -11    1    1    2    0    0 -0.14194346386E+02  0.44721877495E+02 -0.56637698300E+02  0.73548315173E+02  0.00000000000E+00 0.  1.
         11    1    1    2    0    0  0.12773399769E+02 -0.40694912617E+02 -0.13406454823E+02  0.44709827616E+02  0.00000000000E+00 0. -1.
</event>
<event>
 7    1  0.2693725E-009  0.1526573E+03  0.7561462E-02  0.1197245E+00
          4   -1    0    0  501    0  0.00000000000E+00  0.00000000000E+00  0.92950592089E+03  0.92950592089E+03  0.00000000000E+00 0. -1.
         -4   -1    0    0    0  501 -0.00000000000E+00 -0.00000000000E+00 -0.36983440207E+02  0.36983440207E+02  0.00000000000E+00 0.  1.
         25    2    1    2    0    0  0.74502896655E+02  0.11179696359E+03  0.64331497512E+03  0.66899226415E+03  0.12508896672E+03 0.  0.
          5    1    3    3  502    0  0.76358893563E+02  0.64954155126E+02  0.20583070202E+03  0.22898356533E+03  0.41800000000E+01 0.  1.
         -5    1    3    3    0  502 -0.18559969078E+01  0.46842808469E+02  0.43748427310E+03  0.44000869882E+03  0.41800000000E+01 0.  1.
        -11    1    1    2    0    0 -0.89284937353E+02 -0.11186969120E+03  0.19879073493E+03  0.24495792321E+03  0.00000000000E+00 0. -1.
         11    1    1    2    0    0  0.14782040698E+02  0.72727610469E-01  0.50416770632E+02  0.52539173741E+02  0.00000000000E+00 0.  1.
</event>
<event>
 7    1  0.2693725E-009  0.9042098E+02  0.7561462E-02  0.1301835E+00
         -2   -1    0    0    0  501 -0.00000000000E+00  0.00000000000E+00  0.92030074980E+02  0.92030074980E+02  0.00000000000E+00 0.  1.
          2   -1    0    0  501    0  0.00000000000E+00 -0.00000000000E+00 -0.39447412396E+03  0.39447412396E+03  0.00000000000E+00 0. -1.
         25    2    1    2    0    0 -0.50009903096E+02  0.39155762737E+02  0.23657264925E+02  0.14227233439E+03  0.12509031452E+03 0.  0.
          5    1    3    3  502    0 -0.33435324821E+02  0.53480340038E+02  0.67874220448E+02  0.92749393086E+02  0.41800000000E+01 0. -1.
         -5    1    3    3    0  502 -0.16574578275E+02 -0.14324577301E+02 -0.44216955523E+02  0.49522941306E+02  0.41800000000E+01 0. -1.
        -11    1    1    2    0    0 -0.12640143501E+02  0.96582632855E+01 -0.11163456317E+02  0.19433940268E+02  0.00000000000E+00 0.  1.
         11    1    1    2    0    0  0.62650046597E+02 -0.48814026022E+02 -0.31493785759E+03  0.32479792428E+03  0.00000000000E+00 0. -1.
</event>
<event>
 7    1  0.2693725E-009  0.9974791E+02  0.7561462E-02  0.1280827E+00
         -2   -1    0    0    0  501 -0.00000000000E+00  0.00000000000E+00  0.23875965007E+02  0.23875965007E+02  0.00000000000E+00 0.  1.
          2   -1    0    0  501    0  0.00000000000E+00 -0.00000000000E+00 -0.51944335667E+03  0.51944335667E+03  0.00000000000E+00 0. -1.
         25    2    1    2    0    0 -0.25859698525E+02  0.30338512217E+01 -0.32789541716E+03  0.35190674841E+03  0.12508008123E+03 0.  0.
          5    1    3    3  502    0 -0.43713643566E+02  0.47156067286E+02 -0.99324383404E+02  0.11839502884E+03  0.41800000000E+01 0.  1.
         -5    1    3    3    0  502  0.17853945041E+02 -0.44122216064E+02 -0.22857103376E+03  0.23351171957E+03  0.41800000000E+01 0.  1.
        -11    1    1    2    0    0  0.53250856696E+02 -0.17817400459E+02 -0.13537120772E+03  0.14655537307E+03  0.00000000000E+00 0. -1.
         11    1    1    2    0    0 -0.27391158171E+02  0.14783549237E+02 -0.32300766779E+02  0.44857200186E+02  0.00000000000E+00 0.  1.
</event>
<event>
 7    1  0.2693725E-009  0.1272771E+03  0.7561462E-02  0.1231553E+00
         -2   -1    0    0    0  501 -0.00000000000E+00  0.00000000000E+00  0.52435188577E+02  0.52435188577E+02  0.00000000000E+00 0.  1.
          2   -1    0    0  501    0  0.00000000000E+00 -0.00000000000E+00 -0.55999587762E+03  0.55999587762E+03  0.00000000000E+00 0. -1.
         25    2    1    2    0    0  0.11437559783E+02 -0.10599989586E+03 -0.40918740023E+03  0.44095975903E+03  0.12507751552E+03 0.  0.
          5    1    3    3  502    0 -0.33684857093E+02 -0.17855910073E+02 -0.29046065078E+02  0.48110803552E+02  0.41800000000E+01 0.  1.
         -5    1    3    3    0  502  0.45122416876E+02 -0.88143985782E+02 -0.38014133515E+03  0.39284895548E+03  0.41800000000E+01 0.  1.
        -11    1    1    2    0    0 -0.25938415312E+02  0.29731577895E+02  0.75220237396E+01  0.40166515335E+02  0.00000000000E+00 0.  1.
         11    1    1    2    0    0  0.14500855528E+02  0.76268317960E+02 -0.10589531255E+03  0.13130479182E+03  0.00000000000E+00 0. -1.
</event>
<event>
 7    1  0.2693725E-009  0.1032018E+03  0.7561462E-02  0.1273703E+00
          1   -1    0    0  501    0  0.00000000000E+00  0.00000000000E+00  0.15942371552E+03  0.15942371552E+03  0.00000000000E+00 0. -1.
         -1   -1    0    0    0  501 -0.00000000000E+00 -0.00000000000E+00 -0.91376983704E+02  0.91376983704E+02  0.00000000000E+00 0.  1.
         25    2    1    2    0    0 -0.28704703463E+02 -0.31815291689E+02  0.71975221992E+02  0.15054427417E+03  0.12508786160E+03 0.  0.
          5    1    3    3  502    0 -0.33178413886E+02  0.29918816721E+02  0.76128589639E+02  0.88368418015E+02  0.41800000000E+01 0. -1.
         -5    1    3    3    0  502  0.44737104231E+01 -0.61734108410E+02 -0.41533676470E+01  0.62175856157E+02  0.41800000000E+01 0. -1.
        -11    1    1    2    0    0 -0.13764302976E+02  0.51050573094E+02  0.37496420231E+01  0.53006385133E+02  0.00000000000E+00 0. -1.
         11    1    1    2    0    0  0.42469006439E+02 -0.19235281405E+02 -0.76781321941E+01  0.47250039922E+02  0.00000000000E+00 0.  1.
</event>
<event>
 7    1  0.2693725E-009  0.1409512E+03  0.7561462E-02  0.1212055E+00
         -2   -1    0    0    0  501 -0.00000000000E+00  0.00000000000E+00  0.27589356400E+02  0.27589356400E+02  0.00000000000E+00 0.  1.
          2   -1    0    0  501    0  0.00000000000E+00 -0.00000000000E+00 -0.98817927301E+03  0.98817927301E+03  0.00000000000E+00 0. -1.
         25    2    1    2    0    0  0.99469477727E+02  0.23925675261E+02 -0.70733467677E+03  0.72555950848E+03  0.12509052898E+03 0.  0.
          5    1    3    3  502    0 -0.21128702996E+02  0.73997272849E+01 -0.28788414100E+03  0.28878353328E+03  0.41800000000E+01 0. -1.
         -5    1    3    3    0  502  0.12059818072E+03  0.16525947976E+02 -0.41945053577E+03  0.43677597519E+03  0.41800000000E+01 0. -1.
        -11    1    1    2    0    0  0.75422012222E+01 -0.29231161474E+02 -0.29922333314E+02  0.42505195345E+02  0.00000000000E+00 0. -1.
         11    1    1    2    0    0 -0.10701167895E+03  0.53054862131E+01 -0.22333290652E+03  0.24770392558E+03  0.00000000000E+00 0.  1.
</event>
<event>
 7    1  0.2693725E-009  0.1109912E+03  0.7561462E-02  0.1258745E+00
          2   -1    0    0  501    0  0.00000000000E+00  0.00000000000E+00  0.22814647463E+04  0.22814647463E+04  0.00000000000E+00 0. -1.
         -2   -1    0    0    0  501 -0.00000000000E+00 -0.00000000000E+00 -0.17005004061E+02  0.17005004061E+02  0.00000000000E+00 0.  1.
         25    2    1    2    0    0  0.13483656165E+00  0.95610031190E+02  0.19683708443E+04  0.19746575877E+04  0.12509001343E+03 0.  0.
          5    1    3    3  502    0  0.36344176003E+02  0.57429976630E+02  0.42801086347E+03  0.43339343903E+03  0.41800000000E+01 0.  1.
         -5    1    3    3    0  502 -0.36209339442E+02  0.38180054561E+02  0.15403599808E+04  0.15412641486E+04  0.41800000000E+01 0.  1.
        -11    1    1    2    0    0  0.10760122213E+02 -0.96399246919E+01 -0.86464899823E+00  0.14472594653E+02  0.00000000000E+00 0.  1.
         11    1    1    2    0    0 -0.10894958775E+02 -0.85970106498E+02  0.29695354694E+03  0.30933956808E+03  0.00000000000E+00 0. -1.
</event>
<event>
 7    1  0.2693725E-009  0.1096900E+03  0.7561462E-02  0.1261145E+00
          1   -1    0    0  501    0  0.00000000000E+00  0.00000000000E+00  0.37420075103E+03  0.37420075103E+03  0.00000000000E+00 0. -1.
         -1   -1    0    0    0  501 -0.00000000000E+00 -0.00000000000E+00 -0.40737646927E+02  0.40737646927E+02  0.00000000000E+00 0.  1.
         25    2    1    2    0    0  0.19015324624E+02  0.46253979486E+02  0.24283762900E+03  0.27770589502E+03  0.12509770935E+03 0.  0.
          5    1    3    3  502    0  0.63038009580E+02  0.19561591680E+02  0.19983954337E+03  0.21049884089E+03  0.41800000000E+01 0.  1.
         -5    1    3    3    0  502 -0.44022684956E+02  0.26692387806E+02  0.42998085624E+02  0.67207054130E+02  0.41800000000E+01 0.  1.
        -11    1    1    2    0    0 -0.77687881131E+01 -0.72564250660E+02  0.74932946482E+02  0.10459861859E+03  0.00000000000E+00 0. -1.
         11    1    1    2    0    0 -0.11246536511E+02  0.26310271174E+02  0.15692528621E+02  0.32633884342E+02  0.00000000000E+00 0.  1.
</event>
<event>
 7    1  0.2693725E-009  0.8929425E+02  0.7561462E-02  0.1304570E+00
          1   -1    0    0  501    0  0.00000000000E+00  0.00000000000E+00  0.10674770370E+03  0.10674770370E+03  0.00000000000E+00 0. -1.
         -1   -1    0    0    0  501 -0.00000000000E+00 -0.00000000000E+00 -0.13508161564E+03  0.13508161564E+03  0.00000000000E+00 0.  1.
         25    2    1    2    0    0  0.18663392914E+02  0.14685698737E+02 -0.59323503430E+02  0.14046746863E+03  0.12509132545E+03 0.  0.
          5    1    3    3  502    0  0.43089574196E+02  0.37024854849E+02  0.15078763771E+02  0.58927012463E+02  0.41800000000E+01 0.  1.
         -5    1    3    3    0  502 -0.24426181282E+02 -0.22339156112E+02 -0.74402267201E+02  0.81540456171E+02  0.41800000000E+01 0.  1.
        -11    1    1    2    0    0 -0.51978848659E+02 -0.17449511885E+02 -0.13544159640E+01  0.54846336391E+02  0.00000000000E+00 0.  1.
         11    1    1    2    0    0  0.33315455745E+02  0.27638131478E+01  0.32344007454E+02  0.46515514324E+02  0.00000000000E+00 0. -1.
</event>
<event>
 7    1  0.2693725E-009  0.1367424E+03  0.7561462E-02  0.1217781E+00
         -4   -1    0    0    0  501 -0.00000000000E+00  0.00000000000E+00  0.21874080092E+03  0.21874080092E+03  0.00000000000E+00 0.  1.
          4   -1    0    0  501    0  0.00000000000E+00 -0.00000000000E+00 -0.11816481973E+03  0.11816481973E+03  0.00000000000E+00 0. -1.
         25    2    1    2    0    0  0.49448635007E+02 -0.10344262025E+03  0.21291063841E+02  0.17101299118E+03  0.12508633244E+03 0.  0.
          5    1    3    3  502    0  0.30032034028E+02 -0.11111044052E+03  0.57713459781E+02  0.12882456637E+03  0.41800000000E+01 0.  1.
         -5    1    3    3    0  502  0.19416600979E+02  0.76678202700E+01 -0.36422395940E+02  0.42188424802E+02  0.41800000000E+01 0.  1.
        -11    1    1    2    0    0 -0.59685214338E+02  0.37939135542E+02  0.12558103466E+02  0.71829024627E+02  0.00000000000E+00 0.  1.
         11    1    1    2    0    0  0.10236579330E+02  0.65503484712E+02  0.66726813884E+02  0.94063604847E+02  0.00000000000E+00 0. -1.
</event>
<event>
 7    1  0.2693725E-009  0.9938781E+02  0.7561462E-02  0.1281589E+00
          1   -1    0    0  501    0  0.00000000000E+00  0.00000000000E+00  0.35136623151E+02  0.35136623151E+02  0.00000000000E+00 0. -1.
         -1   -1    0    0    0  501 -0.00000000000E+00 -0.00000000000E+00 -0.38224729047E+03  0.38224729047E+03  0.00000000000E+00 0.  1.
         25    2    1    2    0    0 -0.62367351775E+01 -0.40564036078E+02 -0.17974045951E+03  0.22279466229E+03  0.12508593394E+03 0.  0.
          5    1    3    3  502    0 -0.10630585599E+02 -0.70513077162E+02 -0.17844387189E+03  0.19221027864E+03  0.41800000000E+01 0. -1.
         -5    1    3    3    0  502  0.43938504217E+01  0.29949041084E+02 -0.12965876242E+01  0.30584383644E+02  0.41800000000E+01 0. -1.
        -11    1    1    2    0    0  0.28365560043E+02  0.60615579295E+02 -0.94137074471E+02  0.11550169800E+03  0.00000000000E+00 0. -1.
         11    1    1    2    0    0 -0.22128824866E+02 -0.20051543217E+02 -0.73233133336E+02  0.79087553342E+02  0.00000000000E+00 0.  1.
</event>
<event>
 7    1  0.2693725E-009  0.5307420E+02  0.7561462E-02  0.1429432E+00
          1   -1    0    0  501    0  0.00000000000E+00  0.00000000000E+00  0.96128475778E+02  0.96128475778E+02  0.00000000000E+00 0. -1.
         -1   -1    0    0    0  501 -0.00000000000E+00 -0.00000000000E+00 -0.13907434995E+03  0.13907434995E+03  0.00000000000E+00 0.  1.
         25    2    1    2    0    0 -0.50506749361E+01 -0.40778554144E+02 -0.23573582309E+02  0.13376155361E+03  0.12509212464E+03 0.  0.
          5    1    3    3  502    0  0.29818761093E+00 -0.50035602596E+02  0.43060271793E+02  0.66146124980E+02  0.41800000000E+01 0.  1.
         -5    1    3    3    0  502 -0.53488625471E+01  0.92570484512E+01 -0.66633854103E+02  0.67615428633E+02  0.41800000000E+01 0.  1.
        -11    1    1    2    0    0  0.91000817781E+01  0.10434615121E+02 -0.53694224606E+02  0.55450540459E+02  0.00000000000E+00 0.  1.
         11    1    1    2    0    0 -0.40494068420E+01  0.30343939023E+02  0.34321932743E+02  0.45990731658E+02  0.00000000000E+00 0. -1.
</event>
<event>
 7    1  0.2693725E-009  0.8589854E+02  0.7561462E-02  0.1313099E+00
         -1   -1    0    0    0  501 -0.00000000000E+00  0.00000000000E+00  0.29862180484E+02  0.29862180484E+02  0.00000000000E+00 0.  1.
          1   -1    0    0  501    0  0.00000000000E+00 -0.00000000000E+00 -0.41545793110E+03  0.41545793110E+03  0.00000000000E+00 0. -1.
         25    2    1    2    0    0  0.17651416178E+02  0.28856975048E+02 -0.23887571003E+03  0.27175850098E+03  0.12508709170E+03 0.  0.
          5    1    3    3  502    0 -0.29857849505E+02 -0.11089143262E+01 -0.42508275840E+01  0.30467405587E+02  0.41800000000E+01 0. -1.
         -5    1    3    3    0  502  0.47509265683E+02  0.29965889375E+02 -0.23462488245E+03  0.24129109539E+03  0.41800000000E+01 0. -1.
        -11    1    1    2    0    0 -0.44768810276E+02  0.12461578285E+01 -0.42494448835E+02  0.61737974251E+02  0.00000000000E+00 0.  1.
         11    1    1    2    0    0  0.27117394098E+02 -0.30103132877E+02 -0.10422559175E+03  0.11182363635E+03  0.00000000000E+00 0. -1.
</event>
<event>
 7    1  0.2693725E-009  0.1175675E+03  0.7561462E-02  0.1247165E+00
         -2   -1    0    0    0  501 -0.00000000000E+00  0.00000000000E+00  0.60434245896E+02  0.60434245896E+02  0.00000000000E+00 0. -1.
          2   -1    0    0  501    0  0.00000000000E+00 -0.00000000000E+00 -0.46873357028E+03  0.46873357028E+03  0.00000000000E+00 0.  1.
         25    2    1    2    0    0 -0.57880008146E+02 -0.25919378537E+02 -0.39485932861E+03  0.41902672407E+03  0.12509035360E+03 0.  0.
          5    1    3    3  502    0 -0.81420414435E+01 -0.63991463163E+02 -0.11228304587E+03  0.12956139466E+03  0.41800000000E+01 0. -1.
         -5    1    3    3    0  502 -0.49737966702E+02  0.38072084626E+02 -0.28257628274E+03  0.28946532941E+03  0.41800000000E+01 0. -1.
        -11    1    1    2    0    0  0.23396884013E+02 -0.32400208644E+02  0.40471697844E+01  0.40169233064E+02  0.00000000000E+00 0. -1.
         11    1    1    2    0    0  0.34483124133E+02  0.58319587181E+02 -0.17487165555E+02  0.69971859044E+02  0.00000000000E+00 0.  1.
</event>
<event>
 7    1  0.2693725E-009  0.1573075E+03  0.7561462E-02  0.1191770E+00
          3   -1    0    0  501    0  0.00000000000E+00  0.00000000000E+00  0.12101955951E+03  0.12101955951E+03  0.00000000000E+00 0. -1.
         -3   -1    0    0    0  501 -0.00000000000E+00 -0.00000000000E+00 -0.25333453927E+03  0.25333453927E+03  0.00000000000E+00 0.  1.
         25    2    1    2    0    0 -0.59835174158E+02  0.10085665829E+03  0.31842722143E+00  0.17146853401E+03  0.12509613572E+03 0.  0.
          5    1    3    3  502    0 -0.81952553837E+02  0.29920792700E+02 -0.28179961016E+02  0.91777216775E+02  0.41800000000E+01 0.  1.
         -5    1    3    3    0  502  0.22117379679E+02  0.70935865589E+02  0.28498388237E+02  0.79691317236E+02  0.41800000000E+01 0.  1.
        -11    1    1    2    0    0 -0.24241208366E+02 -0.47341072137E+02 -0.37250399955E+02  0.64933855506E+02  0.00000000000E+00 0.  1.
         11    1    1    2    0    0  0.84076382524E+02 -0.53515586152E+02 -0.95383007020E+02  0.13795170926E+03  0.00000000000E+00 0. -1.
</event>
<event>
 7    1  0.2693725E-009  0.1176142E+03  0.7561462E-02  0.1247086E+00
          2   -1    0    0  501    0  0.00000000000E+00  0.00000000000E+00  0.17894924667E+03  0.17894924667E+03  0.00000000000E+00 0. -1.
         -2   -1    0    0    0  501 -0.00000000000E+00 -0.00000000000E+00 -0.14343287891E+03  0.14343287891E+03  0.00000000000E+00 0.  1.
         25    2    1    2    0    0 -0.23609094978E+02  0.50840980685E+02  0.12334901388E+03  0.18440355954E+03  0.12508996309E+03 0.  0.
          5    1    3    3  502    0 -0.48943075861E+02  0.79110275300E+02  0.10959276309E+03  0.14381205254E+03  0.41800000000E+01 0. -1.
         -5    1    3    3    0  502  0.25333980883E+02 -0.28269294615E+02  0.13756250783E+02  0.40591507006E+02  0.41800000000E+01 0. -1.
        -11    1    1    2    0    0  0.54003574169E+02 -0.49871701904E+02 -0.74860418479E+02  0.10491737191E+03  0.00000000000E+00 0.  1.
         11    1    1    2    0    0 -0.30394479192E+02 -0.96927878095E+00 -0.12972227635E+02  0.33061194118E+02  0.00000000000E+00 0. -1.
</event>
<event>
 7    1  0.2693725E-009  0.1070801E+03  0.7561462E-02  0.1266075E+00
          2   -1    0    0  501    0  0.00000000000E+00  0.00000000000E+00  0.13129613579E+03  0.13129613579E+03  0.00000000000E+00 0. -1.
         -2   -1    0    0    0  501 -0.00000000000E+00 -0.00000000000E+00 -0.10170409340E+03  0.10170409340E+03  0.00000000000E+00 0.  1.
         25    2    1    2    0    0 -0.12604267610E+02  0.92410012170E+01 -0.14478338178E+02  0.12690640058E+03  0.12510534987E+03 0.  0.
          5    1    3    3  502    0  0.42787979501E+02 -0.30416284241E+02  0.11451140082E+02  0.53893993599E+02  0.41800000000E+01 0.  1.
         -5    1    3    3    0  502 -0.55392247111E+02  0.39657285458E+02 -0.25929478259E+02  0.73012406978E+02  0.41800000000E+01 0.  1.
        -11    1    1    2    0    0 -0.39258609079E+02  0.47022393699E+01  0.53794187658E+01  0.39903478397E+02  0.00000000000E+00 0.  1.
         11    1    1    2    0    0  0.51862876689E+02 -0.13943240587E+02  0.38690961799E+02  0.66190350214E+02  0.00000000000E+00 0. -1.
</event>
<event>
 7    1  0.2693725E-009  0.1700186E+03  0.7561462E-02  0.1177828E+00
         -2   -1    0    0    0  501 -0.00000000000E+00  0.00000000000E+00  0.25405450699E+03  0.25405450699E+03  0.00000000000E+00 0.  1.
          2   -1    0    0  501    0  0.00000000000E+00 -0.00000000000E+00 -0.16682896057E+03  0.16682896057E+03  0.00000000000E+00 0. -1.
         25    2    1    2    0    0 -0.83813108862E+02  0.14465452855E+03 -0.45309801741E+01  0.20884631309E+03  0.12508670140E+03 0.  0.
          5    1    3    3  502    0 -0.81498300133E+02  0.10645021445E+03  0.49092009984E+02  0.14283248554E+03  0.41800000000E+01 0.  1.
         -5    1    3    3    0  502 -0.23148087286E+01  0.38204314096E+02 -0.53622990158E+02  0.66013827555E+02  0.41800000000E+01 0.  1.
        -11    1    1    2    0    0  0.60187135421E+02 -0.95812712277E+02  0.95638545316E+01  0.11355190187E+03  0.00000000000E+00 0. -1.
         11    1    1    2    0    0  0.23625973441E+02 -0.48841816268E+02  0.82192672062E+02  0.98485252592E+02  0.00000000000E+00 0.  1.
</event>
<event>
 7    1  0.2693725E-009  0.7212123E+02  0.7561462E-02  0.1353025E+00
          1   -1    0    0  501    0  0.00000000000E+00  0.00000000000E+00  0.40132286220E+03  0.40132286220E+03  0.00000000000E+00 0. -1.
         -1   -1    0    0    0  501 -0.00000000000E+00 -0.00000000000E+00 -0.42660449109E+02  0.42660449109E+02  0.00000000000E+00 0.  1.
         25    2    1    2    0    0  0.38116851465E+02 -0.35048979937E+01  0.30320106796E+03  0.33021798072E+03  0.12509136063E+03 0.  0.
          5    1    3    3  502    0 -0.43104831689E+00  0.39426688187E+01  0.28776888981E+03  0.28782657415E+03  0.41800000000E+01 0.  1.
         -5    1    3    3    0  502  0.38547899782E+02 -0.74475668123E+01  0.15432178146E+02  0.42391406574E+02  0.41800000000E+01 0.  1.
        -11    1    1    2    0    0 -0.54652974173E+02  0.33958713204E+02  0.40433302817E+02  0.75993379745E+02  0.00000000000E+00 0.  1.
         11    1    1    2    0    0  0.16536122708E+02 -0.30453815210E+02  0.15028042320E+02  0.37771950850E+02  0.00000000000E+00 0. -1.
</event>
<event>
 7    1  0.2693725E-009  0.1496333E+03  0.7561462E-02  0.1200924E+00
         -1   -1    0    0    0  501 -0.00000000000E+00  0.00000000000E+00  0.12200645309E+03  0.12200645309E+03  0.00000000000E+00 0.  1.
          1   -1    0    0  501    0  0.00000000000E+00 -0.00000000000E+00 -0.26863359142E+03  0.26863359142E+03  0.00000000000E+00 0. -1.
         25    2    1    2    0    0  0.81724259990E+01 -0.14137966479E+03 -0.60828439862E+02  0.19850479203E+03  0.12509618379E+03 0.  0.
          5    1    3    3  502    0  0.15784350018E+01 -0.14629571702E+03 -0.98465003681E+01  0.14669476557E+03  0.41800000000E+01 0.  1.
         -5    1    3    3    0  502  0.65939909972E+01  0.49160522333E+01 -0.50981939494E+02  0.51810026456E+02  0.41800000000E+01 0.  1.
        -11    1    1    2    0    0  0.87077888403E+01  0.47794747635E+02 -0.83983727473E+02  0.97022832200E+02  0.00000000000E+00 0. -1.
         11    1    1    2    0    0 -0.16880214839E+02  0.93584917155E+02 -0.18149709965E+01  0.95112420281E+02  0.00000000000E+00 0.  1.
</event>
<event>
 7    1  0.2693725E-009  0.1077994E+03  0.7561462E-02  0.1264700E+00
          1   -1    0    0  501    0  0.00000000000E+00  0.00000000000E+00  0.37092556754E+02  0.37092556754E+02  0.00000000000E+00 0. -1.
         -1   -1    0    0    0  501 -0.00000000000E+00 -0.00000000000E+00 -0.33651540857E+03  0.33651540857E+03  0.00000000000E+00 0.  1.
         25    2    1    2    0    0 -0.22300213643E+02  0.25354068976E+01 -0.19907362550E+03  0.23618099391E+03  0.12508967063E+03 0.  0.
          5    1    3    3  502    0 -0.39860724385E+02 -0.54161021458E+02 -0.98943629178E+02  0.11970633963E+03  0.41800000000E+01 0.  1.
         -5    1    3    3    0  502  0.17560510743E+02  0.56696428356E+02 -0.10012999632E+03  0.11647465428E+03  0.41800000000E+01 0.  1.
        -11    1    1    2    0    0 -0.27875721941E+02  0.19397040924E+02 -0.17735631593E+02  0.38312578853E+02  0.00000000000E+00 0.  1.
         11    1    1    2    0    0  0.50175935584E+02 -0.21932447822E+02 -0.82613594728E+02  0.99114392563E+02  0.00000000000E+00 0. -1.
</event>
<event>
 7    1  0.2693725E-009  0.9959296E+02  0.7561462E-02  0.1281154E+00
         -1   -1    0    0    0  501 -0.00000000000E+00  0.00000000000E+00  0.27137578735E+02  0.27137578735E+02  0.00000000000E+00 0.  1.
          1   -1    0    0  501    0  0.00000000000E+00 -0.00000000000E+00 -0.10255196592E+04  0.10255196592E+04  0.00000000000E+00 0. -1.
         25    2    1    2    0    0  0.13024006333E+02  0.45532822735E+02 -0.90122780512E+03  0.91110122717E+03  0.12510406364E+03 0.  0.
          5    1    3    3  502    0  0.57615928824E+02  0.18531129732E+01 -0.23749641079E+03  0.24442799926E+03  0.41800000000E+01 0. -1.
         -5    1    3    3    0  502 -0.44591922491E+02  0.43679709762E+02 -0.66373139432E+03  0.66667322791E+03  0.41800000000E+01 0. -1.
        -11    1    1    2    0    0 -0.33366402272E+02 -0.53539600291E+01  0.73815451084E+00  0.33801280459E+02  0.00000000000E+00 0.  1.
         11    1    1    2    0    0  0.20342395940E+02 -0.40178862706E+02 -0.97892429869E+02  0.10775473032E+03  0.00000000000E+00 0. -1.
</event>
<event>
 7    1  0.2693725E-009  0.3908054E+03  0.7561462E-02  0.1047011E+00
          1   -1    0    0  501    0  0.00000000000E+00  0.00000000000E+00  0.91627473290E+03  0.91627473290E+03  0.00000000000E+00 0. -1.
         -1   -1    0    0    0  501 -0.00000000000E+00 -0.00000000000E+00 -0.28911450673E+03  0.28911450673E+03  0.00000000000E+00 0.  1.
         25    2    1    2    0    0  0.12325749026E+03  0.36131094769E+03  0.69996828126E+03  0.80705741024E+03  0.12509220124E+03 0.  0.
          5    1    3    3  502    0  0.11790958698E+03  0.36670828887E+03  0.64399502055E+03  0.75041635025E+03  0.41800000000E+01 0.  1.
         -5    1    3    3    0  502  0.53479032733E+01 -0.53973411772E+01  0.55973260715E+02  0.56641059985E+02  0.41800000000E+01 0.  1.
        -11    1    1    2    0    0 -0.43758288247E+02 -0.50127058214E+02  0.83415301795E+01  0.67060352528E+02  0.00000000000E+00 0. -1.
         11    1    1    2    0    0 -0.79499202008E+02 -0.31118388948E+03 -0.81149585277E+02  0.33127147686E+03  0.00000000000E+00 0.  1.
</event>
<event>
 7    1  0.2693725E-009  0.1120053E+03  0.7561462E-02  0.1256901E+00
          1   -1    0    0  501    0  0.00000000000E+00  0.00000000000E+00  0.12996201998E+03  0.12996201998E+03  0.00000000000E+00 0. -1.
         -1   -1    0    0    0  501 -0.00000000000E+00 -0.00000000000E+00 -0.97033083212E+02  0.97033083212E+02  0.00000000000E+00 0.  1.
         25    2    1    2    0    0 -0.37925991397E+01 -0.29950000158E+02  0.20812975921E+02  0.13034897340E+03  0.12508512535E+03 0.  0.
          5    1    3    3  502    0  0.29588876341E+01  0.48990372101E+02  0.57333322313E+01  0.49589868654E+02  0.41800000000E+01 0.  1.
         -5    1    3    3    0  502 -0.67514867738E+01 -0.78940372259E+02  0.15079643689E+02  0.80759104749E+02  0.41800000000E+01 0.  1.
        -11    1    1    2    0    0  0.33706590822E+02 -0.18517982900E+02  0.21005022618E+00  0.38458992142E+02  0.00000000000E+00 0. -1.
         11    1    1    2    0    0 -0.29913991682E+02  0.48467983058E+02  0.11905910623E+02  0.58187137649E+02  0.00000000000E+00 0.  1.
</event>
<event>
 7    1  0.2693725E-009  0.9533834E+02  0.7561462E-02  0.1290416E+00
         -1   -1    0    0    0  501 -0.00000000000E+00  0.00000000000E+00  0.39426247842E+02  0.39426247842E+02  0.00000000000E+00 0.  1.
          1   -1    0    0  501    0  0.00000000000E+00 -0.00000000000E+00 -0.38668012460E+03  0.38668012460E+03  0.00000000000E+00 0. -1.
         25    2    1    2    0    0 -0.48206749750E+01  0.41107804641E+02 -0.12564737939E+03  0.18206518251E+03  0.12508947288E+03 0.  0.
          5    1    3    3  502    0 -0.51410782168E+02  0.32592392758E+00 -0.12590730478E+02  0.53095891023E+02  0.41800000000E+01 0.  1.
         -5    1    3    3    0  502  0.46590107194E+02  0.40781880714E+02 -0.11305664891E+03  0.12896929149E+03  0.41800000000E+01 0.  1.
        -11    1    1    2    0    0 -0.18917142118E+02 -0.48594007920E+02 -0.21036188265E+03  0.21672876492E+03  0.00000000000E+00 0. -1.
         11    1    1    2    0    0  0.23737817093E+02  0.74862032791E+01 -0.11244614716E+02  0.27312425011E+02  0.00000000000E+00 0.  1.
</event>
<event>
 7    1  0.2693725E-009  0.1041939E+03  0.7561462E-02  0.1271716E+00
          4   -1    0    0  501    0  0.00000000000E+00  0.00000000000E+00  0.64175022332E+03  0.64175022332E+03  0.00000000000E+00 0. -1.
         -4   -1    0    0    0  501 -0.00000000000E+00 -0.00000000000E+00 -0.21371834112E+02  0.21371834112E+02  0.00000000000E+00 0.  1.
         25    2    1    2    0    0  0.11833398938E+02 -0.40914912969E+02  0.39186581092E+03  0.41354605183E+03  0.12508982286E+03 0.  0.
          5    1    3    3  502    0 -0.46887349562E+02 -0.44287727222E+02  0.13071306117E+03  0.14581907657E+03  0.41800000000E+01 0.  1.
         -5    1    3    3    0  502  0.58720748500E+02  0.33728142531E+01  0.26115274975E+03  0.26772697526E+03  0.41800000000E+01 0.  1.
        -11    1    1    2    0    0 -0.20168352427E+02 -0.16939342974E+02  0.20127775178E+02  0.33148621595E+02  0.00000000000E+00 0.  1.
         11    1    1    2    0    0  0.83349534896E+01  0.57854255943E+02  0.20838480311E+03  0.21642738401E+03  0.00000000000E+00 0. -1.
</event>
<event>
 7    1  0.2693725E-009  0.1380118E+03  0.7561462E-02  0.1216030E+00
         -1   -1    0    0    0  501 -0.00000000000E+00  0.00000000000E+00  0.33485626286E+03  0.33485626286E+03  0.00000000000E+00 0.  1.
          1   -1    0    0  501    0  0.00000000000E+00 -0.00000000000E+00 -0.69119705818E+02  0.69119705818E+02  0.00000000000E+00 0. -1.
         25    2    1    2    0    0  0.25031846062E+02 -0.99177320307E+02  0.18042170311E+03  0.24220400682E+03  0.12509218913E+03 0.  0.
          5    1    3    3  502    0 -0.37086194945E+02 -0.21356264765E+02  0.90211298228E+01  0.43935510507E+02  0.41800000000E+01 0. -1.
         -5    1    3    3    0  502  0.62118041007E+02 -0.77821055542E+02  0.17140057329E+03  0.19826849631E+03  0.41800000000E+01 0. -1.
        -11    1    1    2    0    0  0.21534263479E+02  0.80264850049E+02  0.33545995989E+02  0.89618661583E+02  0.00000000000E+00 0. -1.
         11    1    1    2    0    0 -0.46566109541E+02  0.18912470258E+02  0.51768857938E+02  0.72153300279E+02  0.00000000000E+00 0.  1.
</event>
<event>
 7    1  0.2693725E-009  0.1133576E+03  0.7561462E-02  0.1254476E+00
          2   -1    0    0  501    0  0.00000000000E+00  0.00000000000E+00  0.15527708293E+04  0.15527708293E+04  0.00000000000E+00 0. -1.
         -2   -1    0    0    0  501 -0.00000000000E+00 -0.00000000000E+00 -0.11700674295E+02  0.11700674295E+02  0.00000000000E+00 0.  1.
         25    2    1    2    0    0 -0.21260034616E+02  0.53928805463E+02  0.11750627277E+04  0.11831234432E+04  0.12509341584E+03 0.  0.
          5    1    3    3  502    0  0.25274965974E+02  0.66502347742E+02  0.38231447731E+03  0.38890001044E+03  0.41800000000E+01 0.  1.
         -5    1    3    3    0  502 -0.46535000590E+02 -0.12573542279E+02  0.79274825044E+03  0.79422343281E+03  0.41800000000E+01 0.  1.
        -11    1    1    2    0    0  0.51467683590E+02 -0.56884758019E+02  0.25989124456E+03  0.27097648819E+03  0.00000000000E+00 0. -1.
         11    1    1    2    0    0 -0.30207648974E+02  0.29559525554E+01  0.10611618271E+03  0.11037157217E+03  0.00000000000E+00 0.  1.
</event>
<event>
 7    1  0.2693725E-009  0.1776650E+03  0.7561462E-02  0.1170082E+00
         -1   -1    0    0    0  501 -0.00000000000E+00  0.00000000000E+00  0.35840759179E+03  0.35840759179E+03  0.00000000000E+00 0.  1.
          1   -1    0    0  501    0  0.00000000000E+00 -0.00000000000E+00 -0.12161750002E+03  0.12161750002E+03  0.00000000000E+00 0. -1.
         25    2    1    2    0    0  0.62724250166E+01  0.16169802538E+03  0.20735327966E+03  0.29125329182E+03  0.12508997834E+03 0.  0.
          5    1    3    3  502    0  0.14575532690E+02 -0.51568814229E+01  0.78809555667E+02  0.80420507606E+02  0.41800000000E+01 0.  1.
         -5    1    3    3    0  502 -0.83031076731E+01  0.16685490680E+03  0.12854372399E+03  0.21083278421E+03  0.41800000000E+01 0.  1.
        -11    1    1    2    0    0  0.24668788739E+02 -0.43381274436E+02  0.42805124596E+02  0.65747720882E+02  0.00000000000E+00 0.  1.
         11    1    1    2    0    0 -0.30941213755E+02 -0.11831675094E+03 -0.13368312488E+02  0.12302407911E+03  0.00000000000E+00 0. -1.
</event>
<event>
 7    1  0.2693725E-009  0.1024812E+03  0.7561462E-02  0.1275163E+00
         -2   -1    0    0    0  501 -0.00000000000E+00  0.00000000000E+00  0.29093088176E+02  0.29093088176E+02  0.00000000000E+00 0.  1.
          2   -1    0    0  501    0  0.00000000000E+00 -0.00000000000E+00 -0.51178232177E+03  0.51178232177E+03  0.00000000000E+00 0. -1.
         25    2    1    2    0    0 -0.18307833977E+02  0.48792874675E+02 -0.22215773237E+03  0.26022601103E+03  0.12509035680E+03 0.  0.
          5    1    3    3  502    0 -0.25052501544E+02  0.73091316369E+02 -0.22153221091E+03  0.23465711418E+03  0.41800000000E+01 0. -1.
         -5    1    3    3    0  502  0.67446675672E+01 -0.24298441694E+02 -0.62552145447E+00  0.25568896856E+02  0.41800000000E+01 0. -1.
        -11    1    1    2    0    0  0.37404999244E+02 -0.66294425394E+02 -0.21735760326E+03  0.23030070017E+03  0.00000000000E+00 0.  1.
         11    1    1    2    0    0 -0.19097165267E+02  0.17501550719E+02 -0.43173897969E+02  0.50348698739E+02  0.00000000000E+00 0. -1.
</event>
<event>
 7    1  0.2693725E-009  0.1048281E+03  0.7561462E-02  0.1270459E+00
         -2   -1    0    0    0  501 -0.00000000000E+00  0.00000000000E+00  0.18698296451E+03  0.18698296451E+03  0.00000000000E+00 0.  1.
          2   -1    0    0  501    0  0.00000000000E+00 -0.00000000000E+00 -0.97413179981E+02  0.97413179981E+02  0.00000000000E+00 0. -1.
         25    2    1    2    0    0  0.78030249703E+02  0.92321877996E+01  0.16948532929E+02  0.14868779329E+03  0.12508738524E+03 0.  0.
          5    1    3    3  502    0  0.47455456474E+02  0.33340893757E+02 -0.46278711129E+02  0.74315725452E+02  0.41800000000E+01 0.  1.
         -5    1    3    3    0  502  0.30574793229E+02 -0.24108705957E+02  0.63227244058E+02  0.74372067842E+02  0.41800000000E+01 0.  1.
        -11    1    1    2    0    0 -0.82030844049E+02  0.18696853783E+02  0.41877941822E+02  0.93980815745E+02  0.00000000000E+00 0.  1.
         11    1    1    2    0    0  0.40005943458E+01 -0.27929041582E+02  0.30743309779E+02  0.41727535453E+02  0.00000000000E+00 0. -1.
</event>
<event>
 7    1  0.2693725E-009  0.1179862E+03  0.7561462E-02  0.1246457E+00
         -1   -1    0    0    0  501 -0.00000000000E+00  0.00000000000E+00  0.28200793882E+03  0.28200793882E+03  0.00000000000E+00 0.  1.
          1   -1    0    0  501    0  0.00000000000E+00 -0.00000000000E+00 -0.58062281981E+02  0.58062281981E+02  0.00000000000E+00 0. -1.
         25    2    1    2    0    0 -0.66555211966E+02 -0.98201011788E+01  0.15317497164E+03  0.20889461608E+03  0.12509339737E+03 0.  0.
          5    1    3    3  502    0 -0.96894967117E+02 -0.31188367334E+01  0.68987822797E+02  0.11905945527E+03  0.41800000000E+01 0. -1.
         -5    1    3    3    0  502  0.30339755151E+02 -0.67012644455E+01  0.84187148843E+02  0.89835160812E+02  0.41800000000E+01 0. -1.
        -11    1    1    2    0    0  0.61848132871E+02  0.42195265005E+02  0.62249474843E+02  0.97368521847E+02  0.00000000000E+00 0.  1.
         11    1    1    2    0    0  0.47070790948E+01 -0.32375163826E+02  0.85212103561E+01  0.33807082872E+02  0.00000000000E+00 0. -1.
</event>
<event>
 7    1  0.2693725E-009  0.1631066E+03  0.7561462E-02  0.1185233E+00
          1   -1    0    0  501    0  0.00000000000E+00  0.00000000000E+00  0.39771054674E+03  0.39771054674E+03  0.00000000000E+00 0. -1.
         -1   -1    0    0    0  501 -0.00000000000E+00 -0.00000000000E+00 -0.80845837066E+02  0.80845837066E+02  0.00000000000E+00 0.  1.
         25    2    1    2    0    0  0.92645321728E+02  0.10813634038E+03  0.19610475107E+03  0.27272947005E+03  0.12509063390E+03 0.  0.
          5    1    3    3  502    0  0.11354378773E+03  0.60453385854E+02  0.98647715150E+02  0.16215932812E+03  0.41800000000E+01 0. -1.
         -5    1    3    3    0  502 -0.20898466002E+02  0.47682954530E+02  0.97457035925E+02  0.11057014192E+03  0.41800000000E+01 0. -1.
        -11    1    1    2    0    0 -0.42194275337E+02 -0.71168326728E+02  0.11682856426E+03  0.14315795831E+03  0.00000000000E+00 0. -1.
         11    1    1    2    0    0 -0.50451046391E+02 -0.36968013657E+02  0.39313943423E+01  0.62668955450E+02  0.00000000000E+00 0.  1.
</event>
<event>
 7    1  0.2693725E-009  0.1207408E+03  0.7561462E-02  0.1241880E+00
         -1   -1    0    0    0  501 -0.00000000000E+00  0.00000000000E+00  0.58245663408E+03  0.58245663408E+03  0.00000000000E+00 0.  1.
          1   -1    0    0  501    0  0.00000000000E+00 -0.00000000000E+00 -0.44553161889E+02  0.44553161889E+02  0.00000000000E+00 0. -1.
         25    2    1    2    0    0  0.54370688328E+02  0.93819792635E+02  0.38381320164E+03  0.41798881579E+03  0.12507498202E+03 0.  0.
          5    1    3    3  502    0  0.95479242025E+01  0.16920269717E+02 -0.38277507265E+01  0.20238143677E+02  0.41800000000E+01 0.  1.
         -5    1    3    3    0  502  0.44822764125E+02  0.76899522918E+02  0.38764095237E+03  0.39775067211E+03  0.41800000000E+01 0.  1.
        -11    1    1    2    0    0 -0.22392373164E+02 -0.97750549180E+02  0.80187082732E+02  0.12839998629E+03  0.00000000000E+00 0. -1.
         11    1    1    2    0    0 -0.31978315164E+02  0.39307565448E+01  0.73903187816E+02  0.80620993898E+02  0.00000000000E+00 0.  1.
</event>
<event>
 7    1  0.2693725E-009  0.1505160E+03  0.7561462E-02  0.1199840E+00
          1   -1    0    0  501    0  0.00000000000E+00  0.00000000000E+00  0.94260471795E+03  0.94260471795E+03  0.00000000000E+00 0. -1.
         -1   -1    0    0    0  501 -0.00000000000E+00 -0.00000000000E+00 -0.44802802249E+02  0.44802802249E+02  0.00000000000E+00 0.  1.
         25    2    1    2    0    0 -0.10161004151E+03  0.96686578291E+02  0.22011838023E+03  0.28943501193E+03  0.12509048669E+03 0.  0.
          5    1    3    3  502    0 -0.13344215340E+02  0.31688992355E+02 -0.86723990795E+01  0.35706347129E+02  0.41800000000E+01 0. -1.
         -5    1    3    3    0  502 -0.88265826166E+02  0.64997585935E+02  0.22879077931E+03  0.25372866480E+03  0.41800000000E+01 0. -1.
        -11    1    1    2    0    0 -0.26494331790E+01 -0.35933349171E+02  0.73497205481E+02  0.81853920445E+02  0.00000000000E+00 0.  1.
         11    1    1    2    0    0  0.10425947468E+03 -0.60753229119E+02  0.60418632999E+03  0.61611858782E+03  0.00000000000E+00 0. -1.
</event>
<event>
 7    1  0.2693725E-009  0.1699373E+03  0.7561462E-02  0.1177913E+00
         -3   -1    0    0    0  501 -0.00000000000E+00  0.00000000000E+00  0.61109026987E+03  0.61109026987E+03  0.00000000000E+00 0.  1.
          3   -1    0    0  501    0  0.00000000000E+00 -0.00000000000E+00 -0.60200508331E+02  0.60200508331E+02  0.00000000000E+00 0. -1.
         25    2    1    2    0    0 -0.12746397658E+03  0.89181626206E+02  0.33687762582E+03  0.39157975934E+03  0.12509094837E+03 0.  0.
          5    1    3    3  502    0 -0.85758153144E+02  0.87707753283E+02  0.12349246850E+03  0.17411195534E+03  0.41800000000E+01 0. -1.
         -5    1    3    3    0  502 -0.41705823440E+02  0.14738729232E+01  0.21338515732E+03  0.21746780399E+03  0.41800000000E+01 0. -1.
        -11    1    1    2    0    0 -0.75526441878E+01 -0.24208922983E+02  0.11631695332E+02  0.27900012948E+02  0.00000000000E+00 0.  1.
         11    1    1    2    0    0  0.13501662077E+03 -0.64972703223E+02  0.20238044039E+03  0.25181100592E+03  0.00000000000E+00 0. -1.
</event>
<event>
 7    1  0.2693725E-009  0.1179076E+03  0.7561462E-02  0.1246589E+00
          2   -1    0    0  501    0  0.00000000000E+00  0.00000000000E+00  0.99457853233E+02  0.99457853233E+02  0.00000000000E+00 0. -1.
         -2   -1    0    0    0  501 -0.00000000000E+00 -0.00000000000E+00 -0.25951913445E+03  0.25951913445E+03  0.00000000000E+00 0.  1.
         25    2    1    2    0    0  0.39395824375E+02  0.10855692915E+03 -0.12799859928E+03  0.21299621140E+03  0.12508839597E+03 0.  0.
          5    1    3    3  502    0  0.78532722445E+01  0.48378160352E+02  0.17621740172E+02  0.52250535027E+02  0.41800000000E+01 0. -1.
         -5    1    3    3    0  502  0.31542552130E+02  0.60178768802E+02 -0.14562033946E+03  0.16074567637E+03  0.41800000000E+01 0. -1.
        -11    1    1    2    0    0 -0.39462883910E+02 -0.72897219153E+02  0.17698259455E+02  0.84761737562E+02  0.00000000000E+00 0. -1.
         11    1    1    2    0    0  0.67059535226E-01 -0.35659710000E+02 -0.49760941392E+02  0.61219038726E+02  0.00000000000E+00 0.  1.
</event>
<event>
 7    1  0.2693725E-009  0.1127704E+03  0.7561462E-02  0.1255524E+00
          2   -1    0    0  501    0  0.00000000000E+00  0.00000000000E+00  0.97700001004E+03  0.97700001004E+03  0.00000000000E+00 0. -1.
         -2   -1    0    0    0  501 -0.00000000000E+00 -0.00000000000E+00 -0.21483576360E+02  0.21483576360E+02  0.00000000000E+00 0.  1.
         25    2    1    2    0    0  0.53058399112E+02 -0.59255331273E+02  0.69901734481E+03  0.71456207752E+03  0.12508927324E+03 0.  0.
          5    1    3    3  502    0  0.39087607418E+02 -0.76807824147E+02  0.67822158280E+03  0.68368799220E+03  0.41800000000E+01 0. -1.
         -5    1    3    3    0  502  0.13970791694E+02  0.17552492873E+02  0.20795762016E+02  0.30874085321E+02  0.41800000000E+01 0. -1.
        -11    1    1    2    0    0 -0.70480742141E+01  0.69039868927E+02  0.19149970994E+03  0.20368681292E+03  0.00000000000E+00 0.  1.
         11    1    1    2    0    0 -0.46010324898E+02 -0.97845376532E+01  0.64999378924E+02  0.80234695954E+02  0.00000000000E+00 0. -1.
</event>
<event>
 7    1  0.2693725E-009  0.2134030E+03  0.7561462E-02  0.1138899E+00
         -3   -1    0    0    0  501 -0.00000000000E+00  0.00000000000E+00  0.28362442528E+03  0.28362442528E+03  0.00000000000E+00 0.  1.
          3   -1    0    0  501    0  0.00000000000E+00 -0.00000000000E+00 -0.29498149745E+03  0.29498149745E+03  0.00000000000E+00 0. -1.
         25    2    1    2    0    0 -0.49809742603E+02  0.20411670268E+03  0.16045011030E+03  0.29246485051E+03  0.12508721804E+03 0.  0.
          5    1    3    3  502    0  0.83029144343E-01  0.11007504563E+03  0.13530690714E+02  0.11098231641E+03  0.41800000000E+01 0. -1.
         -5    1    3    3    0  502 -0.49892771747E+02  0.94041657052E+02  0.14691941958E+03  0.18148253410E+03  0.41800000000E+01 0. -1.
        -11    1    1    2    0    0  0.25097236908E+02 -0.99480816863E+02 -0.27562059501E+02  0.10623545241E+03  0.00000000000E+00 0.  1.
         11    1    1    2    0    0  0.24712505695E+02 -0.10463588582E+03 -0.14424512297E+03  0.17990561981E+03  0.00000000000E+00 0. -1.
</event>
<event>
 7    1  0.2693725E-009  0.1263330E+03  0.7561462E-02  0.1233001E+00
         -3   -1    0    0    0  501 -0.00000000000E+00  0.00000000000E+00  0.92636428275E+03  0.92636428275E+03  0.00000000000E+00 0.  1.
          3   -1    0    0  501    0  0.00000000000E+00 -0.00000000000E+00 -0.17494282445E+02  0.17494282445E+02  0.00000000000E+00 0. -1.
         25    2    1    2    0    0  0.40930295908E+02 -0.51658254751E+02  0.52903407616E+03  0.54760386844E+03  0.12509627727E+03 0.  0.
          5    1    3    3  502    0 -0.42649796438E+02 -0.34061693897E+02  0.17354791248E+03  0.18197679647E+03  0.41800000000E+01 0.  1.
         -5    1    3    3    0  502  0.83580092345E+02 -0.17596560854E+02  0.35548616368E+03  0.36562707198E+03  0.41800000000E+01 0.  1.
        -11    1    1    2    0    0 -0.70381023710E+02  0.36911429200E+02  0.25137620923E+03  0.26363979341E+03  0.00000000000E+00 0. -1.
         11    1    1    2    0    0  0.29450727803E+02  0.14746825551E+02  0.12845971491E+03  0.13261490334E+03  0.00000000000E+00 0.  1.
</event>
<event>
 7    1  0.2693725E-009  0.1192606E+03  0.7561462E-02  0.1244322E+00
          1   -1    0    0  501    0  0.00000000000E+00  0.00000000000E+00  0.43129382235E+03  0.43129382235E+03  0.00000000000E+00 0. -1.
         -1   -1    0    0    0  501 -0.00000000000E+00 -0.00000000000E+00 -0.45376953857E+02  0.45376953857E+02  0.00000000000E+00 0.  1.
         25    2    1    2    0    0 -0.43116108305E+01 -0.84561468720E+02  0.16519955357E+03  0.22384692061E+03  0.12508924569E+03 0.  0.
          5    1    3    3  502    0  0.44437385951E+02 -0.44648474525E+02  0.14401574058E+03  0.15724558335E+03  0.41800000000E+01 0. -1.
         -5    1    3    3    0  502 -0.48748996781E+02 -0.39912994195E+02  0.21183812994E+02  0.66601337267E+02  0.41800000000E+01 0. -1.
        -11    1    1    2    0    0 -0.14500580656E+02 -0.88312542253E+01  0.61503055650E+01  0.18057800228E+02  0.00000000000E+00 0.  1.
         11    1    1    2    0    0  0.18812191486E+02  0.93392722945E+02  0.21456700935E+03  0.23476605536E+03  0.00000000000E+00 0. -1.
</event>
<event>
 7    1  0.4219645E-009  0.2803405E+03  0.7561462E-02  0.1095503E+00
          2   -1    0    0  501    0  0.00000000000E+00  0.00000000000E+00  0.42165098513E+03  0.42165098513E+03  0.00000000000E+00 0. -1.
         -2   -1    0    0    0  501 -0.00000000000E+00 -0.00000000000E+00 -0.19727888659E+03  0.19727888659E+03  0.00000000000E+00 0.  1.
         25    2    1    2    0    0 -0.13701289404E+03 -0.22890228865E+03  0.12451550545E+03  0.31987595094E+03  0.12509085502E+03 0.  0.
          5    1    3    3  502    0 -0.30068308945E+02 -0.16694868845E+03  0.86738629565E+02  0.19057027585E+03  0.41800000000E+01 0. -1.
         -5    1    3    3    0  502 -0.10694458510E+03 -0.61953600196E+02  0.37776875885E+02  0.12930567509E+03  0.41800000000E+01 0. -1.
        -11    1    1    2    0    0  0.10479820315E+03  0.15995271762E+03  0.11256316693E+03  0.22189637628E+03  0.00000000000E+00 0. -1.
         11    1    1    2    0    0  0.32214690887E+02  0.68949571031E+02 -0.12706573834E+02  0.77157544498E+02  0.00000000000E+00 0.  1.
</event>
<event>
 7    1  0.2693725E-009  0.9406701E+02  0.7561462E-02  0.1293291E+00
         -1   -1    0    0    0  501 -0.00000000000E+00  0.00000000000E+00  0.14509002136E+03  0.14509002136E+03  0.00000000000E+00 0. -1.
          1   -1    0    0  501    0  0.00000000000E+00 -0.00000000000E+00 -0.88638378265E+02  0.88638378265E+02  0.00000000000E+00 0.  1.
         25    2    1    2    0    0 -0.20081679840E+02 -0.15053083878E+02  0.13219579414E+02  0.12826624084E+03  0.12509037557E+03 0.  0.
          5    1    3    3  502    0 -0.10921379409E+02 -0.70363388154E+02  0.88915201445E+01  0.71880556837E+02  0.41800000000E+01 0.  1.
         -5    1    3    3    0  502 -0.91603004319E+01  0.55310304276E+02  0.43280592698E+01  0.56385684000E+02  0.41800000000E+01 0.  1.
        -11    1    1    2    0    0  0.14488261789E+01  0.33989187907E+02  0.63505637075E+02  0.72043944452E+02  0.00000000000E+00 0. -1.
         11    1    1    2    0    0  0.18632853662E+02 -0.18936104029E+02 -0.20273573393E+02  0.33418214337E+02  0.00000000000E+00 0.  1.
</event>
<event>
 7    1  0.2693725E-009  0.1880485E+03  0.7561462E-02  0.1160233E+00
          2   -1    0    0  501    0  0.00000000000E+00  0.00000000000E+00  0.42736003656E+03  0.42736003656E+03  0.00000000000E+00 0. -1.
         -2   -1    0    0    0  501 -0.00000000000E+00 -0.00000000000E+00 -0.10554522903E+03  0.10554522903E+03  0.00000000000E+00 0.  1.
         25    2    1    2    0    0  0.10176199635E+03  0.12788142139E+03  0.66645092307E+02  0.21632907736E+03  0.12509012569E+03 0.  0.
          5    1    3    3  502    0 -0.20929453279E+02 -0.56055239116E+01 -0.25689719786E+01  0.22215668567E+02  0.41800000000E+01 0. -1.
         -5    1    3    3    0  502  0.12269144963E+03  0.13348694530E+03  0.69214064285E+02  0.19411340879E+03  0.41800000000E+01 0. -1.
        -11    1    1    2    0    0 -0.89620479125E+02 -0.13226427058E+03  0.25790421878E+03  0.30338136662E+03  0.00000000000E+00 0. -1.
         11    1    1    2    0    0 -0.12141517226E+02  0.43828491930E+01 -0.27345035507E+01  0.13194821608E+02  0.00000000000E+00 0.  1.
</event>
<event>
 7    1  0.2693725E-009  0.1135393E+03  0.7561462E-02  0.1254153E+00
          1   -1    0    0  501    0  0.00000000000E+00  0.00000000000E+00  0.10410618238E+03  0.10410618238E+03  0.00000000000E+00 0. -1.
         -1   -1    0    0    0  501 -0.00000000000E+00 -0.00000000000E+00 -0.32394952033E+03  0.32394952033E+03  0.00000000000E+00 0.  1.
         25    2    1    2    0    0 -0.32752121592E+02  0.53796440719E+02 -0.27327972153E+03  0.30707622927E+03  0.12508895188E+03 0.  0.
          5    1    3    3  502    0 -0.73656490023E+02  0.61721681853E+02 -0.16512666539E+03  0.19109979737E+03  0.41800000000E+01 0.  1.
         -5    1    3    3    0  502  0.40904368432E+02 -0.79252411334E+01 -0.10815305614E+03  0.11597643190E+03  0.41800000000E+01 0.  1.
        -11    1    1    2    0    0 -0.18121702387E+02 -0.23948219816E+02 -0.12483696380E+02  0.32523161056E+02  0.00000000000E+00 0.  1.
         11    1    1    2    0    0  0.50873823979E+02 -0.29848220903E+02  0.65920079962E+02  0.88456312378E+02  0.00000000000E+00 0. -1.
</event>
<event>
 7    1  0.2693725E-009  0.1527357E+03  0.7561462E-02  0.1197151E+00
         -2   -1    0    0    0  501 -0.00000000000E+00  0.00000000000E+00  0.35169711571E+02  0.35169711571E+02  0.00000000000E+00 0.  1.
          2   -1    0    0  501    0  0.00000000000E+00 -0.00000000000E+00 -0.77979755810E+03  0.77979755810E+03  0.00000000000E+00 0. -1.
         25    2    1    2    0    0 -0.12202634452E+03  0.20208546483E+02 -0.36642746368E+03  0.40646644701E+03  0.12508825805E+03 0.  0.
          5    1    3    3  502    0 -0.12375473459E+03  0.48927587412E+02 -0.34655501313E+03  0.37125057935E+03  0.41800000000E+01 0. -1.
         -5    1    3    3    0  502  0.17283900759E+01 -0.28719040929E+02 -0.19872450542E+02  0.35215867655E+02  0.41800000000E+01 0. -1.
        -11    1    1    2    0    0  0.78560300854E+02  0.23112028618E+02 -0.13693160814E+03  0.15954984188E+03  0.00000000000E+00 0.  1.
         11    1    1    2    0    0  0.43466043661E+02 -0.43320575101E+02 -0.24126877472E+03  0.24895098079E+03  0.00000000000E+00 0. -1.
</event>
<event>
 7    1  0.2693725E-009  0.1407118E+03  0.7561462E-02  0.1212374E+00
          2   -1    0    0  501    0  0.00000000000E+00  0.00000000000E+00  0.97915323057E+03  0.97915323057E+03  0.00000000000E+00 0. -1.
         -2   -1    0    0    0  501 -0.00000000000E+00 -0.00000000000E+00 -0.22353405124E+02  0.22353405124E+02  0.00000000000E+00 0.  1.
         25    2    1    2    0    0 -0.99995161647E+02  0.13590858236E+02  0.54234323957E+03  0.56565684149E+03  0.12509088310E+03 0.  0.
          5    1    3    3  502    0 -0.47549277113E+02  0.59820124860E+02  0.39712398223E+03  0.40443084793E+03  0.41800000000E+01 0. -1.
         -5    1    3    3    0  502 -0.52445884534E+02 -0.46229266624E+02  0.14521925734E+03  0.16122599356E+03  0.41800000000E+01 0. -1.
        -11    1    1    2    0    0  0.10881532168E+03  0.10384871856E+02  0.33860910533E+03  0.35581560675E+03  0.00000000000E+00 0. -1.
         11    1    1    2    0    0 -0.88201600342E+01 -0.23975730092E+02  0.75847480546E+02  0.80034187455E+02  0.00000000000E+00 0.  1.
</event>
<event>
 7    1  0.2693725E-009  0.1975283E+03  0.7561462E-02  0.1151841E+00
         -2   -1    0    0    0  501 -0.00000000000E+00  0.00000000000E+00  0.27349939511E+03  0.27349939511E+03  0.00000000000E+00 0. -1.
          2   -1    0    0  501    0  0.00000000000E+00 -0.00000000000E+00 -0.17373744284E+03  0.17373744284E+03  0.00000000000E+00 0.  1.
         25    2    1    2    0    0 -0.17595682510E+03  0.18694331302E+02  0.11432496471E+03  0.24500571148E+03  0.12508924327E+03 0.  0.
          5    1    3    3  502    0 -0.85099378060E+02  0.71209016586E+02  0.68080103091E+02  0.13024976402E+03  0.41800000000E+01 0. -1.
         -5    1    3    3    0  502 -0.90857447039E+02 -0.52514685283E+02  0.46244861619E+02  0.11475594747E+03  0.41800000000E+01 0. -1.
        -11    1    1    2    0    0  0.14586257949E+03 -0.50568847405E+01 -0.49528143067E+02  0.15412495299E+03  0.00000000000E+00 0.  1.
         11    1    1    2    0    0  0.30094245610E+02 -0.13637446562E+02  0.34965130627E+02  0.48106173485E+02  0.00000000000E+00 0. -1.
</event>
<event>
 7    1  0.2693725E-009  0.1109888E+03  0.7561462E-02  0.1258750E+00
          2   -1    0    0  501    0  0.00000000000E+00  0.00000000000E+00  0.48709042032E+03  0.48709042032E+03  0.00000000000E+00 0. -1.
         -2   -1    0    0    0  501 -0.00000000000E+00 -0.00000000000E+00 -0.38239346347E+02  0.38239346347E+02  0.00000000000E+00 0.  1.
         25    2    1    2    0    0 -0.26320168912E+02  0.68601854189E+02  0.31924083826E+03  0.35065956401E+03  0.12509377013E+03 0.  0.
          5    1    3    3  502    0  0.20670112571E+02 -0.13715469652E+02  0.97957858517E+01  0.26996249405E+02  0.41800000000E+01 0.  1.
         -5    1    3    3    0  502 -0.46990281484E+02  0.82317323841E+02  0.30944505241E+03  0.32366331460E+03  0.41800000000E+01 0.  1.
        -11    1    1    2    0    0  0.44266212207E+02 -0.71171853981E+02  0.13202327459E+03  0.15638118613E+03  0.00000000000E+00 0. -1.
         11    1    1    2    0    0 -0.17946043295E+02  0.25699997916E+01 -0.24130388807E+01  0.18289016527E+02  0.00000000000E+00 0.  1.
</event>
<event>
 7    1  0.2693725E-009  0.7821372E+02  0.7561462E-02  0.1334198E+00
          1   -1    0    0  501    0  0.00000000000E+00  0.00000000000E+00  0.16706531833E+03  0.16706531833E+03  0.00000000000E+00 0. -1.
         -1   -1    0    0    0  501 -0.00000000000E+00 -0.00000000000E+00 -0.79746412290E+02  0.79746412290E+02  0.00000000000E+00 0.  1.
         25    2    1    2    0    0  0.15802108379E+02  0.15456134694E+02  0.85827417809E+02  0.15330101353E+03  0.12508499659E+03 0.  0.
          5    1    3    3  502    0 -0.32799912670E+02 -0.18978632246E+01  0.95098913392E+02  0.10070110170E+03  0.41800000000E+01 0. -1.
         -5    1    3    3    0  502  0.48602021049E+02  0.17353997919E+02 -0.92714955835E+01  0.52599911827E+02  0.41800000000E+01 0. -1.
        -11    1    1    2    0    0  0.22657214513E+02 -0.23059418270E+02 -0.29323650639E+02  0.43645877552E+02  0.00000000000E+00 0.  1.
         11    1    1    2    0    0 -0.38459322892E+02  0.76032835755E+01  0.30815138869E+02  0.49864839536E+02  0.00000000000E+00 0. -1.
</event>
<event>
 7    1  0.2693725E-009  0.1196080E+03  0.7561462E-02  0.1243745E+00
         -1   -1    0    0    0  501 -0.00000000000E+00  0.00000000000E+00  0.43861148776E+03  0.43861148776E+03  0.00000000000E+00 0.  1.
          1   -1    0    0  501    0  0.00000000000E+00 -0.00000000000E+00 -0.32946522651E+02  0.32946522651E+02  0.00000000000E+00 0. -1.
         25    2    1    2    0    0 -0.56256405300E+01  0.52719718014E+02  0.24810433308E+03  0.28286748031E+03  0.12508890770E+03 0.  0.
          5    1    3    3  502    0  0.31256327180E+02  0.82449123859E+02  0.16410622495E+03  0.18634146474E+03  0.41800000000E+01 0. -1.
         -5    1    3    3    0  502 -0.36881967710E+02 -0.29729405845E+02  0.83998108125E+02  0.96526015574E+02  0.41800000000E+01 0. -1.
        -11    1    1    2    0    0  0.44073613649E+02 -0.47141556213E+02  0.89829590780E+02  0.11060816029E+03  0.00000000000E+00 0. -1.
         11    1    1    2    0    0 -0.38447973119E+02 -0.55781618013E+01  0.67731041256E+02  0.78082369813E+02  0.00000000000E+00 0.  1.
</event>
<event>
 7    1  0.2693725E-009  0.1086429E+03  0.7561462E-02  0.1263104E+00
         -1   -1    0    0    0  501 -0.00000000000E+00  0.00000000000E+00  0.25699867288E+02  0.25699867288E+02  0.00000000000E+00 0.  1.
          1   -1    0    0  501    0  0.00000000000E+00 -0.00000000000E+00 -0.79926166370E+03  0.79926166370E+03  0.00000000000E+00 0. -1.
         25    2    1    2    0    0 -0.64442611123E+02 -0.59665850362E+02 -0.31776848279E+03  0.35261577615E+03  0.12509281796E+03 0.  0.
          5    1    3    3  502    0 -0.11260922140E+02  0.16302425276E+01  0.95058108088E+01  0.15404508992E+02  0.41800000000E+01 0. -1.
         -5    1    3    3    0  502 -0.53181688983E+02 -0.61296092890E+02 -0.32727429360E+03  0.33721126716E+03  0.41800000000E+01 0. -1.
        -11    1    1    2    0    0  0.85019076406E+02  0.58683508711E+02 -0.37532321153E+03  0.38928076071E+03  0.00000000000E+00 0.  1.
         11    1    1    2    0    0 -0.20576465283E+02  0.98234165146E+00 -0.80470102096E+02  0.83064994131E+02  0.00000000000E+00 0. -1.
</event>
<event>
 7    1  0.2693725E-009  0.5894574E+02  0.7561462E-02  0.1402310E+00
         -1   -1    0    0    0  501 -0.00000000000E+00  0.00000000000E+00  0.23787871373E+03  0.23787871373E+03  0.00000000000E+00 0.  1.
          1   -1    0    0  501    0  0.00000000000E+00 -0.00000000000E+00 -0.61481642310E+02  0.61481642310E+02  0.00000000000E+00 0. -1.
         25    2    1    2    0    0 -0.25675999025E+02  0.54673147302E+01  0.12132538908E+03  0.17623095575E+03  0.12509337022E+03 0.  0.
          5    1    3    3  502    0 -0.12852356359E+02 -0.65624881672E+00 -0.25389606332E+02  0.28770092738E+02  0.41800000000E+01 0.  1.
         -5    1    3    3    0  502 -0.12823642666E+02  0.61235635469E+01  0.14671499542E+03  0.14746086302E+03  0.41800000000E+01 0.  1.
        -11    1    1    2    0    0  0.56838292830E+02 -0.11014442942E+02  0.67674622322E+02  0.89060451333E+02  0.00000000000E+00 0.  1.
         11    1    1    2    0    0 -0.31162293805E+02  0.55471282119E+01 -0.12602939984E+02  0.34068948954E+02  0.00000000000E+00 0. -1.
</event>
<event>
 7    1  0.2693725E-009  0.1998290E+03  0.7561462E-02  0.1149883E+00
          2   -1    0    0  501    0  0.00000000000E+00  0.00000000000E+00  0.37614223562E+03  0.37614223562E+03  0.00000000000E+00 0. -1.
         -2   -1    0    0    0  501 -0.00000000000E+00 -0.00000000000E+00 -0.11631303689E+03  0.11631303689E+03  0.00000000000E+00 0.  1.
         25    2    1    2    0    0 -0.55221077552E+02 -0.16903978226E+03  0.11296587400E+03  0.24501410648E+03  0.12508720275E+03 0.  0.
          5    1    3    3  502    0 -0.51391594399E+02 -0.77724752929E+01  0.86260759927E+01  0.52852520603E+02  0.41800000000E+01 0. -1.
         -5    1    3    3    0  502 -0.38294831527E+01 -0.16126730697E+03  0.10433979800E+03  0.19216158588E+03  0.41800000000E+01 0. -1.
        -11    1    1    2    0    0  0.32211996695E+02  0.26356363483E+02  0.75601065845E+02  0.86300589708E+02  0.00000000000E+00 0. -1.
         11    1    1    2    0    0  0.23009080857E+02  0.14268341878E+03  0.71262258890E+02  0.16114057633E+03  0.00000000000E+00 0.  1.
</event>
<event>
 7    1  0.2693725E-009  0.7715094E+02  0.7561462E-02  0.1337337E+00
         -2   -1    0    0    0  501 -0.00000000000E+00  0.00000000000E+00  0.13633541543E+03  0.13633541543E+03  0.00000000000E+00 0.  1.
          2   -1    0    0  501    0  0.00000000000E+00 -0.00000000000E+00 -0.73244601928E+02  0.73244601928E+02  0.00000000000E+00 0. -1.
         25    2    1    2    0    0 -0.38037003814E+01  0.20317699900E+02  0.72003136594E+02  0.14580041685E+03  0.12508410294E+03 0.  0.
          5    1    3    3  502    0  0.32191030810E+02  0.46202851094E+02 -0.51677814189E+01  0.56702242272E+02  0.41800000000E+01 0. -1.
         -5    1    3    3    0  502 -0.35994731192E+02 -0.25885151194E+02  0.77170918013E+02  0.89098174577E+02  0.41800000000E+01 0. -1.
        -11    1    1    2    0    0  0.57271215358E+01 -0.36530508006E+02 -0.21848620672E+02  0.42949274284E+02  0.00000000000E+00 0. -1.
         11    1    1    2    0    0 -0.19234211544E+01  0.16212808106E+02  0.12936297579E+02  0.20830326226E+02  0.00000000000E+00 0.  1.
</event>
<event>
 7    1  0.2693725E-009  0.1092824E+03  0.7561462E-02  0.1261905E+00
          2   -1    0    0  501    0  0.00000000000E+00  0.00000000000E+00  0.15265735457E+03  0.15265735457E+03  0.00000000000E+00 0.  1.
         -2   -1    0    0    0  501 -0.00000000000E+00 -0.00000000000E+00 -0.14432178707E+03  0.14432178707E+03  0.00000000000E+00 0. -1.
         25    2    1    2    0    0 -0.27113509054E+02 -0.57154919378E+02  0.82686156768E+02  0.16274316226E+03  0.12508600705E+03 0.  0.
          5    1    3    3  502    0 -0.62754639785E+02 -0.31221930042E+02  0.14580292945E+01  0.70232129254E+02  0.41800000000E+01 0.  1.
         -5    1    3    3    0  502  0.35641130731E+02 -0.25932989336E+02  0.81228127474E+02  0.92511033010E+02  0.41800000000E+01 0.  1.
        -11    1    1    2    0    0 -0.23730313538E+02  0.46382124334E+02 -0.12746238258E+02  0.53636702248E+02  0.00000000000E+00 0. -1.
         11    1    1    2    0    0  0.50843822592E+02  0.10772795044E+02 -0.61604351016E+02  0.80599277124E+02  0.00000000000E+00 0.  1.
</event>
<event>
 7    1  0.2693725E-009  0.1182503E+03  0.7561462E-02  0.1246012E+00
          2   -1    0    0  501    0  0.00000000000E+00  0.00000000000E+00  0.24693224858E+03  0.24693224858E+03  0.00000000000E+00 0. -1.
         -2   -1    0    0    0  501 -0.00000000000E+00 -0.00000000000E+00 -0.61838991271E+02  0.61838991271E+02  0.00000000000E+00 0.  1.
         25    2    1    2    0    0  0.51168040939E+02  0.18678773343E+00  0.13828347685E+03  0.19335896454E+03  0.12508863216E+03 0.  0.
          5    1    3    3  502    0  0.91173838161E+02 -0.62037946333E+01  0.75949608211E+02  0.11889899588E+03  0.41800000000E+01 0.  1.
         -5    1    3    3    0  502 -0.40005797221E+02  0.63905823667E+01  0.62333868639E+02  0.74459968666E+02  0.41800000000E+01 0.  1.
        -11    1    1    2    0    0  0.10973131530E+02 -0.32464042953E+02  0.23731236554E+02  0.41683273490E+02  0.00000000000E+00 0.  1.
         11    1    1    2    0    0 -0.62141172470E+02  0.32277255219E+02  0.23078543904E+02  0.73729001818E+02  0.00000000000E+00 0. -1.
</event>
<event>
 7    1  0.2693725E-009  0.1981714E+03  0.7561462E-02  0.1151291E+00
          3   -1    0    0  501    0  0.00000000000E+00  0.00000000000E+00  0.13225164135E+03  0.13225164135E+03  0.00000000000E+00 0. -1.
         -3   -1    0    0    0  501 -0.00000000000E+00 -0.00000000000E+00 -0.30600588992E+03  0.30600588992E+03  0.00000000000E+00 0.  1.
         25    2    1    2    0    0  0.14396806741E+03 -0.88339357920E+02 -0.99433522001E+02  0.23252105082E+03  0.12509343382E+03 0.  0.
          5    1    3    3  502    0  0.12585527299E+03 -0.11969137004E+03 -0.81477901662E+02  0.19188979822E+03  0.41800000000E+01 0. -1.
         -5    1    3    3    0  502  0.18112794419E+02  0.31352012122E+02 -0.17955620338E+02  0.40631252596E+02  0.41800000000E+01 0. -1.
        -11    1    1    2    0    0 -0.11813523891E+03  0.10276162564E+03 -0.42403268798E+02  0.16221566996E+03  0.00000000000E+00 0. -1.
         11    1    1    2    0    0 -0.25832828502E+02 -0.14422267720E+02 -0.31917457777E+02  0.43520810488E+02  0.00000000000E+00 0.  1.
</event>
<event>
 7    1  0.2693725E-009  0.8252207E+02  0.7561462E-02  0.1322043E+00
         -2   -1    0    0    0  501 -0.00000000000E+00  0.00000000000E+00  0.27969293620E+03  0.27969293620E+03  0.00000000000E+00 0.  1.
          2   -1    0    0  501    0  0.00000000000E+00 -0.00000000000E+00 -0.48078769253E+02  0.48078769253E+02  0.00000000000E+00 0. -1.
         25    2    1    2    0    0 -0.30870067142E+01 -0.81826480613E+01  0.72442221149E+02  0.14481508443E+03  0.12508816065E+03 0.  0.
          5    1    3    3  502    0 -0.48897990456E+02 -0.12214569221E+02 -0.88315752149E+01  0.51338857532E+02  0.41800000000E+01 0.  1.
         -5    1    3    3    0  502  0.45810983742E+02  0.40319211593E+01  0.81273796363E+02  0.93476226898E+02  0.41800000000E+01 0.  1.
        -11    1    1    2    0    0  0.53286721505E+01 -0.29785654681E+02  0.13393631997E+03  0.13731175397E+03  0.00000000000E+00 0.  1.
         11    1    1    2    0    0 -0.22416654363E+01  0.37968302743E+02  0.25235625826E+02  0.45644867049E+02  0.00000000000E+00 0. -1.
</event>
<event>
 7    1  0.2693725E-009  0.1779734E+03  0.7561462E-02  0.1169779E+00
         -2   -1    0    0    0  501 -0.00000000000E+00  0.00000000000E+00  0.69497097619E+02  0.69497097619E+02  0.00000000000E+00 0.  1.
          2   -1    0    0  501    0  0.00000000000E+00 -0.00000000000E+00 -0.58502052609E+03  0.58502052609E+03  0.00000000000E+00 0. -1.
         25    2    1    2    0    0  0.10147634441E+03  0.11788443792E+03 -0.16166503257E+03  0.25686146043E+03  0.12509211775E+03 0.  0.
          5    1    3    3  502    0  0.12981950480E+03  0.86798464023E+02 -0.13782916347E+03  0.20833009357E+03  0.41800000000E+01 0. -1.
         -5    1    3    3    0  502 -0.28343160391E+02  0.31085973899E+02 -0.23835869100E+02  0.48531366867E+02  0.41800000000E+01 0. -1.
        -11    1    1    2    0    0 -0.74544387399E+02 -0.68680365212E+02 -0.31089392813E+03  0.32699983610E+03  0.00000000000E+00 0. -1.
         11    1    1    2    0    0 -0.26931957011E+02 -0.49204072710E+02 -0.42964467777E+02  0.70656327184E+02  0.00000000000E+00 0.  1.
</event>
<event>
 7    1  0.2693725E-009  0.9157332E+02  0.7561462E-02  0.1299086E+00
         -2   -1    0    0    0  501 -0.00000000000E+00  0.00000000000E+00  0.66287295788E+02  0.66287295788E+02  0.00000000000E+00 0.  1.
          2   -1    0    0  501    0  0.00000000000E+00 -0.00000000000E+00 -0.20294974258E+03  0.20294974258E+03  0.00000000000E+00 0. -1.
         25    2    1    2    0    0 -0.21012542057E+02  0.49258407899E+01 -0.35522007563E+02  0.13181197329E+03  0.12508713943E+03 0.  0.
          5    1    3    3  502    0  0.44938242962E+02  0.32054725429E+02 -0.18617792207E+02  0.58404158153E+02  0.41800000000E+01 0. -1.
         -5    1    3    3    0  502 -0.65950785020E+02 -0.27128884639E+02 -0.16904215355E+02  0.73407815138E+02  0.41800000000E+01 0. -1.
        -11    1    1    2    0    0  0.95871638967E+01  0.23682237392E+02  0.57465767837E+01  0.26187501297E+02  0.00000000000E+00 0.  1.
         11    1    1    2    0    0  0.11425378161E+02 -0.28608078182E+02 -0.10688701601E+03  0.11123756378E+03  0.00000000000E+00 0. -1.
</event>
<event>
 7    1  0.2693725E-009  0.1046348E+03  0.7561462E-02  0.1270841E+00
         -1   -1    0    0    0  501 -0.00000000000E+00  0.00000000000E+00  0.45758947900E+02  0.45758947900E+02  0.00000000000E+00 0.  1.
          1   -1    0    0  501    0  0.00000000000E+00 -0.00000000000E+00 -0.43134238047E+03  0.43134238047E+03  0.00000000000E+00 0. -1.
         25    2    1    2    0    0  0.48543148588E+02  0.67171429513E+02 -0.15242799146E+03  0.21389439933E+03  0.12509229900E+03 0.  0.
          5    1    3    3  502    0  0.23350444907E+02  0.64934854622E+02 -0.16952636590E+03  0.18308041883E+03  0.41800000000E+01 0.  1.
         -5    1    3    3    0  502  0.25192703681E+02  0.22365748910E+01  0.17098374445E+02  0.30813980506E+02  0.41800000000E+01 0.  1.
        -11    1    1    2    0    0 -0.15690378727E+02 -0.78268907371E+02 -0.19952494125E+03  0.21490093537E+03  0.00000000000E+00 0. -1.
         11    1    1    2    0    0 -0.32852769861E+02  0.11097477858E+02 -0.33630499867E+02  0.48305993662E+02  0.00000000000E+00 0.  1.
</event>
<event>
 7    1  0.2693725E-009  0.2823395E+03  0.7561462E-02  0.1094418E+00
         -2   -1    0    0    0  501 -0.00000000000E+00  0.00000000000E+00  0.47601255923E+02  0.47601255923E+02  0.00000000000E+00 0. -1.
          2   -1    0    0  501    0  0.00000000000E+00 -0.00000000000E+00 -0.17851244540E+04  0.17851244540E+04  0.00000000000E+00 0.  1.
         25    2    1    2    0    0 -0.25673888847E+03 -0.63781614112E+02 -0.10614245697E+04  0.11010231652E+04  0.12508773693E+03 0.  0.
          5    1    3    3  502    0 -0.44648289345E+02 -0.57822237706E+02 -0.39184122993E+03  0.39861498064E+03  0.41800000000E+01 0.  1.
         -5    1    3    3    0  502 -0.21209059913E+03 -0.59593764054E+01 -0.66958333977E+03  0.70240818453E+03  0.41800000000E+01 0.  1.
        -11    1    1    2    0    0  0.86496429931E+02  0.66373522461E+02 -0.24298422249E+03  0.26632388037E+03  0.00000000000E+00 0. -1.
         11    1    1    2    0    0  0.17024245854E+03 -0.25919083493E+01 -0.43311440593E+03  0.46537866442E+03  0.00000000000E+00 0.  1.
</event>
<event>
 7    1  0.2693725E-009  0.9210419E+02  0.7561462E-02  0.1297835E+00
         -2   -1    0    0    0  501 -0.00000000000E+00  0.00000000000E+00  0.43612949708E+02  0.43612949708E+02  0.00000000000E+00 0.  1.
          2   -1    0    0  501    0  0.00000000000E+00 -0.00000000000E+00 -0.27885094220E+03  0.27885094220E+03  0.00000000000E+00 0. -1.
         25    2    1    2    0    0 -0.15918906505E+02 -0.68922975170E+01 -0.10633436827E+03  0.16509046158E+03  0.12508775832E+03 0.  0.
          5    1    3    3  502    0  0.95946795809E+01  0.39489406025E+02  0.55660420577E+01  0.41230138111E+02  0.41800000000E+01 0.  1.
         -5    1    3    3    0  502 -0.25513586086E+02 -0.46381703542E+02 -0.11190041033E+03  0.12386032347E+03  0.41800000000E+01 0.  1.
        -11    1    1    2    0    0  0.50550565383E+02 -0.10302343183E+02 -0.71891541274E+02  0.88486674942E+02  0.00000000000E+00 0. -1.
         11    1    1    2    0    0 -0.34631658878E+02  0.17194640700E+02 -0.57012082939E+02  0.68886755378E+02  0.00000000000E+00 0.  1.
</event>
<event>
 7    1  0.2693725E-009  0.3549157E+03  0.7561462E-02  0.1060615E+00
         -1   -1    0    0    0  501 -0.00000000000E+00  0.00000000000E+00  0.40006944970E+02  0.40006944970E+02  0.00000000000E+00 0.  1.
          1   -1    0    0  501    0  0.00000000000E+00 -0.00000000000E+00 -0.33588485620E+04  0.33588485620E+04  0.00000000000E+00 0. -1.
         25    2    1    2    0    0  0.34615457556E+03 -0.42661879911E+02 -0.17590555093E+04  0.17976560078E+04  0.12509121182E+03 0.  0.
          5    1    3    3  502    0  0.88142615877E+02 -0.25839335413E+02 -0.76539690950E+03  0.77089992441E+03  0.41800000000E+01 0.  1.
         -5    1    3    3    0  502  0.25801195968E+03 -0.16822544499E+02 -0.99365859980E+03  0.10267560834E+04  0.41800000000E+01 0.  1.
        -11    1    1    2    0    0 -0.71825732823E+02  0.45357749406E+02 -0.29411947742E+03  0.30614135350E+03  0.00000000000E+00 0.  1.
         11    1    1    2    0    0 -0.27432884274E+03 -0.26958694942E+01 -0.12656666303E+04  0.12950581457E+04  0.00000000000E+00 0. -1.
</event>
<event>
 7    1  0.2693725E-009  0.6162300E+02  0.7561462E-02  0.1391144E+00
         -1   -1    0    0    0  501 -0.00000000000E+00  0.00000000000E+00  0.33510051580E+02  0.33510051580E+02  0.00000000000E+00 0.  1.
          1   -1    0    0  501    0  0.00000000000E+00 -0.00000000000E+00 -0.36142400207E+03  0.36142400207E+03  0.00000000000E+00 0. -1.
         25    2    1    2    0    0  0.16058461666E+01 -0.18499940986E+02 -0.20583529339E+03  0.24157628833E+03  0.12508440559E+03 0.  0.
          5    1    3    3  502    0 -0.45038668513E+01  0.21807665924E+02 -0.19868839123E+03  0.19997601936E+03  0.41800000000E+01 0. -1.
         -5    1    3    3    0  502  0.61097130179E+01 -0.40307606910E+02 -0.71469021569E+01  0.41600268970E+02  0.41800000000E+01 0. -1.
        -11    1    1    2    0    0  0.17534167039E+02 -0.13629955118E+02 -0.11260982341E+03  0.11477889622E+03  0.00000000000E+00 0. -1.
         11    1    1    2    0    0 -0.19140013205E+02  0.32129896104E+02 -0.94688336955E+01  0.38578869096E+02  0.00000000000E+00 0.  1.
</event>
<event>
 7    1  0.2693725E-009  0.8660453E+02  0.7561462E-02  0.1311289E+00
          2   -1    0    0  501    0  0.00000000000E+00  0.00000000000E+00  0.42383363032E+03  0.42383363032E+03  0.00000000000E+00 0. -1.
         -2   -1    0    0    0  501 -0.00000000000E+00 -0.00000000000E+00 -0.39047637331E+02  0.39047637331E+02  0.00000000000E+00 0.  1.
         25    2    1    2    0    0 -0.27409588328E+02  0.42944592865E+02  0.29035033577E+03  0.32022940988E+03  0.12509210159E+03 0.  0.
          5    1    3    3  502    0 -0.30950235480E+02  0.95669543983E+01  0.51940388713E+01  0.33074070395E+02  0.41800000000E+01 0. -1.
         -5    1    3    3    0  502  0.35406471520E+01  0.33377638466E+02  0.28515629690E+03  0.28715533948E+03  0.41800000000E+01 0. -1.
        -11    1    1    2    0    0  0.36072176965E+02 -0.69763727557E+02  0.73230575027E+02  0.10738201317E+03  0.00000000000E+00 0.  1.
         11    1    1    2    0    0 -0.86625886376E+01  0.26819134692E+02  0.21205082191E+02  0.35269844603E+02  0.00000000000E+00 0. -1.
</event>
<event>
 7    1  0.2693725E-009  0.1263339E+03  0.7561462E-02  0.1232999E+00
         -2   -1    0    0    0  501 -0.00000000000E+00  0.00000000000E+00  0.67083129937E+02  0.67083129937E+02  0.00000000000E+00 0.  1.
          2   -1    0    0  501    0  0.00000000000E+00 -0.00000000000E+00 -0.41081609004E+03  0.41081609004E+03  0.00000000000E+00 0. -1.
         25    2    1    2    0    0 -0.14551594459E+02  0.67619162512E+02 -0.33315509723E+03  0.36252381315E+03  0.12508835379E+03 0.  0.
          5    1    3    3  502    0  0.53910471680E+02  0.38557092828E+02 -0.12687294362E+03  0.14320336793E+03  0.41800000000E+01 0. -1.
         -5    1    3    3    0  502 -0.68462066139E+02  0.29062069684E+02 -0.20628215361E+03  0.21932044522E+03  0.41800000000E+01 0. -1.
        -11    1    1    2    0    0 -0.18395671577E+02 -0.75648001677E+02  0.50914233378E+01  0.78018866194E+02  0.00000000000E+00 0.  1.
         11    1    1    2    0    0  0.32947266036E+02  0.80288391655E+01 -0.15669286214E+02  0.37356540633E+02  0.00000000000E+00 0. -1.
</event>
<event>
 7    1  0.2693725E-009  0.1410949E+03  0.7561462E-02  0.1211863E+00
          2   -1    0    0  501    0  0.00000000000E+00  0.00000000000E+00  0.16428056596E+04  0.16428056596E+04  0.00000000000E+00 0. -1.
         -2   -1    0    0    0  501 -0.00000000000E+00 -0.00000000000E+00 -0.15055937567E+02  0.15055937567E+02  0.00000000000E+00 0.  1.
         25    2    1    2    0    0 -0.27281173791E+01  0.10017252804E+03  0.11419108521E+04  0.11531043199E+04  0.12508877008E+03 0.  0.
          5    1    3    3  502    0 -0.53234583368E+02  0.67115351500E+02  0.88582288800E+03  0.88996519740E+03  0.41800000000E+01 0. -1.
         -5    1    3    3    0  502  0.50506465988E+02  0.33057176539E+02  0.25608796407E+03  0.26313912246E+03  0.41800000000E+01 0. -1.
        -11    1    1    2    0    0  0.39877200763E+02 -0.88347539283E+02  0.31769450534E+03  0.33215249143E+03  0.00000000000E+00 0.  1.
         11    1    1    2    0    0 -0.37149083384E+02 -0.11824988755E+02  0.16814436464E+03  0.17260478590E+03  0.00000000000E+00 0. -1.
</event>
<event>
 7    1  0.2693725E-009  0.1558156E+03  0.7561462E-02  0.1193504E+00
          2   -1    0    0  501    0  0.00000000000E+00  0.00000000000E+00  0.17128058889E+04  0.17128058889E+04  0.00000000000E+00 0.  1.
         -2   -1    0    0    0  501 -0.00000000000E+00 -0.00000000000E+00 -0.62460457316E+02  0.62460457316E+02  0.00000000000E+00 0. -1.
         25    2    1    2    0    0 -0.30847370193E+02 -0.14974131851E+03  0.15653269881E+04  0.15777421617E+04  0.12509087222E+03 0.  0.
          5    1    3    3  502    0 -0.54683049145E+01 -0.33949030232E+02  0.74007926749E+02  0.81713429949E+02  0.41800000000E+01 0. -1.
         -5    1    3    3    0  502 -0.25379065278E+02 -0.11579228828E+03  0.14913190613E+04  0.14960287317E+04  0.41800000000E+01 0. -1.
        -11    1    1    2    0    0 -0.71601437492E+01  0.66317969029E+02  0.82130417772E+02  0.10580522765E+03  0.00000000000E+00 0.  1.
         11    1    1    2    0    0  0.38007513942E+02  0.83423349480E+02  0.28880256700E+01  0.91718956856E+02  0.00000000000E+00 0. -1.
</event>
<event>
 7    1  0.2693725E-009  0.6993381E+02  0.7561462E-02  0.1360318E+00
          2   -1    0    0  501    0  0.00000000000E+00  0.00000000000E+00  0.29172579260E+03  0.29172579260E+03  0.00000000000E+00 0. -1.
         -2   -1    0    0    0  501 -0.00000000000E+00 -0.00000000000E+00 -0.69767790938E+02  0.69767790938E+02  0.00000000000E+00 0.  1.
         25    2    1    2    0    0 -0.56607973521E+02  0.35762973415E+02  0.19854392649E+03  0.24402912556E+03  0.12508825062E+03 0.  0.
          5    1    3    3  502    0 -0.43636197712E+02  0.36390442873E+02  0.13587569399E+02  0.58570269979E+02  0.41800000000E+01 0.  1.
         -5    1    3    3    0  502 -0.12971775809E+02 -0.62746945827E+00  0.18495635709E+03  0.18545885558E+03  0.41800000000E+01 0.  1.
        -11    1    1    2    0    0  0.35897180449E+02 -0.32228515771E+02  0.58955333529E+02  0.76177530444E+02  0.00000000000E+00 0. -1.
         11    1    1    2    0    0  0.20710793072E+02 -0.35344576443E+01 -0.35541258351E+02  0.41286927540E+02  0.00000000000E+00 0.  1.
</event>
<event>
 7    1  0.2693725E-009  0.1173853E+03  0.7561462E-02  0.1247474E+00
          2   -1    0    0  501    0  0.00000000000E+00  0.00000000000E+00  0.14503394050E+04  0.14503394050E+04  0.00000000000E+00 0. -1.
         -2   -1    0    0    0  501 -0.00000000000E+00 -0.00000000000E+00 -0.23736904133E+02  0.23736904133E+02  0.00000000000E+00 0.  1.
         25    2    1    2    0    0  0.10131453216E+03 -0.10155633096E+01  0.12033274711E+04  0.12140470446E+04  0.12509019949E+03 0.  0.
          5    1    3    3  502    0  0.33383972357E+02 -0.24095721061E+01  0.61095955146E+02  0.69788851426E+02  0.41800000000E+01 0. -1.
         -5    1    3    3    0  502  0.67930559807E+02  0.13940087965E+01  0.11422315160E+04  0.11442581932E+04  0.41800000000E+01 0. -1.
        -11    1    1    2    0    0 -0.82056350729E+02 -0.37259555204E+02  0.14281098053E+03  0.16886827799E+03  0.00000000000E+00 0. -1.
         11    1    1    2    0    0 -0.19258181435E+02  0.38275118513E+02  0.80464049270E+02  0.91160986580E+02  0.00000000000E+00 0.  1.
</event>
<event>
 7    1  0.2693725E-009  0.1093375E+03  0.7561462E-02  0.1261802E+00
          1   -1    0    0  501    0  0.00000000000E+00  0.00000000000E+00  0.12616930943E+03  0.12616930943E+03  0.00000000000E+00 0. -1.
         -1   -1    0    0    0  501 -0.00000000000E+00 -0.00000000000E+00 -0.12006648137E+03  0.12006648137E+03  0.00000000000E+00 0.  1.
         25    2    1    2    0    0 -0.53266782418E+02 -0.22149475410E+02  0.13265936055E+01  0.13775763715E+03  0.12508979723E+03 0.  0.
          5    1    3    3  502    0 -0.92295676884E+02  0.53264702023E+00  0.21244665273E+01  0.92416240144E+02  0.41800000000E+01 0. -1.
         -5    1    3    3    0  502  0.39028894465E+02 -0.22682122430E+02 -0.79787292173E+00  0.45341397004E+02  0.41800000000E+01 0. -1.
        -11    1    1    2    0    0  0.20330868013E+02 -0.19282449746E+02  0.37075526038E+02  0.46473128724E+02  0.00000000000E+00 0. -1.
         11    1    1    2    0    0  0.32935914405E+02  0.41431925155E+02 -0.32299291589E+02  0.62005024933E+02  0.00000000000E+00 0.  1.
</event>
<event>
 7    1  0.2693725E-009  0.3491472E+03  0.7561462E-02  0.1062966E+00
         -1   -1    0    0    0  501 -0.00000000000E+00  0.00000000000E+00  0.14812695208E+04  0.14812695208E+04  0.00000000000E+00 0.  1.
          1   -1    0    0  501    0  0.00000000000E+00 -0.00000000000E+00 -0.84929489966E+02  0.84929489966E+02  0.00000000000E+00 0. -1.
         25    2    1    2    0    0  0.16643537329E+03 -0.29056819491E+03  0.61732522724E+03  0.71335083284E+03  0.12509342573E+03 0.  0.
          5    1    3    3  502    0  0.88583633842E+02 -0.25374335219E+03  0.50103318559E+03  0.56858110629E+03  0.41800000000E+01 0.  1.
         -5    1    3    3    0  502  0.77851739451E+02 -0.36824842723E+02  0.11629204165E+03  0.14476972656E+03  0.41800000000E+01 0.  1.
        -11    1    1    2    0    0 -0.76531737497E+02  0.20636475231E+03  0.55775302395E+03  0.59960983445E+03  0.00000000000E+00 0.  1.
         11    1    1    2    0    0 -0.89903635796E+02  0.84203442598E+02  0.22126177969E+03  0.25323834351E+03  0.00000000000E+00 0. -1.
</event>
<event>
 7    1  0.2693725E-009  0.1060807E+03  0.7561462E-02  0.1268005E+00
          2   -1    0    0  501    0  0.00000000000E+00  0.00000000000E+00  0.61288161486E+03  0.61288161486E+03  0.00000000000E+00 0. -1.
         -2   -1    0    0    0  501 -0.00000000000E+00 -0.00000000000E+00 -0.25846668608E+02  0.25846668608E+02  0.00000000000E+00 0.  1.
         25    2    1    2    0    0 -0.44483611365E+02 -0.43273424738E+02  0.33974326978E+03  0.36732560586E+03  0.12510487757E+03 0.  0.
          5    1    3    3  502    0  0.33868340817E+02 -0.16124898434E+02  0.34997905972E+02  0.51472348709E+02  0.41800000000E+01 0.  1.
         -5    1    3    3    0  502 -0.78351952182E+02 -0.27148526303E+02  0.30474536381E+03  0.31585325715E+03  0.41800000000E+01 0.  1.
        -11    1    1    2    0    0  0.55845321734E+02  0.10658318254E+02  0.22044479488E+03  0.22765809297E+03  0.00000000000E+00 0. -1.
         11    1    1    2    0    0 -0.11361710369E+02  0.32615106484E+02  0.26846881597E+02  0.43744584635E+02  0.00000000000E+00 0.  1.
</event>
<event>
 7    1  0.2693725E-009  0.1259444E+03  0.7561462E-02  0.1233601E+00
          1   -1    0    0  501    0  0.00000000000E+00  0.00000000000E+00  0.50194066195E+03  0.50194066195E+03  0.00000000000E+00 0. -1.
         -1   -1    0    0    0  501 -0.00000000000E+00 -0.00000000000E+00 -0.42679324278E+02  0.42679324278E+02  0.00000000000E+00 0.  1.
         25    2    1    2    0    0 -0.70065536331E+02  0.38948156004E+02  0.35660345754E+03  0.38631539818E+03  0.12508965864E+03 0.  0.
          5    1    3    3  502    0 -0.10333277777E+03  0.42636663139E+02  0.30292156297E+03  0.32291561392E+03  0.41800000000E+01 0.  1.
         -5    1    3    3    0  502  0.33267241440E+02 -0.36885071355E+01  0.53681894578E+02  0.63399784254E+02  0.41800000000E+01 0.  1.
        -11    1    1    2    0    0 -0.80307465228E+01 -0.25901131218E+02 -0.18603732041E+01  0.27181289089E+02  0.00000000000E+00 0.  1.
         11    1    1    2    0    0  0.78096282854E+02 -0.13047024786E+02  0.10451825333E+03  0.13112329896E+03  0.00000000000E+00 0. -1.
</event>
<event>
 7    1  0.2693725E-009  0.1074223E+03  0.7561462E-02  0.1265419E+00
          2   -1    0    0  501    0  0.00000000000E+00  0.00000000000E+00  0.16619286590E+03  0.16619286590E+03  0.00000000000E+00 0. -1.
         -2   -1    0    0    0  501 -0.00000000000E+00 -0.00000000000E+00 -0.82661845222E+02  0.82661845222E+02  0.00000000000E+00 0.  1.
         25    2    1    2    0    0 -0.42809142374E+02  0.17826593836E+02  0.47817254936E+02  0.14171940751E+03  0.12508992956E+03 0.  0.
          5    1    3    3  502    0 -0.86266405175E+02  0.62704292307E+01  0.20673653717E+02  0.89028553299E+02  0.41800000000E+01 0.  1.
         -5    1    3    3    0  502  0.43457262801E+02  0.11556164605E+02  0.27143601219E+02  0.52690854213E+02  0.41800000000E+01 0.  1.
        -11    1    1    2    0    0 -0.14966172722E+02 -0.20346601461E+02 -0.15712670504E+02  0.29746571757E+02  0.00000000000E+00 0.  1.
         11    1    1    2    0    0  0.57775315096E+02  0.25200076257E+01  0.51426436243E+02  0.77388731851E+02  0.00000000000E+00 0. -1.
</event>
<event>
 7    1  0.2693725E-009  0.1719368E+03  0.7561462E-02  0.1175843E+00
          2   -1    0    0  501    0  0.00000000000E+00  0.00000000000E+00  0.35780884353E+03  0.35780884353E+03  0.00000000000E+00 0. -1.
         -2   -1    0    0    0  501 -0.00000000000E+00 -0.00000000000E+00 -0.10569783095E+03  0.10569783095E+03  0.00000000000E+00 0.  1.
         25    2    1    2    0    0  0.28499653160E+02  0.15642060155E+03  0.13304063227E+03  0.24213446444E+03  0.12509857799E+03 0.  0.
          5    1    3    3  502    0 -0.92280642436E+01  0.30936096791E+02  0.10247128095E+03  0.10751760355E+03  0.41800000000E+01 0.  1.
         -5    1    3    3    0  502  0.37727717403E+02  0.12548450476E+03  0.30569351317E+02  0.13461686088E+03  0.41800000000E+01 0.  1.
        -11    1    1    2    0    0  0.59643711165E+01 -0.14317519475E+03  0.11592184925E+03  0.18431653547E+03  0.00000000000E+00 0. -1.
         11    1    1    2    0    0 -0.34464024276E+02 -0.13245406799E+02  0.31485310717E+01  0.37055674579E+02  0.00000000000E+00 0.  1.
</event>
<event>
 7    1  0.2693725E-009  0.9283956E+02  0.7561462E-02  0.1296117E+00
         -2   -1    0    0    0  501 -0.00000000000E+00  0.00000000000E+00  0.45913217168E+02  0.45913217168E+02  0.00000000000E+00 0.  1.
          2   -1    0    0  501    0  0.00000000000E+00 -0.00000000000E+00 -0.31692782668E+03  0.31692782668E+03  0.00000000000E+00 0. -1.
         25    2    1    2    0    0 -0.20690422846E+02  0.42001369255E+02 -0.15516403900E+03  0.20473259043E+03  0.12508935194E+03 0.  0.
          5    1    3    3  502    0 -0.46513700848E+02  0.61552905196E+02 -0.15371631053E+03  0.17204203274E+03  0.41800000000E+01 0.  1.
         -5    1    3    3    0  502  0.25823278002E+02 -0.19551535941E+02 -0.14477284666E+01  0.32690557691E+02  0.41800000000E+01 0.  1.
        -11    1    1    2    0    0 -0.15252360130E+02 -0.36287065269E+02 -0.29337405570E+01  0.39471412808E+02  0.00000000000E+00 0.  1.
         11    1    1    2    0    0  0.35942782976E+02 -0.57143039854E+01 -0.11291682995E+03  0.11863704061E+03  0.00000000000E+00 0. -1.
</event>
<event>
 7    1  0.2693725E-009  0.1517452E+03  0.7561462E-02  0.1198345E+00
         -2   -1    0    0    0  501 -0.00000000000E+00  0.00000000000E+00  0.15533151604E+03  0.15533151604E+03  0.00000000000E+00 0. -1.
          2   -1    0    0  501    0  0.00000000000E+00 -0.00000000000E+00 -0.18814217500E+03  0.18814217500E+03  0.00000000000E+00 0.  1.
         25    2    1    2    0    0 -0.12497310162E+03 -0.21976608746E+02  0.20112580997E+02  0.17931207755E+03  0.12508820000E+03 0.  0.
          5    1    3    3  502    0 -0.15236608667E+02 -0.56073608188E+02 -0.12922636825E+02  0.59673031777E+02  0.41800000000E+01 0. -1.
         -5    1    3    3    0  502 -0.10973649295E+03  0.34096999442E+02  0.33035217823E+02  0.11963904577E+03  0.41800000000E+01 0. -1.
        -11    1    1    2    0    0  0.28521442766E+02  0.17970735366E+02 -0.58443630837E+02  0.67469089311E+02  0.00000000000E+00 0.  1.
         11    1    1    2    0    0  0.96451658852E+02  0.40058733798E+01  0.55203908809E+01  0.96692524180E+02  0.00000000000E+00 0. -1.
</event>
<event>
 7    1  0.2693725E-009  0.7921481E+02  0.7561462E-02  0.1331295E+00
          2   -1    0    0  501    0  0.00000000000E+00  0.00000000000E+00  0.47742051890E+02  0.47742051890E+02  0.00000000000E+00 0.  1.
         -2   -1    0    0    0  501 -0.00000000000E+00 -0.00000000000E+00 -0.31173376616E+03  0.31173376616E+03  0.00000000000E+00 0. -1.
         25    2    1    2    0    0 -0.23955145872E+02 -0.36696144161E+02 -0.20009479255E+03  0.24001218188E+03  0.12508982948E+03 0.  0.
          5    1    3    3  502    0 -0.42062268762E+02 -0.15028003007E+02 -0.20602879327E+03  0.21085637620E+03  0.41800000000E+01 0. -1.
         -5    1    3    3    0  502  0.18107122889E+02 -0.21668141154E+02  0.59340007254E+01  0.29155805682E+02  0.41800000000E+01 0. -1.
        -11    1    1    2    0    0 -0.16545549716E+02 -0.12907651439E+02 -0.49589716212E+02  0.53847029956E+02  0.00000000000E+00 0. -1.
         11    1    1    2    0    0  0.40500695589E+02  0.49603795600E+02 -0.14307205514E+02  0.65616606212E+02  0.00000000000E+00 0.  1.
</event>
<event>
 7    1  0.2693725E-009  0.8437912E+02  0.7561462E-02  0.1317064E+00
          2   -1    0    0  501    0  0.00000000000E+00  0.00000000000E+00  0.17662625446E+03  0.17662625446E+03  0.00000000000E+00 0. -1.
         -2   -1    0    0    0  501 -0.00000000000E+00 -0.00000000000E+00 -0.11761596102E+03  0.11761596102E+03  0.00000000000E+00 0.  1.
         25    2    1    2    0    0  0.34373808853E+02 -0.17998262172E+02 -0.55914246586E+02  0.14239718585E+03  0.12508021182E+03 0.  0.
          5    1    3    3  502    0 -0.18699730084E+02 -0.14807639215E+02  0.31660857573E+02  0.39860110218E+02  0.41800000000E+01 0.  1.
         -5    1    3    3    0  502  0.53073538937E+02 -0.31906229572E+01 -0.87575104159E+02  0.10253707563E+03  0.41800000000E+01 0.  1.
        -11    1    1    2    0    0 -0.14302608076E+02  0.50788132735E+02  0.94694275707E+02  0.10840205199E+03  0.00000000000E+00 0. -1.
         11    1    1    2    0    0 -0.20071200777E+02 -0.32789870563E+02  0.20230264315E+02  0.43442977642E+02  0.00000000000E+00 0.  1.
</event>
<event>
 7    1  0.2693725E-009  0.1462346E+03  0.7561462E-02  0.1205178E+00
          2   -1    0    0  501    0  0.00000000000E+00  0.00000000000E+00  0.16090967069E+04  0.16090967069E+04  0.00000000000E+00 0. -1.
         -2   -1    0    0    0  501 -0.00000000000E+00 -0.00000000000E+00 -0.26799095620E+02  0.26799095620E+02  0.00000000000E+00 0.  1.
         25    2    1    2    0    0 -0.93979579606E+02  0.94141822623E+02  0.12818915036E+04  0.12948313419E+04  0.12509009961E+03 0.  0.
          5    1    3    3  502    0 -0.48277671336E+02  0.28152096952E+02  0.10036230685E+04  0.10051865548E+04  0.41800000000E+01 0. -1.
         -5    1    3    3    0  502 -0.45701908270E+02  0.65989725671E+02  0.27826843512E+03  0.28964478710E+03  0.41800000000E+01 0. -1.
        -11    1    1    2    0    0 -0.11500636482E+02 -0.31114352774E+02  0.10611045411E+03  0.11117461967E+03  0.00000000000E+00 0. -1.
         11    1    1    2    0    0  0.10548021609E+03 -0.63027469849E+02  0.19429565362E+03  0.22988984092E+03  0.00000000000E+00 0.  1.
</event>
<event>
 7    1  0.2693725E-009  0.1000445E+03  0.7561462E-02  0.1280202E+00
          1   -1    0    0  501    0  0.00000000000E+00  0.00000000000E+00  0.65767521799E+03  0.65767521799E+03  0.00000000000E+00 0. -1.
         -1   -1    0    0    0  501 -0.00000000000E+00 -0.00000000000E+00 -0.18631496501E+02  0.18631496501E+02  0.00000000000E+00 0.  1.
         25    2    1    2    0    0 -0.12958910188E+02  0.12636788186E+02  0.38239227874E+03  0.40273937604E+03  0.12509008114E+03 0.  0.
          5    1    3    3  502    0  0.82731526713E+01  0.58559240679E+02  0.30122283770E+03  0.30700211738E+03  0.41800000000E+01 0. -1.
         -5    1    3    3    0  502 -0.21232062860E+02 -0.45922452493E+02  0.81169441046E+02  0.95737258661E+02  0.41800000000E+01 0. -1.
        -11    1    1    2    0    0 -0.38090524981E+02 -0.58222446835E+01  0.69594579233E+02  0.79549934538E+02  0.00000000000E+00 0.  1.
         11    1    1    2    0    0  0.51049435169E+02 -0.68145435022E+01  0.18705686351E+03  0.19401740391E+03  0.00000000000E+00 0. -1.
</event>
<event>
 7    1  0.2693725E-009  0.1146322E+03  0.7561462E-02  0.1252224E+00
         -1   -1    0    0    0  501 -0.00000000000E+00  0.00000000000E+00  0.90206098171E+02  0.90206098171E+02  0.00000000000E+00 0.  1.
          1   -1    0    0  501    0  0.00000000000E+00 -0.00000000000E+00 -0.19529713690E+03  0.19529713690E+03  0.00000000000E+00 0. -1.
         25    2    1    2    0    0 -0.55175356210E+02 -0.20321476648E+02 -0.68014777733E+01  0.13838737536E+03  0.12509006041E+03 0.  0.
          5    1    3    3  502    0  0.17677412059E+02  0.29362236066E+02 -0.31478548518E+02  0.46722620011E+02  0.41800000000E+01 0. -1.
         -5    1    3    3    0  502 -0.72852768268E+02 -0.49683712714E+02  0.24677070744E+02  0.91664755353E+02  0.41800000000E+01 0. -1.
        -11    1    1    2    0    0  0.74743351229E+02  0.34470839030E+02 -0.60035250505E+02  0.10187756671E+03  0.00000000000E+00 0. -1.
         11    1    1    2    0    0 -0.19567995019E+02 -0.14149362382E+02 -0.38254310454E+02  0.45238292996E+02  0.00000000000E+00 0.  1.
</event>
<event>
 7    1  0.2693725E-009  0.1308289E+03  0.7561462E-02  0.1226231E+00
          2   -1    0    0  501    0  0.00000000000E+00  0.00000000000E+00  0.60862244085E+03  0.60862244085E+03  0.00000000000E+00 0.  1.
         -2   -1    0    0    0  501 -0.00000000000E+00 -0.00000000000E+00 -0.38837613489E+02  0.38837613489E+02  0.00000000000E+00 0. -1.
         25    2    1    2    0    0 -0.31135983654E+01  0.10914682216E+03  0.29985350178E+03  0.34275773536E+03  0.12509204344E+03 0.  0.
          5    1    3    3  502    0 -0.54022658038E+02  0.56125579106E+02  0.22334922188E+03  0.23658164664E+03  0.41800000000E+01 0. -1.
         -5    1    3    3    0  502  0.50909059672E+02  0.53021243058E+02  0.76504279898E+02  0.10617608871E+03  0.41800000000E+01 0. -1.
        -11    1    1    2    0    0  0.75076423911E+01 -0.37750593948E+02  0.20341177735E+03  0.20702131099E+03  0.00000000000E+00 0.  1.
         11    1    1    2    0    0 -0.43940440258E+01 -0.71396228216E+02  0.66519548226E+02  0.97681007993E+02  0.00000000000E+00 0. -1.
</event>
<event>
 7    1  0.2693725E-009  0.1060274E+03  0.7561462E-02  0.1268109E+00
         -4   -1    0    0    0  501 -0.00000000000E+00  0.00000000000E+00  0.16704255244E+03  0.16704255244E+03  0.00000000000E+00 0.  1.
          4   -1    0    0  501    0  0.00000000000E+00 -0.00000000000E+00 -0.75264198523E+02  0.75264198523E+02  0.00000000000E+00 0. -1.
         25    2    1    2    0    0 -0.35777179389E+00  0.33590298260E+02  0.51612113596E+02  0.13942752547E+03  0.12509112060E+03 0.  0.
          5    1    3    3  502    0  0.45834776023E+02 -0.26742104465E+02  0.25000037365E+02  0.58808512246E+02  0.41800000000E+01 0.  1.
         -5    1    3    3    0  502 -0.46192547817E+02  0.60332402725E+02  0.26612076231E+02  0.80619013227E+02  0.41800000000E+01 0.  1.
        -11    1    1    2    0    0  0.21539838616E+02  0.17283790684E+02 -0.89799491757E+01  0.29040205839E+02  0.00000000000E+00 0. -1.
         11    1    1    2    0    0 -0.21182066822E+02 -0.50874088943E+02  0.49146189493E+02  0.73839019646E+02  0.00000000000E+00 0.  1.
</event>
<event>
 7    1  0.2693725E-009  0.1096186E+03  0.7561462E-02  0.1261278E+00
          1   -1    0    0  501    0  0.00000000000E+00  0.00000000000E+00  0.84989250705E+02  0.84989250705E+02  0.00000000000E+00 0. -1.
         -1   -1    0    0    0  501 -0.00000000000E+00 -0.00000000000E+00 -0.40088733180E+03  0.40088733180E+03  0.00000000000E+00 0.  1.
         25    2    1    2    0    0  0.20532522262E+02 -0.60924796264E+02 -0.34226935475E+03  0.37004035085E+03  0.12509250493E+03 0.  0.
          5    1    3    3  502    0  0.69035550134E+02 -0.54995209909E+02 -0.25579755654E+03  0.27062934547E+03  0.41800000000E+01 0.  1.
         -5    1    3    3    0  502 -0.48503027873E+02 -0.59295863552E+01 -0.86471798207E+02  0.99411005389E+02  0.41800000000E+01 0.  1.
        -11    1    1    2    0    0 -0.29934250251E+02  0.65018459528E+02  0.51841128032E+02  0.88379646826E+02  0.00000000000E+00 0. -1.
         11    1    1    2    0    0  0.94017279888E+01 -0.40936632646E+01 -0.25469854384E+02  0.27456584829E+02  0.00000000000E+00 0.  1.
</event>
<event>
 7    1  0.2693725E-009  0.1787286E+03  0.7561462E-02  0.1169039E+00
          2   -1    0    0  501    0  0.00000000000E+00  0.00000000000E+00  0.38378360437E+03  0.38378360437E+03  0.00000000000E+00 0. -1.
         -2   -1    0    0    0  501 -0.00000000000E+00 -0.00000000000E+00 -0.85098831669E+02  0.85098831669E+02  0.00000000000E+00 0.  1.
         25    2    1    2    0    0  0.80427630439E+02  0.11987662856E+03  0.17819469141E+03  0.26122840107E+03  0.12509164506E+03 0.  0.
          5    1    3    3  502    0  0.36348016870E+02  0.13830010251E+03  0.13327961726E+03  0.19552244235E+03  0.41800000000E+01 0. -1.
         -5    1    3    3    0  502  0.44079613568E+02 -0.18423473954E+02  0.44915074151E+02  0.65705958717E+02  0.41800000000E+01 0. -1.
        -11    1    1    2    0    0  0.74399913059E+01 -0.59186805022E+02  0.61401856399E+02  0.85607355575E+02  0.00000000000E+00 0. -1.
         11    1    1    2    0    0 -0.87867621745E+02 -0.60689823535E+02  0.59088224890E+02  0.12204667940E+03  0.00000000000E+00 0.  1.
</event>
<event>
 7    1  0.2693725E-009  0.1596088E+03  0.7561462E-02  0.1189139E+00
          2   -1    0    0  501    0  0.00000000000E+00  0.00000000000E+00  0.60324839886E+03  0.60324839886E+03  0.00000000000E+00 0.  1.
         -2   -1    0    0    0  501 -0.00000000000E+00 -0.00000000000E+00 -0.56074031025E+02  0.56074031025E+02  0.00000000000E+00 0. -1.
         25    2    1    2    0    0  0.14555364766E+03 -0.24591320510E+02  0.24338944545E+03  0.31092888796E+03  0.12509098216E+03 0.  0.
          5    1    3    3  502    0  0.13886157724E+03 -0.12679654209E+02  0.11236453401E+03  0.17912725132E+03  0.41800000000E+01 0. -1.
         -5    1    3    3    0  502  0.66920704269E+01 -0.11911666301E+02  0.13102491144E+03  0.13180163664E+03  0.41800000000E+01 0. -1.
        -11    1    1    2    0    0 -0.10360526859E+03  0.51389605627E+02  0.16964336260E+03  0.20531393942E+03  0.00000000000E+00 0. -1.
         11    1    1    2    0    0 -0.41948379069E+02 -0.26798285117E+02  0.13414155978E+03  0.14307960251E+03  0.00000000000E+00 0.  1.
</event>
<event>
 7    1  0.2693725E-009  0.1141896E+03  0.7561462E-02  0.1253002E+00
         -1   -1    0    0    0  501 -0.00000000000E+00  0.00000000000E+00  0.42023691583E+03  0.42023691583E+03  0.00000000000E+00 0.  1.
          1   -1    0    0  501    0  0.00000000000E+00 -0.00000000000E+00 -0.42936150196E+02  0.42936150196E+02  0.00000000000E+00 0. -1.
         25    2    1    2    0    0  0.69907866168E+02  0.30581068607E+02  0.15918424820E+03  0.21635394858E+03  0.12508834751E+03 0.  0.
          5    1    3    3  502    0  0.78607644954E+01 -0.28153236274E+02  0.11758445965E+03  0.12123520067E+03  0.41800000000E+01 0.  1.
         -5    1    3    3    0  502  0.62047101673E+02  0.58734304881E+02  0.41599788546E+02  0.95118747905E+02  0.41800000000E+01 0.  1.
        -11    1    1    2    0    0 -0.24824441213E+02 -0.56213841314E+02  0.94009532858E+02  0.11231224824E+03  0.00000000000E+00 0.  1.
         11    1    1    2    0    0 -0.45083424955E+02  0.25632772707E+02  0.12410698458E+03  0.13450686921E+03  0.00000000000E+00 0. -1.
</event>
<event>
 7    1  0.2693725E-009  0.1318399E+03  0.7561462E-02  0.1224751E+00
          2   -1    0    0  501    0  0.00000000000E+00  0.00000000000E+00  0.11623338538E+04  0.11623338538E+04  0.00000000000E+00 0. -1.
         -2   -1    0    0    0  501 -0.00000000000E+00 -0.00000000000E+00 -0.16648476629E+02  0.16648476629E+02  0.00000000000E+00 0.  1.
         25    2    1    2    0    0  0.70078280253E+02 -0.32571762967E+01  0.80447443757E+03  0.81715819151E+03  0.12508722831E+03 0.  0.
          5    1    3    3  502    0 -0.32999565377E+02  0.18355494224E+02  0.21965633542E+03  0.22291763854E+03  0.41800000000E+01 0. -1.
         -5    1    3    3    0  502  0.10307784563E+03 -0.21612670521E+02  0.58481810215E+03  0.59424055297E+03  0.41800000000E+01 0. -1.
        -11    1    1    2    0    0 -0.13670883132E+02  0.46972806128E+02  0.13173060857E+03  0.14052149585E+03  0.00000000000E+00 0. -1.
         11    1    1    2    0    0 -0.56407397122E+02 -0.43715629831E+02  0.20948033100E+03  0.22130264305E+03  0.00000000000E+00 0.  1.
</event>
<event>
 7    1  0.2693725E-009  0.6522909E+02  0.7561462E-02  0.1377112E+00
         -1   -1    0    0    0  501 -0.00000000000E+00  0.00000000000E+00  0.21841357302E+02  0.21841357302E+02  0.00000000000E+00 0.  1.
          1   -1    0    0  501    0  0.00000000000E+00 -0.00000000000E+00 -0.56949022254E+03  0.56949022254E+03  0.00000000000E+00 0. -1.
         25    2    1    2    0    0 -0.17317931487E+02 -0.16814831825E+02 -0.31589790951E+03  0.34062009637E+03  0.12509161242E+03 0.  0.
          5    1    3    3  502    0  0.23895112868E+01 -0.15202331302E+02 -0.31966433849E+03  0.32006184143E+03  0.41800000000E+01 0. -1.
         -5    1    3    3    0  502 -0.19707442774E+02 -0.16125005231E+01  0.37664289797E+01  0.20558254933E+02  0.41800000000E+01 0. -1.
        -11    1    1    2    0    0  0.34026905685E+02  0.48049810017E+02 -0.12360205885E+03  0.13690903369E+03  0.00000000000E+00 0.  1.
         11    1    1    2    0    0 -0.16708974198E+02 -0.31234978193E+02 -0.10814889689E+03  0.11380244979E+03  0.00000000000E+00 0. -1.
</event>
<event>
 7    1  0.2693725E-009  0.1667012E+03  0.7561462E-02  0.1181332E+00
         -2   -1    0    0    0  501 -0.00000000000E+00  0.00000000000E+00  0.31406461550E+03  0.31406461550E+03  0.00000000000E+00 0.  1.
          2   -1    0    0  501    0  0.00000000000E+00 -0.00000000000E+00 -0.11620473210E+03  0.11620473210E+03  0.00000000000E+00 0. -1.
         25    2    1    2    0    0  0.11549147891E+03 -0.79569540716E+02  0.18310087315E+03  0.26237964766E+03  0.12509019244E+03 0.  0.
          5    1    3    3  502    0  0.12783976241E+02  0.31816056944E+02  0.49334238042E+02  0.60224836830E+02  0.41800000000E+01 0. -1.
         -5    1    3    3    0  502  0.10270750267E+03 -0.11138559766E+03  0.13376663511E+03  0.20215481083E+03  0.41800000000E+01 0. -1.
        -11    1    1    2    0    0 -0.11107464143E+03  0.58061006102E+02  0.42650558072E+02  0.13239232041E+03  0.00000000000E+00 0.  1.
         11    1    1    2    0    0 -0.44168374843E+01  0.21508534614E+02 -0.27891547819E+02  0.35497379542E+02  0.00000000000E+00 0. -1.
</event>
<event>
 7    1  0.2693725E-009  0.1469925E+03  0.7561462E-02  0.1204218E+00
         -1   -1    0    0    0  501 -0.00000000000E+00  0.00000000000E+00  0.26811786222E+03  0.26811786222E+03  0.00000000000E+00 0.  1.
          1   -1    0    0  501    0  0.00000000000E+00 -0.00000000000E+00 -0.99612100120E+02  0.99612100120E+02  0.00000000000E+00 0. -1.
         25    2    1    2    0    0  0.41115208561E+02  0.10763343095E+03  0.44456596832E+02  0.17578222574E+03  0.12509031158E+03 0.  0.
          5    1    3    3  502    0 -0.45013922914E+02  0.37413291623E+02  0.11510674677E+02  0.59799462186E+02  0.41800000000E+01 0. -1.
         -5    1    3    3    0  502  0.86129131475E+02  0.70220139324E+02  0.32945922155E+02  0.11598276356E+03  0.41800000000E+01 0. -1.
        -11    1    1    2    0    0 -0.50787964177E+02 -0.79393817748E+02  0.13092092707E+03  0.16131672185E+03  0.00000000000E+00 0.  1.
         11    1    1    2    0    0  0.96727556161E+01 -0.28239613199E+02 -0.68717617985E+01  0.30631014757E+02  0.00000000000E+00 0. -1.
</event>
<event>
 7    1  0.2693725E-009  0.1267824E+03  0.7561462E-02  0.1232310E+00
          1   -1    0    0  501    0  0.00000000000E+00  0.00000000000E+00  0.24312139696E+02  0.24312139696E+02  0.00000000000E+00 0. -1.
         -1   -1    0    0    0  501 -0.00000000000E+00 -0.00000000000E+00 -0.89890933080E+03  0.89890933080E+03  0.00000000000E+00 0.  1.
         25    2    1    2    0    0 -0.33767208608E+02 -0.69626503237E+02 -0.67701803951E+03  0.69281229241E+03  0.12508945740E+03 0.  0.
          5    1    3    3  502    0 -0.63410133054E+02 -0.87424101673E+02 -0.57342444382E+03  0.58352110818E+03  0.41800000000E+01 0.  1.
         -5    1    3    3    0  502  0.29642924446E+02  0.17797598436E+02 -0.10359359569E+03  0.10929118422E+03  0.41800000000E+01 0.  1.
        -11    1    1    2    0    0 -0.21974374300E+02  0.66408345757E+00 -0.81048221164E+02  0.83976950924E+02  0.00000000000E+00 0.  1.
         11    1    1    2    0    0  0.55741582908E+02  0.68962419779E+02 -0.11653093043E+03  0.14643222717E+03  0.00000000000E+00 0. -1.
</event>
<event>
 7    1  0.2693725E-009  0.6953314E+02  0.7561462E-02  0.1361688E+00
          1   -1    0    0  501    0  0.00000000000E+00  0.00000000000E+00  0.17204659484E+03  0.17204659484E+03  0.00000000000E+00 0. -1.
         -1   -1    0    0    0  501 -0.00000000000E+00 -0.00000000000E+00 -0.69723632772E+02  0.69723632772E+02  0.00000000000E+00 0.  1.
         25    2    1    2    0    0  0.15257527567E+02  0.25861085487E+02  0.90581217270E+02  0.15733305987E+03  0.12508855630E+03 0.  0.
          5    1    3    3  502    0 -0.25818975715E+02  0.37045871332E+02 -0.11386417955E+02  0.46756165407E+02  0.41800000000E+01 0. -1.
         -5    1    3    3    0  502  0.41076503282E+02 -0.11184785845E+02  0.10196763522E+03  0.11057689447E+03  0.41800000000E+01 0. -1.
        -11    1    1    2    0    0 -0.29516644861E+02 -0.15704471791E+02 -0.26314201049E+02  0.42547619616E+02  0.00000000000E+00 0.  1.
         11    1    1    2    0    0  0.14259117294E+02 -0.10156613696E+02  0.38055945844E+02  0.41889548122E+02  0.00000000000E+00 0. -1.
</event>
<event>
 7    1  0.2693725E-009  0.1470088E+03  0.7561462E-02  0.1204198E+00
          1   -1    0    0  501    0  0.00000000000E+00  0.00000000000E+00  0.60390222924E+03  0.60390222924E+03  0.00000000000E+00 0. -1.
         -1   -1    0    0    0  501 -0.00000000000E+00 -0.00000000000E+00 -0.69913836199E+02  0.69913836199E+02  0.00000000000E+00 0.  1.
         25    2    1    2    0    0  0.11855109806E+03 -0.11596289488E+02  0.48752885962E+03  0.51722259255E+03  0.12508390984E+03 0.  0.
          5    1    3    3  502    0  0.40215129043E+02 -0.64345146230E+02  0.25885208665E+03  0.26977662911E+03  0.41800000000E+01 0.  1.
         -5    1    3    3    0  502  0.78335969020E+02  0.52748856742E+02  0.22867677296E+03  0.24744596344E+03  0.41800000000E+01 0.  1.
        -11    1    1    2    0    0 -0.72893522080E+02  0.22990847615E+02 -0.16299089377E+02  0.78151807080E+02  0.00000000000E+00 0.  1.
         11    1    1    2    0    0 -0.45657575983E+02 -0.11394558127E+02  0.62758622805E+02  0.78441665815E+02  0.00000000000E+00 0. -1.
</event>
<event>
 7    1  0.2693725E-009  0.1168249E+03  0.7561462E-02  0.1248429E+00
         -2   -1    0    0    0  501 -0.00000000000E+00  0.00000000000E+00  0.20148080967E+03  0.20148080967E+03  0.00000000000E+00 0. -1.
          2   -1    0    0  501    0  0.00000000000E+00 -0.00000000000E+00 -0.85479345530E+02  0.85479345530E+02  0.00000000000E+00 0.  1.
         25    2    1    2    0    0 -0.33663732713E+01  0.31930156683E+02  0.79095410038E+02  0.15143907391E+03  0.12508733686E+03 0.  0.
          5    1    3    3  502    0 -0.22412267582E+02 -0.43043881505E+02  0.46670150635E+02  0.67458586062E+02  0.41800000000E+01 0. -1.
         -5    1    3    3    0  502  0.19045894311E+02  0.74974038188E+02  0.32425259403E+02  0.83980487851E+02  0.41800000000E+01 0. -1.
        -11    1    1    2    0    0 -0.33670471812E+02  0.23319686086E+02 -0.22157966713E+02  0.46566983154E+02  0.00000000000E+00 0.  1.
         11    1    1    2    0    0  0.37036845083E+02 -0.55249842769E+02  0.59064020813E+02  0.88954098132E+02  0.00000000000E+00 0. -1.
</event>
<event>
 7    1  0.2693725E-009  0.1377814E+03  0.7561462E-02  0.1216346E+00
          1   -1    0    0  501    0  0.00000000000E+00  0.00000000000E+00  0.19487754271E+03  0.19487754271E+03  0.00000000000E+00 0. -1.
         -1   -1    0    0    0  501 -0.00000000000E+00 -0.00000000000E+00 -0.12031158546E+03  0.12031158546E+03  0.00000000000E+00 0.  1.
         25    2    1    2    0    0  0.88311754103E+02  0.22681104071E+02  0.10247082689E+01  0.15479522731E+03  0.12508842463E+03 0.  0.
          5    1    3    3  502    0  0.21997197227E+02  0.63810972752E+02  0.26454976366E+02  0.72615804780E+02  0.41800000000E+01 0. -1.
         -5    1    3    3    0  502  0.66314556876E+02 -0.41129868681E+02 -0.25430268097E+02  0.82179422527E+02  0.41800000000E+01 0. -1.
        -11    1    1    2    0    0 -0.90430462318E+02 -0.49362839889E+02  0.82691896802E+02  0.13210718479E+03  0.00000000000E+00 0. -1.
         11    1    1    2    0    0  0.21187082147E+01  0.26681735818E+02 -0.91506478203E+01  0.28286716075E+02  0.00000000000E+00 0.  1.
</event>
<event>
 7    1  0.2693725E-009  0.1318386E+03  0.7561462E-02  0.1224753E+00
          4   -1    0    0  501    0  0.00000000000E+00  0.00000000000E+00  0.22006942693E+03  0.22006942693E+03  0.00000000000E+00 0.  1.
         -4   -1    0    0    0  501 -0.00000000000E+00 -0.00000000000E+00 -0.99280597684E+02  0.99280597684E+02  0.00000000000E+00 0. -1.
         25    2    1    2    0    0  0.60147786827E+02 -0.78121085211E+02  0.82957104143E+02  0.17958965862E+03  0.12509957690E+03 0.  0.
          5    1    3    3  502    0  0.23116181353E+02  0.31068771023E+02  0.26942945026E+01  0.39043027497E+02  0.41800000000E+01 0. -1.
         -5    1    3    3    0  502  0.37031605474E+02 -0.10918985623E+03  0.80262809640E+02  0.14054663112E+03  0.41800000000E+01 0. -1.
        -11    1    1    2    0    0 -0.28621388300E+02  0.71669588342E+02 -0.14309298253E+02  0.78488660186E+02  0.00000000000E+00 0. -1.
         11    1    1    2    0    0 -0.31526398528E+02  0.64514968696E+01  0.52141023352E+02  0.61271705804E+02  0.00000000000E+00 0.  1.
</event>
<event>
 7    1  0.2693725E-009  0.9584459E+02  0.7561462E-02  0.1289285E+00
         -3   -1    0    0    0  501 -0.00000000000E+00  0.00000000000E+00  0.23709444117E+03  0.23709444117E+03  0.00000000000E+00 0.  1.
          3   -1    0    0  501    0  0.00000000000E+00 -0.00000000000E+00 -0.56897036301E+02  0.56897036301E+02  0.00000000000E+00 0. -1.
         25    2    1    2    0    0 -0.24358483202E+02 -0.47081849928E+01  0.14456205387E+03  0.19277176191E+03  0.12508901654E+03 0.  0.
          5    1    3    3  502    0  0.35496343456E+02 -0.39116477221E+02  0.90955046556E+02  0.10526339384E+03  0.41800000000E+01 0.  1.
         -5    1    3    3    0  502 -0.59854826657E+02  0.34408292228E+02  0.53607007312E+02  0.87508368064E+02  0.41800000000E+01 0.  1.
        -11    1    1    2    0    0  0.14691003145E+02 -0.30055260030E+02  0.51814605689E+02  0.61675745570E+02  0.00000000000E+00 0.  1.
         11    1    1    2    0    0  0.96674800565E+01  0.34763445023E+02 -0.16179254691E+02  0.39543969994E+02  0.00000000000E+00 0. -1.
</event>
<event>
 7    1  0.2693725E-009  0.1113082E+03  0.7561462E-02  0.1258166E+00
         -1   -1    0    0    0  501 -0.00000000000E+00  0.00000000000E+00  0.11109292005E+03  0.11109292005E+03  0.00000000000E+00 0.  1.
          1   -1    0    0  501    0  0.00000000000E+00 -0.00000000000E+00 -0.18663905076E+03  0.18663905076E+03  0.00000000000E+00 0. -1.
         25    2    1    2    0    0  0.58614294481E+02 -0.77743860359E+02 -0.51875984830E+02  0.16678982860E+03  0.12509190933E+03 0.  0.
          5    1    3    3  502    0 -0.11965529480E+02 -0.18695517620E+01  0.31316200474E+02  0.33835571987E+02  0.41800000000E+01 0.  1.
         -5    1    3    3    0  502  0.70579823961E+02 -0.75874308597E+02 -0.83192185304E+02  0.13295425661E+03  0.41800000000E+01 0.  1.
        -11    1    1    2    0    0 -0.89842051965E+01  0.46695813212E+02  0.25975180324E+02  0.54184175803E+02  0.00000000000E+00 0.  1.
         11    1    1    2    0    0 -0.49630089284E+02  0.31048047146E+02 -0.49645326205E+02  0.76757966413E+02  0.00000000000E+00 0. -1.
</event>
<event>
 7    1  0.2693725E-009  0.1159651E+03  0.7561462E-02  0.1249906E+00
          2   -1    0    0  501    0  0.00000000000E+00  0.00000000000E+00  0.97562329679E+03  0.97562329679E+03  0.00000000000E+00 0. -1.
         -2   -1    0    0    0  501 -0.00000000000E+00 -0.00000000000E+00 -0.14009474265E+02  0.14009474265E+02  0.00000000000E+00 0.  1.
         25    2    1    2    0    0  0.67373725910E+01 -0.44409414566E+02  0.56737062711E+03  0.58273111205E+03  0.12509409318E+03 0.  0.
          5    1    3    3  502    0  0.35946311180E+02  0.32644162033E+02  0.25700316323E+03  0.26158340336E+03  0.41800000000E+01 0. -1.
         -5    1    3    3    0  502 -0.29208938589E+02 -0.77053576599E+02  0.31036746388E+03  0.32114770869E+03  0.41800000000E+01 0. -1.
        -11    1    1    2    0    0  0.35380098827E+02  0.46600350517E+02  0.22508208962E+03  0.23256244566E+03  0.00000000000E+00 0. -1.
         11    1    1    2    0    0 -0.42117471418E+02 -0.21909359511E+01  0.16916110578E+03  0.17433921334E+03  0.00000000000E+00 0.  1.
</event>
<event>
 7    1  0.2693725E-009  0.1404688E+03  0.7561462E-02  0.1212700E+00
          2   -1    0    0  501    0  0.00000000000E+00  0.00000000000E+00  0.10102056894E+04  0.10102056894E+04  0.00000000000E+00 0. -1.
         -2   -1    0    0    0  501 -0.00000000000E+00 -0.00000000000E+00 -0.25990223267E+02  0.25990223267E+02  0.00000000000E+00 0.  1.
         25    2    1    2    0    0  0.11482377427E+03 -0.31918551608E+02  0.46949145374E+03  0.50027252627E+03  0.12508829814E+03 0.  0.
          5    1    3    3  502    0  0.58159930798E+01 -0.25968367020E+02  0.11258403557E+02  0.29195991366E+02  0.41800000000E+01 0. -1.
         -5    1    3    3    0  502  0.10900778119E+03 -0.59501845874E+01  0.45823305019E+03  0.47107653491E+03  0.41800000000E+01 0. -1.
        -11    1    1    2    0    0 -0.48131060826E+02  0.56000530684E+02  0.32750711792E+03  0.33572841813E+03  0.00000000000E+00 0. -1.
         11    1    1    2    0    0 -0.66692713441E+02 -0.24081979076E+02  0.18721689445E+03  0.20019496824E+03  0.00000000000E+00 0.  1.
</event>
<event>
 7    1  0.2693725E-009  0.1753527E+03  0.7561462E-02  0.1172378E+00
         -2   -1    0    0    0  501 -0.00000000000E+00  0.00000000000E+00  0.28686219028E+03  0.28686219028E+03  0.00000000000E+00 0.  1.
          2   -1    0    0  501    0  0.00000000000E+00 -0.00000000000E+00 -0.14574628566E+03  0.14574628566E+03  0.00000000000E+00 0. -1.
         25    2    1    2    0    0 -0.38649051210E+02 -0.16717288887E+03  0.99540797196E+02  0.23451305013E+03  0.12508987346E+03 0.  0.
          5    1    3    3  502    0  0.85411735851E+00 -0.66118504133E+01 -0.25807126568E+02  0.26980108674E+02  0.41800000000E+01 0.  1.
         -5    1    3    3    0  502 -0.39503168568E+02 -0.16056103846E+03  0.12534792376E+03  0.20753294145E+03  0.41800000000E+01 0.  1.
        -11    1    1    2    0    0  0.22582737045E+02  0.15655794635E+03  0.67754519259E+01  0.15832333159E+03  0.00000000000E+00 0. -1.
         11    1    1    2    0    0  0.16066314165E+02  0.10614942520E+02  0.34799655498E+02  0.39772094216E+02  0.00000000000E+00 0.  1.
</event>
<event>
 7    1  0.2693725E-009  0.1108634E+03  0.7561462E-02  0.1258979E+00
         -2   -1    0    0    0  501 -0.00000000000E+00  0.00000000000E+00  0.43975104674E+02  0.43975104674E+02  0.00000000000E+00 0.  1.
          2   -1    0    0  501    0  0.00000000000E+00 -0.00000000000E+00 -0.41749159353E+03  0.41749159353E+03  0.00000000000E+00 0. -1.
         25    2    1    2    0    0 -0.56984308729E+02  0.37268117737E+02 -0.28046856082E+03  0.31455857441E+03  0.12509340145E+03 0.  0.
          5    1    3    3  502    0 -0.26032565211E+02 -0.29180722962E+02 -0.20695545511E+03  0.21065906542E+03  0.41800000000E+01 0. -1.
         -5    1    3    3    0  502 -0.30951743518E+02  0.66448840699E+02 -0.73513105708E+02  0.10389950899E+03  0.41800000000E+01 0. -1.
        -11    1    1    2    0    0  0.79429094638E+02 -0.24343288651E+02 -0.50871556678E+02  0.97414023920E+02  0.00000000000E+00 0.  1.
         11    1    1    2    0    0 -0.22444785909E+02 -0.12924829086E+02 -0.42176371359E+02  0.49494099875E+02  0.00000000000E+00 0. -1.
</event>
<event>
 7    1  0.2693725E-009  0.1308785E+03  0.7561462E-02  0.1226158E+00
          3   -1    0    0  501    0  0.00000000000E+00  0.00000000000E+00  0.21319283163E+03  0.21319283163E+03  0.00000000000E+00 0. -1.
         -3   -1    0    0    0  501 -0.00000000000E+00 -0.00000000000E+00 -0.99806676768E+02  0.99806676768E+02  0.00000000000E+00 0.  1.
         25    2    1    2    0    0 -0.61473417450E+02 -0.74641690568E+02  0.44934165127E+02  0.16436933390E+03  0.12509130948E+03 0.  0.
          5    1    3    3  502    0  0.68683942298E+01 -0.62790816907E+02 -0.22845054715E+02  0.67299557592E+02  0.41800000000E+01 0.  1.
         -5    1    3    3    0  502 -0.68341811680E+02 -0.11850873662E+02  0.67779219842E+02  0.97069776309E+02  0.41800000000E+01 0.  1.
        -11    1    1    2    0    0  0.67445045527E+02  0.90011826750E+02  0.47823900709E+02  0.12222147356E+03  0.00000000000E+00 0.  1.
         11    1    1    2    0    0 -0.59716280772E+01 -0.15370136181E+02  0.20628089024E+02  0.26408700932E+02  0.00000000000E+00 0. -1.
</event>
<event>
 7    1  0.2693725E-009  0.3534776E+03  0.7561462E-02  0.1061197E+00
          1   -1    0    0  501    0  0.00000000000E+00  0.00000000000E+00  0.10988168928E+04  0.10988168928E+04  0.00000000000E+00 0. -1.
         -1   -1    0    0    0  501 -0.00000000000E+00 -0.00000000000E+00 -0.12674620251E+03  0.12674620251E+03  0.00000000000E+00 0.  1.
         25    2    1    2    0    0 -0.18360257514E+03 -0.29661605660E+03  0.37009221653E+03  0.52374186403E+03  0.12508517407E+03 0.  0.
          5    1    3    3  502    0 -0.12201167745E+03 -0.25325930904E+03  0.22456678987E+03  0.35982612823E+03  0.41800000000E+01 0.  1.
         -5    1    3    3    0  502 -0.61590897687E+02 -0.43356747568E+02  0.14552542666E+03  0.16391573580E+03  0.41800000000E+01 0.  1.
        -11    1    1    2    0    0  0.15188730868E+03  0.21892482471E+03  0.37662104055E+03  0.46134720287E+03  0.00000000000E+00 0.  1.
         11    1    1    2    0    0  0.31715266459E+02  0.77691231896E+02  0.22535743326E+03  0.24047402846E+03  0.00000000000E+00 0. -1.
</event>
<event>
 7    1  0.2693725E-009  0.9436331E+02  0.7561462E-02  0.1292617E+00
          1   -1    0    0  501    0  0.00000000000E+00  0.00000000000E+00  0.23557060976E+03  0.23557060976E+03  0.00000000000E+00 0. -1.
         -1   -1    0    0    0  501 -0.00000000000E+00 -0.00000000000E+00 -0.88961214287E+02  0.88961214287E+02  0.00000000000E+00 0.  1.
         25    2    1    2    0    0  0.25287048333E+00 -0.38962018225E+01 -0.26288159375E+02  0.12788348187E+03  0.12509145966E+03 0.  0.
          5    1    3    3  502    0 -0.40810987402E+02 -0.32363306564E+02  0.23435662372E+02  0.57267992590E+02  0.41800000000E+01 0. -1.
         -5    1    3    3    0  502  0.41063857885E+02  0.28467104741E+02 -0.49723821746E+02  0.70615489277E+02  0.41800000000E+01 0. -1.
        -11    1    1    2    0    0  0.14954328642E+02  0.42386544025E+02  0.12763318382E+03  0.13531622472E+03  0.00000000000E+00 0. -1.
         11    1    1    2    0    0 -0.15207199125E+02 -0.38490342203E+02  0.45264371027E+02  0.61332117464E+02  0.00000000000E+00 0.  1.
</event>
<event>
 7    1  0.2693725E-009  0.9822045E+02  0.7561462E-02  0.1284083E+00
          2   -1    0    0  501    0  0.00000000000E+00  0.00000000000E+00  0.15037889675E+03  0.15037889675E+03  0.00000000000E+00 0.  1.
         -2   -1    0    0    0  501 -0.00000000000E+00 -0.00000000000E+00 -0.98608715211E+02  0.98608715211E+02  0.00000000000E+00 0. -1.
         25    2    1    2    0    0 -0.39479482180E+02 -0.35790153441E+02  0.46715076050E+02  0.14376649889E+03  0.12508774231E+03 0.  0.
          5    1    3    3  502    0 -0.63302835913E+01  0.45415929454E+02  0.28295879974E+02  0.54044503532E+02  0.41800000000E+01 0. -1.
         -5    1    3    3    0  502 -0.33149198589E+02 -0.81206082895E+02  0.18419196076E+02  0.89721995354E+02  0.41800000000E+01 0. -1.
        -11    1    1    2    0    0  0.37575533728E+02  0.13068068199E+02 -0.38939626080E+02  0.55668569414E+02  0.00000000000E+00 0. -1.
         11    1    1    2    0    0  0.19039484526E+01  0.22722085242E+02  0.43994731567E+02  0.49552543660E+02  0.00000000000E+00 0.  1.
</event>
<event>
 7    1  0.2693725E-009  0.9948142E+02  0.7561462E-02  0.1281390E+00
          2   -1    0    0  501    0  0.00000000000E+00  0.00000000000E+00  0.10738588600E+04  0.10738588600E+04  0.00000000000E+00 0. -1.
         -2   -1    0    0    0  501 -0.00000000000E+00 -0.00000000000E+00 -0.13680353510E+02  0.13680353510E+02  0.00000000000E+00 0.  1.
         25    2    1    2    0    0  0.11502699832E+02  0.10120286990E+02  0.83345866574E+03  0.84293299781E+03  0.12509180224E+03 0.  0.
          5    1    3    3  502    0  0.55402708094E+02 -0.25205148258E+02  0.58280920420E+03  0.58599385702E+03  0.41800000000E+01 0.  1.
         -5    1    3    3    0  502 -0.43900008262E+02  0.35325435248E+02  0.25064946154E+03  0.25693914079E+03  0.41800000000E+01 0.  1.
        -11    1    1    2    0    0 -0.31373019649E+02 -0.36688374566E+02  0.18558000379E+03  0.19175568048E+03  0.00000000000E+00 0. -1.
         11    1    1    2    0    0  0.19870319817E+02  0.26568087576E+02  0.41139836933E+02  0.52850535191E+02  0.00000000000E+00 0.  1.
</event>
<event>
 7    1  0.2693725E-009  0.7363379E+02  0.7561462E-02  0.1348155E+00
          1   -1    0    0  501    0  0.00000000000E+00  0.00000000000E+00  0.14799166462E+03  0.14799166462E+03  0.00000000000E+00 0. -1.
         -1   -1    0    0    0  501 -0.00000000000E+00 -0.00000000000E+00 -0.89260103939E+02  0.89260103939E+02  0.00000000000E+00 0.  1.
         25    2    1    2    0    0  0.18044949273E+02  0.14312433235E+02  0.39143663417E+00  0.12719478513E+03  0.12509154329E+03 0.  0.
          5    1    3    3  502    0  0.29773982634E+00 -0.27084429625E+02 -0.51510359046E+02  0.58347617485E+02  0.41800000000E+01 0.  1.
         -5    1    3    3    0  502  0.17747209447E+02  0.41396862860E+02  0.51901795680E+02  0.68847167644E+02  0.41800000000E+01 0.  1.
        -11    1    1    2    0    0  0.20331303875E+02  0.15879314604E+02 -0.86060890331E+01  0.27195207629E+02  0.00000000000E+00 0.  1.
         11    1    1    2    0    0 -0.38376253148E+02 -0.30191747839E+02  0.66946213085E+02  0.82861775806E+02  0.00000000000E+00 0. -1.
</event>
<event>
 7    1  0.2693725E-009  0.1146138E+03  0.7561462E-02  0.1252257E+00
         -2   -1    0    0    0  501 -0.00000000000E+00  0.00000000000E+00  0.24869917785E+02  0.24869917785E+02  0.00000000000E+00 0.  1.
          2   -1    0    0  501    0  0.00000000000E+00 -0.00000000000E+00 -0.60627391880E+03  0.60627391880E+03  0.00000000000E+00 0. -1.
         25    2    1    2    0    0 -0.54539220948E+02 -0.15490475184E+02 -0.36047815628E+03  0.38575346198E+03  0.12508697305E+03 0.  0.
          5    1    3    3  502    0 -0.81215865407E+02 -0.44310748821E+02 -0.19867341145E+03  0.21919866805E+03  0.41800000000E+01 0. -1.
         -5    1    3    3    0  502  0.26676644459E+02  0.28820273637E+02 -0.16180474483E+03  0.16655479393E+03  0.41800000000E+01 0. -1.
        -11    1    1    2    0    0  0.17486265032E+02  0.45944949235E+02 -0.60535976177E+02  0.77982768844E+02  0.00000000000E+00 0.  1.
         11    1    1    2    0    0  0.37052955916E+02 -0.30454474051E+02 -0.16038986855E+03  0.16740760576E+03  0.00000000000E+00 0. -1.
</event>
<event>
 7    1  0.2693725E-009  0.1024300E+03  0.7561462E-02  0.1275267E+00
         -2   -1    0    0    0  501 -0.00000000000E+00  0.00000000000E+00  0.10153992809E+03  0.10153992809E+03  0.00000000000E+00 0.  1.
          2   -1    0    0  501    0  0.00000000000E+00 -0.00000000000E+00 -0.23725926952E+03  0.23725926952E+03  0.00000000000E+00 0. -1.
         25    2    1    2    0    0 -0.46616927918E+02  0.25014947774E+02 -0.17819835074E+03  0.22405909631E+03  0.12509572675E+03 0.  0.
          5    1    3    3  502    0 -0.38028445833E+02 -0.47376064057E+02 -0.99904400633E+02  0.11700006754E+03  0.41800000000E+01 0. -1.
         -5    1    3    3    0  502 -0.85884820852E+01  0.72391011830E+02 -0.78293950107E+02  0.10705902877E+03  0.41800000000E+01 0. -1.
        -11    1    1    2    0    0  0.56117518240E+02 -0.17344700981E+02  0.65930801125E+02  0.88299971928E+02  0.00000000000E+00 0.  1.
         11    1    1    2    0    0 -0.95005903214E+01 -0.76702467924E+01 -0.23451791815E+02  0.26440129380E+02  0.00000000000E+00 0. -1.
</event>
<event>
 7    1  0.2693725E-009  0.1730494E+03  0.7561462E-02  0.1174705E+00
         -2   -1    0    0    0  501 -0.00000000000E+00  0.00000000000E+00  0.36922925310E+02  0.36922925310E+02  0.00000000000E+00 0.  1.
          2   -1    0    0  501    0  0.00000000000E+00 -0.00000000000E+00 -0.95099242100E+03  0.95099242100E+03  0.00000000000E+00 0. -1.
         25    2    1    2    0    0  0.12123187659E+03  0.92136235352E+02 -0.48926973389E+03  0.52746403685E+03  0.12508870413E+03 0.  0.
          5    1    3    3  502    0  0.42258300397E+02 -0.64694177459E+01 -0.33449044008E+02  0.54441971524E+02  0.41800000000E+01 0.  1.
         -5    1    3    3    0  502  0.78973576197E+02  0.98605653098E+02 -0.45582068988E+03  0.47302206532E+03  0.41800000000E+01 0.  1.
        -11    1    1    2    0    0  0.89304051379E+01 -0.32251945293E+02 -0.63486071231E+02  0.71766436107E+02  0.00000000000E+00 0.  1.
         11    1    1    2    0    0 -0.13016228173E+03 -0.59884290059E+02 -0.36131369057E+03  0.38868487335E+03  0.00000000000E+00 0. -1.
</event>
<event>
 7    1  0.2693725E-009  0.1180550E+03  0.7561462E-02  0.1246341E+00
          2   -1    0    0  501    0  0.00000000000E+00  0.00000000000E+00  0.25905297079E+03  0.25905297079E+03  0.00000000000E+00 0.  1.
         -2   -1    0    0    0  501 -0.00000000000E+00 -0.00000000000E+00 -0.81852706338E+02  0.81852706338E+02  0.00000000000E+00 0. -1.
         25    2    1    2    0    0  0.82370013498E+02 -0.40916776929E+02  0.57319442893E+02  0.16550403863E+03  0.12508823491E+03 0.  0.
          5    1    3    3  502    0  0.67160392491E+02 -0.65686109452E+02  0.83804220066E+02  0.12595952920E+03  0.41800000000E+01 0. -1.
         -5    1    3    3    0  502  0.15209621006E+02  0.24769332523E+02 -0.26484777172E+02  0.39544509438E+02  0.41800000000E+01 0. -1.
        -11    1    1    2    0    0 -0.15182726317E+02 -0.17859627607E+02 -0.28781422233E+01  0.23617052723E+02  0.00000000000E+00 0. -1.
         11    1    1    2    0    0 -0.67187287181E+02  0.58776404535E+02  0.12275896379E+03  0.15178458577E+03  0.00000000000E+00 0.  1.
</event>
<event>
 7    1  0.2693725E-009  0.1556093E+03  0.7561462E-02  0.1193745E+00
          2   -1    0    0  501    0  0.00000000000E+00  0.00000000000E+00  0.48675519961E+03  0.48675519961E+03  0.00000000000E+00 0.  1.
         -2   -1    0    0    0  501 -0.00000000000E+00 -0.00000000000E+00 -0.71781650249E+02  0.71781650249E+02  0.00000000000E+00 0. -1.
         25    2    1    2    0    0  0.39991041484E+02 -0.11147631300E+03  0.76390106178E+02  0.18843459467E+03  0.12508355762E+03 0.  0.
          5    1    3    3  502    0  0.74023353386E+02 -0.36217554211E+02  0.11495225052E+02  0.83311347838E+02  0.41800000000E+01 0.  1.
         -5    1    3    3    0  502 -0.34032311903E+02 -0.75258758785E+02  0.64894881126E+02  0.10512324683E+03  0.41800000000E+01 0.  1.
        -11    1    1    2    0    0 -0.32627284112E+02  0.12576484181E+03  0.32089674083E+03  0.34620233012E+03  0.00000000000E+00 0.  1.
         11    1    1    2    0    0 -0.73637573717E+01 -0.14288528818E+02  0.17686702354E+02  0.23899925075E+02  0.00000000000E+00 0. -1.
</event>
<event>
 7    1  0.2693725E-009  0.9026372E+02  0.7561462E-02  0.1302214E+00
         -2   -1    0    0    0  501 -0.00000000000E+00  0.00000000000E+00  0.19889062480E+03  0.19889062480E+03  0.00000000000E+00 0.  1.
          2   -1    0    0  501    0  0.00000000000E+00 -0.00000000000E+00 -0.73053687591E+02  0.73053687591E+02  0.00000000000E+00 0. -1.
         25    2    1    2    0    0 -0.49564280205E+02  0.14369474919E+02  0.57161556515E+02  0.14688376511E+03  0.12507716509E+03 0.  0.
          5    1    3    3  502    0 -0.31074910550E+02  0.40122784340E+02 -0.26439251669E+02  0.57375903633E+02  0.41800000000E+01 0.  1.
         -5    1    3    3    0  502 -0.18489369655E+02 -0.25753309421E+02  0.83600808184E+02  0.89507861473E+02  0.41800000000E+01 0.  1.
        -11    1    1    2    0    0  0.41343248523E+02  0.30902676131E+02  0.58350329989E+02  0.77903790667E+02  0.00000000000E+00 0.  1.
         11    1    1    2    0    0  0.82210316825E+01 -0.45272151051E+02  0.10325050707E+02  0.47156756619E+02  0.00000000000E+00 0. -1.
</event>
<event>
 7    1  0.2693725E-009  0.1852350E+03  0.7561462E-02  0.1162831E+00
         -2   -1    0    0    0  501 -0.00000000000E+00  0.00000000000E+00  0.50899991013E+02  0.50899991013E+02  0.00000000000E+00 0. -1.
          2   -1    0    0  501    0  0.00000000000E+00 -0.00000000000E+00 -0.74054999467E+03  0.74054999467E+03  0.00000000000E+00 0.  1.
         25    2    1    2    0    0  0.15749675393E+03  0.22450865571E+02 -0.33021666865E+03  0.38729694720E+03  0.12508640293E+03 0.  0.
          5    1    3    3  502    0  0.11219767845E+03  0.73103146212E+02 -0.20854593117E+03  0.24787348960E+03  0.41800000000E+01 0.  1.
         -5    1    3    3    0  502  0.45299075478E+02 -0.50652280641E+02 -0.12167073747E+03  0.13942345761E+03  0.41800000000E+01 0.  1.
        -11    1    1    2    0    0 -0.87823242113E+02  0.15333231264E+02 -0.27154035598E+03  0.28580097054E+03  0.00000000000E+00 0.  1.
         11    1    1    2    0    0 -0.69673511817E+02 -0.37784096836E+02 -0.87892979024E+02  0.11835206793E+03  0.00000000000E+00 0. -1.
</event>
<event>
 7    1  0.2693725E-009  0.1347824E+03  0.7561462E-02  0.1220527E+00
         -2   -1    0    0    0  501 -0.00000000000E+00  0.00000000000E+00  0.46260716266E+02  0.46260716266E+02  0.00000000000E+00 0. -1.
          2   -1    0    0  501    0  0.00000000000E+00 -0.00000000000E+00 -0.62695700751E+03  0.62695700751E+03  0.00000000000E+00 0.  1.
         25    2    1    2    0    0 -0.12318708202E+03  0.11884515815E+02 -0.39118251246E+03  0.42893589922E+03  0.12508376673E+03 0.  0.
          5    1    3    3  502    0 -0.10883898959E+01  0.22036371120E+02 -0.20367910890E+03  0.20491324517E+03  0.41800000000E+01 0.  1.
         -5    1    3    3    0  502 -0.12209869212E+03 -0.10151855304E+02 -0.18750340356E+03  0.22402265406E+03  0.41800000000E+01 0.  1.
        -11    1    1    2    0    0  0.38869796332E+02  0.26372117640E+01 -0.29930487485E+01  0.39073959277E+02  0.00000000000E+00 0. -1.
         11    1    1    2    0    0  0.84317285683E+02 -0.14521727579E+02 -0.18652073004E+03  0.20520786528E+03  0.00000000000E+00 0.  1.
</event>
<event>
 7    1  0.2693725E-009  0.9910787E+02  0.7561462E-02  0.1282183E+00
         -1   -1    0    0    0  501 -0.00000000000E+00  0.00000000000E+00  0.60479229745E+02  0.60479229745E+02  0.00000000000E+00 0.  1.
          1   -1    0    0  501    0  0.00000000000E+00 -0.00000000000E+00 -0.20932899809E+03  0.20932899809E+03  0.00000000000E+00 0. -1.
         25    2    1    2    0    0 -0.19629620268E+02 -0.13480400605E+02 -0.58318167315E+02  0.14005589221E+03  0.12509037177E+03 0.  0.
          5    1    3    3  502    0 -0.47883879691E+02 -0.48442326084E+02 -0.25295841979E+01  0.68289062718E+02  0.41800000000E+01 0.  1.
         -5    1    3    3    0  502  0.28254259423E+02  0.34961925478E+02 -0.55788583117E+02  0.71766829489E+02  0.41800000000E+01 0.  1.
        -11    1    1    2    0    0  0.46125193600E+02 -0.12428409418E+02 -0.23681723746E+02  0.53318129045E+02  0.00000000000E+00 0.  1.
         11    1    1    2    0    0 -0.26495573331E+02  0.25908810024E+02 -0.66849877284E+02  0.76434206582E+02  0.00000000000E+00 0. -1.
</event>
<event>
 7    1  0.2693725E-009  0.1129215E+03  0.7561462E-02  0.1255253E+00
         -4   -1    0    0    0  501 -0.00000000000E+00  0.00000000000E+00  0.10564910938E+03  0.10564910938E+03  0.00000000000E+00 0. -1.
          4   -1    0    0  501    0  0.00000000000E+00 -0.00000000000E+00 -0.14561499351E+03  0.14561499351E+03  0.00000000000E+00 0.  1.
         25    2    1    2    0    0  0.46466416119E+02 -0.19349418423E+02 -0.53824831511E+02  0.14518245740E+03  0.12508919070E+03 0.  0.
          5    1    3    3  502    0  0.80786381343E+02  0.22566169376E+01 -0.43066917821E+01  0.81040432653E+02  0.41800000000E+01 0. -1.
         -5    1    3    3    0  502 -0.34319965224E+02 -0.21606035360E+02 -0.49518139729E+02  0.64142024751E+02  0.41800000000E+01 0. -1.
        -11    1    1    2    0    0 -0.73477249051E+02  0.22761527404E+02  0.36616131939E+01  0.77009094717E+02  0.00000000000E+00 0.  1.
         11    1    1    2    0    0  0.27010832932E+02 -0.34121089814E+01  0.10197334190E+02  0.29072550765E+02  0.00000000000E+00 0. -1.
</event>
<event>
 7    1  0.2693725E-009  0.1166757E+03  0.7561462E-02  0.1248684E+00
         -2   -1    0    0    0  501 -0.00000000000E+00  0.00000000000E+00  0.34159551275E+02  0.34159551275E+02  0.00000000000E+00 0.  1.
          2   -1    0    0  501    0  0.00000000000E+00 -0.00000000000E+00 -0.62368536283E+03  0.62368536283E+03  0.00000000000E+00 0. -1.
         25    2    1    2    0    0  0.90940107388E+02 -0.11056008343E+02 -0.24901675741E+03  0.29333905543E+03  0.12508444156E+03 0.  0.
          5    1    3    3  502    0  0.42993446316E+02 -0.28948096428E+02 -0.15523547233E+02  0.54266763600E+02  0.41800000000E+01 0.  1.
         -5    1    3    3    0  502  0.47946661072E+02  0.17892088085E+02 -0.23349321017E+03  0.23907229183E+03  0.41800000000E+01 0.  1.
        -11    1    1    2    0    0 -0.24588390930E+02  0.48095064387E+02 -0.13587583831E+03  0.14621890310E+03  0.00000000000E+00 0.  1.
         11    1    1    2    0    0 -0.66351716458E+02 -0.37039056044E+02 -0.20463321584E+03  0.21828695558E+03  0.00000000000E+00 0. -1.
</event>
<event>
 7    1  0.2693725E-009  0.8578792E+02  0.7561462E-02  0.1313385E+00
          1   -1    0    0  501    0  0.00000000000E+00  0.00000000000E+00  0.14935167517E+03  0.14935167517E+03  0.00000000000E+00 0. -1.
         -1   -1    0    0    0  501 -0.00000000000E+00 -0.00000000000E+00 -0.16224109488E+03  0.16224109488E+03  0.00000000000E+00 0.  1.
         25    2    1    2    0    0  0.14906147313E+02 -0.55490287448E+02 -0.10360673709E+03  0.17228832918E+03  0.12509015618E+03 0.  0.
          5    1    3    3  502    0 -0.78762339604E+01 -0.45637185207E+02 -0.12864113201E+03  0.13678742990E+03  0.41800000000E+01 0.  1.
         -5    1    3    3    0  502  0.22782381274E+02 -0.98531022401E+01  0.25034394922E+02  0.35500899275E+02  0.41800000000E+01 0.  1.
        -11    1    1    2    0    0 -0.48678952941E+02  0.38701916910E+02  0.77440799889E+02  0.99320472811E+02  0.00000000000E+00 0. -1.
         11    1    1    2    0    0  0.33772805627E+02  0.16788370538E+02  0.13276517487E+02  0.39983968060E+02  0.00000000000E+00 0.  1.
</event>
<event>
 7    1  0.2693725E-009  0.1200844E+03  0.7561462E-02  0.1242958E+00
         -2   -1    0    0    0  501 -0.00000000000E+00  0.00000000000E+00  0.91568219322E+02  0.91568219322E+02  0.00000000000E+00 0.  1.
          2   -1    0    0  501    0  0.00000000000E+00 -0.00000000000E+00 -0.28586999575E+03  0.28586999575E+03  0.00000000000E+00 0. -1.
         25    2    1    2    0    0  0.74066686202E+02 -0.64639284155E+02 -0.12826645426E+03  0.20436148420E+03  0.12508885592E+03 0.  0.
          5    1    3    3  502    0  0.53848232992E+02 -0.85262993951E+02 -0.35304148422E+02  0.10692644963E+03  0.41800000000E+01 0. -1.
         -5    1    3    3    0  502  0.20218453211E+02  0.20623709796E+02 -0.92962305839E+02  0.97435034576E+02  0.41800000000E+01 0. -1.
        -11    1    1    2    0    0 -0.30847123354E+01  0.31620786113E+02 -0.86508586079E+02  0.92158152271E+02  0.00000000000E+00 0. -1.
         11    1    1    2    0    0 -0.70981973867E+02  0.33018498042E+02  0.20473263913E+02  0.80918578598E+02  0.00000000000E+00 0.  1.
</event>
<event>
 7    1  0.2693725E-009  0.1462089E+03  0.7561462E-02  0.1205210E+00
         -2   -1    0    0    0  501 -0.00000000000E+00  0.00000000000E+00  0.46134927156E+03  0.46134927156E+03  0.00000000000E+00 0.  1.
          2   -1    0    0  501    0  0.00000000000E+00 -0.00000000000E+00 -0.70026204237E+02  0.70026204237E+02  0.00000000000E+00 0. -1.
         25    2    1    2    0    0  0.99191804403E+02  0.10093565437E+03  0.20204912880E+03  0.27658352766E+03  0.12509027514E+03 0.  0.
          5    1    3    3  502    0  0.51048062991E+02  0.64287117071E+02  0.19855580469E+02  0.84560360880E+02  0.41800000000E+01 0. -1.
         -5    1    3    3    0  502  0.48143741412E+02  0.36648537299E+02  0.18219354833E+03  0.19202316677E+03  0.41800000000E+01 0. -1.
        -11    1    1    2    0    0 -0.19361050599E+02 -0.53068761290E+02  0.13664655687E+03  0.14786285947E+03  0.00000000000E+00 0.  1.
         11    1    1    2    0    0 -0.79830753804E+02 -0.47866893081E+02  0.52627381651E+02  0.10692908868E+03  0.00000000000E+00 0. -1.
</event>
<event>
 7    1  0.2693725E-009  0.2787463E+03  0.7561462E-02  0.1096376E+00
          1   -1    0    0  501    0  0.00000000000E+00  0.00000000000E+00  0.48109115413E+03  0.48109115413E+03  0.00000000000E+00 0. -1.
         -1   -1    0    0    0  501 -0.00000000000E+00 -0.00000000000E+00 -0.16348280701E+03  0.16348280701E+03  0.00000000000E+00 0.  1.
         25    2    1    2    0    0 -0.20931694692E+03 -0.14433570612E+03  0.18526097665E+03  0.33854921288E+03  0.12509020644E+03 0.  0.
          5    1    3    3  502    0 -0.10162562530E+03 -0.14086730645E+03  0.95598320136E+02  0.19831257387E+03  0.41800000000E+01 0.  1.
         -5    1    3    3    0  502 -0.10769132162E+03 -0.34683996744E+01  0.89662656509E+02  0.14023663901E+03  0.41800000000E+01 0.  1.
        -11    1    1    2    0    0  0.17122896170E+03  0.56720354665E+02  0.85203559638E+02  0.19948985572E+03  0.00000000000E+00 0. -1.
         11    1    1    2    0    0  0.38087985212E+02  0.87615351456E+02  0.47143810836E+02  0.10653489254E+03  0.00000000000E+00 0.  1.
</event>
<event>
 7    1  0.2693725E-009  0.6962968E+02  0.7561462E-02  0.1361357E+00
          1   -1    0    0  501    0  0.00000000000E+00  0.00000000000E+00  0.53615759217E+02  0.53615759217E+02  0.00000000000E+00 0. -1.
         -1   -1    0    0    0  501 -0.00000000000E+00 -0.00000000000E+00 -0.28038371972E+03  0.28038371972E+03  0.00000000000E+00 0.  1.
         25    2    1    2    0    0 -0.50802347420E+02 -0.67296425932E+01 -0.17666616083E+03  0.22245150148E+03  0.12509025355E+03 0.  0.
          5    1    3    3  502    0 -0.26910027190E+01  0.14070118493E+02  0.16505626401E+02  0.22251243401E+02  0.41800000000E+01 0. -1.
         -5    1    3    3    0  502 -0.48111344701E+02 -0.20799761086E+02 -0.19317178723E+03  0.20020025807E+03  0.41800000000E+01 0. -1.
        -11    1    1    2    0    0  0.58874552217E+02 -0.31965716449E+01 -0.67709323633E+02  0.89782979878E+02  0.00000000000E+00 0.  1.
         11    1    1    2    0    0 -0.80722047961E+01  0.99262142382E+01  0.17607523967E+02  0.21764997579E+02  0.00000000000E+00 0. -1.
</event>
<event>
 7    1  0.2693725E-009  0.1241961E+03  0.7561462E-02  0.1236331E+00
         -1   -1    0    0    0  501 -0.00000000000E+00  0.00000000000E+00  0.20624823241E+03  0.20624823241E+03  0.00000000000E+00 0.  1.
          1   -1    0    0  501    0  0.00000000000E+00 -0.00000000000E+00 -0.10435747719E+03  0.10435747719E+03  0.00000000000E+00 0. -1.
         25    2    1    2    0    0 -0.46340057541E+01 -0.66306473121E+02  0.13281923320E+03  0.19418190636E+03  0.12509053386E+03 0.  0.
          5    1    3    3  502    0  0.43171199624E+02 -0.76041952514E+02  0.10879017245E+03  0.13963847980E+03  0.41800000000E+01 0. -1.
         -5    1    3    3    0  502 -0.47805205378E+02  0.97354793927E+01  0.24029060748E+02  0.54543426558E+02  0.41800000000E+01 0. -1.
        -11    1    1    2    0    0 -0.15829404051E+02  0.83604579487E+02 -0.19514401841E+02  0.87298955452E+02  0.00000000000E+00 0.  1.
         11    1    1    2    0    0  0.20463409805E+02 -0.17298106366E+02 -0.11414076142E+02  0.29124847791E+02  0.00000000000E+00 0. -1.
</event>
<event>
 7    1  0.2693725E-009  0.1302764E+03  0.7561462E-02  0.1227046E+00
         -2   -1    0    0    0  501 -0.00000000000E+00  0.00000000000E+00  0.60751629792E+02  0.60751629792E+02  0.00000000000E+00 0. -1.
          2   -1    0    0  501    0  0.00000000000E+00 -0.00000000000E+00 -0.32712703649E+03  0.32712703649E+03  0.00000000000E+00 0.  1.
         25    2    1    2    0    0  0.62539597250E+02 -0.59316624112E+02 -0.11234949065E+03  0.18894312221E+03  0.12508969687E+03 0.  0.
          5    1    3    3  502    0 -0.17381694131E+01 -0.78191653741E+02 -0.87336594142E+02  0.11731201568E+03  0.41800000000E+01 0.  1.
         -5    1    3    3    0  502  0.64277766663E+02  0.18875029629E+02 -0.25012896508E+02  0.71631106528E+02  0.41800000000E+01 0.  1.
        -11    1    1    2    0    0  0.12458071282E+02  0.33581625613E+02 -0.14883909334E+02  0.38787367479E+02  0.00000000000E+00 0.  1.
         11    1    1    2    0    0 -0.74997668533E+02  0.25734998499E+02 -0.13914200672E+03  0.16014817659E+03  0.00000000000E+00 0. -1.
</event>
<event>
 7    1  0.2693725E-009  0.8730166E+02  0.7561462E-02  0.1309521E+00
          1   -1    0    0  501    0  0.00000000000E+00  0.00000000000E+00  0.64812552586E+03  0.64812552586E+03  0.00000000000E+00 0. -1.
         -1   -1    0    0    0  501 -0.00000000000E+00 -0.00000000000E+00 -0.20062351407E+02  0.20062351407E+02  0.00000000000E+00 0.  1.
         25    2    1    2    0    0  0.30870815400E+02 -0.60941687260E+01  0.43629417838E+03  0.45495630099E+03  0.12506989880E+03 0.  0.
          5    1    3    3  502    0 -0.48236642365E+01 -0.56130966900E+02  0.11889543302E+03  0.13163415048E+03  0.41800000000E+01 0. -1.
         -5    1    3    3    0  502  0.35694479637E+02  0.50036798174E+02  0.31739874536E+03  0.32332215050E+03  0.41800000000E+01 0. -1.
        -11    1    1    2    0    0 -0.64437117440E+01  0.24872834147E+02  0.80189064675E+01  0.26916206279E+02  0.00000000000E+00 0.  1.
         11    1    1    2    0    0 -0.24427103656E+02 -0.18778665421E+02  0.18375008961E+03  0.18631537000E+03  0.00000000000E+00 0. -1.
</event>
<event>
 7    1  0.2693725E-009  0.1120475E+03  0.7561462E-02  0.1256825E+00
          1   -1    0    0  501    0  0.00000000000E+00  0.00000000000E+00  0.39872835214E+02  0.39872835214E+02  0.00000000000E+00 0. -1.
         -1   -1    0    0    0  501 -0.00000000000E+00 -0.00000000000E+00 -0.41761450829E+03  0.41761450829E+03  0.00000000000E+00 0.  1.
         25    2    1    2    0    0 -0.59492494831E+02  0.20514370802E+02 -0.16088558385E+03  0.21329067804E+03  0.12509414814E+03 0.  0.
          5    1    3    3  502    0  0.14476314735E+01  0.61461094050E+02 -0.46046078543E+02  0.76923829000E+02  0.41800000000E+01 0. -1.
         -5    1    3    3    0  502 -0.60940126305E+02 -0.40946723248E+02 -0.11483950531E+03  0.13636684904E+03  0.41800000000E+01 0. -1.
        -11    1    1    2    0    0  0.43192426770E+02 -0.43143384485E+02 -0.20499234337E+03  0.21388968698E+03  0.00000000000E+00 0.  1.
         11    1    1    2    0    0  0.16300068062E+02  0.22629013683E+02 -0.11863745855E+02  0.30306978483E+02  0.00000000000E+00 0. -1.
</event>
<event>
 7    1  0.2693725E-009  0.1080633E+03  0.7561462E-02  0.1264199E+00
          1   -1    0    0  501    0  0.00000000000E+00  0.00000000000E+00  0.53105248113E+02  0.53105248113E+02  0.00000000000E+00 0. -1.
         -1   -1    0    0    0  501 -0.00000000000E+00 -0.00000000000E+00 -0.27345979677E+03  0.27345979677E+03  0.00000000000E+00 0.  1.
         25    2    1    2    0    0  0.11639593639E+02 -0.63406965000E+02 -0.10674617107E+03  0.17662754544E+03  0.12508645578E+03 0.  0.
          5    1    3    3  502    0 -0.37452280904E+02  0.18870206070E+02 -0.17533890966E+02  0.45647209711E+02  0.41800000000E+01 0.  1.
         -5    1    3    3    0  502  0.49091874543E+02 -0.82277171070E+02 -0.89212280107E+02  0.13098033573E+03  0.41800000000E+01 0.  1.
        -11    1    1    2    0    0  0.16584663473E+02  0.16895915515E+02 -0.85466591609E+02  0.88685180864E+02  0.00000000000E+00 0. -1.
         11    1    1    2    0    0 -0.28224257112E+02  0.46511049486E+02 -0.28141785978E+02  0.61252318583E+02  0.00000000000E+00 0.  1.
</event>
<event>
 7    1  0.2693725E-009  0.1270397E+03  0.7561462E-02  0.1231916E+00
         -1   -1    0    0    0  501 -0.00000000000E+00  0.00000000000E+00  0.22236795846E+02  0.22236795846E+02  0.00000000000E+00 0.  1.
          1   -1    0    0  501    0  0.00000000000E+00 -0.00000000000E+00 -0.96393759861E+03  0.96393759861E+03  0.00000000000E+00 0. -1.
         25    2    1    2    0    0 -0.26167954629E+02 -0.77435696714E+02 -0.32832468773E+03  0.36072971126E+03  0.12509106698E+03 0.  0.
          5    1    3    3  502    0 -0.37164942741E+02 -0.10030911070E+03 -0.17414307117E+03  0.20441729941E+03  0.41800000000E+01 0.  1.
         -5    1    3    3    0  502  0.10996988112E+02  0.22873413990E+02 -0.15418161656E+03  0.15631241185E+03  0.41800000000E+01 0.  1.
        -11    1    1    2    0    0  0.26905727743E+02 -0.13680742582E+02 -0.12098048232E+03  0.12468904525E+03  0.00000000000E+00 0.  1.
         11    1    1    2    0    0 -0.73777311410E+00  0.91116439297E+02 -0.49239563272E+03  0.50075563795E+03  0.00000000000E+00 0. -1.
</event>
<event>
 7    1  0.2693725E-009  0.9453744E+02  0.7561462E-02  0.1292221E+00
         -2   -1    0    0    0  501 -0.00000000000E+00  0.00000000000E+00  0.64142650515E+02  0.64142650515E+02  0.00000000000E+00 0.  1.
          2   -1    0    0  501    0  0.00000000000E+00 -0.00000000000E+00 -0.18176408382E+03  0.18176408382E+03  0.00000000000E+00 0. -1.
         25    2    1    2    0    0 -0.14272041009E+02  0.11995931071E+02 -0.46913600715E+02  0.13489195663E+03  0.12508941009E+03 0.  0.
          5    1    3    3  502    0 -0.25503553532E+02  0.58055308160E+02  0.58722444026E+01  0.63818537297E+02  0.41800000000E+01 0. -1.
         -5    1    3    3    0  502  0.11231512523E+02 -0.46059377090E+02 -0.52785845117E+02  0.71073419337E+02  0.41800000000E+01 0. -1.
        -11    1    1    2    0    0  0.39912423929E+02  0.13148235372E+02 -0.60533030540E+02  0.73689385013E+02  0.00000000000E+00 0. -1.
         11    1    1    2    0    0 -0.25640382920E+02 -0.25144166443E+02 -0.10174802047E+02  0.37325392685E+02  0.00000000000E+00 0.  1.
</event>
<event>
 7    1  0.2693725E-009  0.2219699E+03  0.7561462E-02  0.1132423E+00
          2   -1    0    0  501    0  0.00000000000E+00  0.00000000000E+00  0.22252085489E+03  0.22252085489E+03  0.00000000000E+00 0. -1.
         -2   -1    0    0    0  501 -0.00000000000E+00 -0.00000000000E+00 -0.23703842266E+03  0.23703842266E+03  0.00000000000E+00 0.  1.
         25    2    1    2    0    0 -0.83439383879E+02  0.17758873352E+03  0.40533881435E+02  0.23619952237E+03  0.12508928719E+03 0.  0.
          5    1    3    3  502    0 -0.89878576259E+00  0.13604307732E+03  0.45637748293E+02  0.14355766497E+03  0.41800000000E+01 0.  1.
         -5    1    3    3    0  502 -0.82540598116E+02  0.41545656202E+02 -0.51038668582E+01  0.92641857405E+02  0.41800000000E+01 0.  1.
        -11    1    1    2    0    0  0.47763084665E+02 -0.17286332172E+03 -0.37078398191E+02  0.18313341548E+03  0.00000000000E+00 0.  1.
         11    1    1    2    0    0  0.35676299213E+02 -0.47254117987E+01 -0.17973051016E+02  0.40226339692E+02  0.00000000000E+00 0. -1.
</event>
<event>
 7    1  0.2693725E-009  0.1104509E+03  0.7561462E-02  0.1259737E+00
          1   -1    0    0  501    0  0.00000000000E+00  0.00000000000E+00  0.75323563380E+02  0.75323563380E+02  0.00000000000E+00 0. -1.
         -1   -1    0    0    0  501 -0.00000000000E+00 -0.00000000000E+00 -0.18824848248E+03  0.18824848248E+03  0.00000000000E+00 0.  1.
         25    2    1    2    0    0  0.50034640323E+02  0.10186837730E+01 -0.68921200668E+02  0.15132799322E+03  0.12508207978E+03 0.  0.
          5    1    3    3  502    0 -0.35413011056E+02  0.10752038357E+02 -0.51377454493E+02  0.63457095041E+02  0.41800000000E+01 0. -1.
         -5    1    3    3    0  502  0.85447651379E+02 -0.97333545838E+01 -0.17543746175E+02  0.87870898183E+02  0.41800000000E+01 0. -1.
        -11    1    1    2    0    0  0.15149025190E+02  0.23460815719E+02 -0.30434095691E+02  0.41305411497E+02  0.00000000000E+00 0.  1.
         11    1    1    2    0    0 -0.65183665513E+02 -0.24479499492E+02 -0.13569622738E+02  0.70938641137E+02  0.00000000000E+00 0. -1.
</event>
<event>
 7    1  0.2693725E-009  0.1641531E+03  0.7561462E-02  0.1184086E+00
         -2   -1    0    0    0  501 -0.00000000000E+00  0.00000000000E+00  0.27274725475E+03  0.27274725475E+03  0.00000000000E+00 0.  1.
          2   -1    0    0  501    0  0.00000000000E+00 -0.00000000000E+00 -0.13121739076E+03  0.13121739076E+03  0.00000000000E+00 0. -1.
         25    2    1    2    0    0 -0.14080916231E+03  0.50390428609E+02  0.11529363728E+03  0.22650560137E+03  0.12508296914E+03 0.  0.
          5    1    3    3  502    0 -0.44729292304E+02 -0.28346451198E+02  0.82224085748E+02  0.97890262859E+02  0.41800000000E+01 0.  1.
         -5    1    3    3    0  502 -0.96079870005E+02  0.78736879807E+02  0.33069551532E+02  0.12861533851E+03  0.41800000000E+01 0.  1.
        -11    1    1    2    0    0  0.31243369192E+02 -0.25713852998E+01  0.46627441915E+02  0.56186105759E+02  0.00000000000E+00 0.  1.
         11    1    1    2    0    0  0.10956579312E+03 -0.47819043309E+02 -0.20391215206E+02  0.12127293837E+03  0.00000000000E+00 0. -1.
</event>
<event>
 7    1  0.2693725E-009  0.1714639E+03  0.7561462E-02  0.1176330E+00
          2   -1    0    0  501    0  0.00000000000E+00  0.00000000000E+00  0.91217172866E+03  0.91217172866E+03  0.00000000000E+00 0. -1.
         -2   -1    0    0    0  501 -0.00000000000E+00 -0.00000000000E+00 -0.39279749739E+02  0.39279749739E+02  0.00000000000E+00 0.  1.
         25    2    1    2    0    0 -0.81699782892E+02  0.12986547030E+03  0.49987071791E+03  0.53764217688E+03  0.12509388807E+03 0.  0.
          5    1    3    3  502    0 -0.73228021406E+01  0.63494630325E+02  0.64180668173E+02  0.90674263595E+02  0.41800000000E+01 0.  1.
         -5    1    3    3    0  502 -0.74376980752E+02  0.66370839979E+02  0.43569004974E+03  0.44696791328E+03  0.41800000000E+01 0.  1.
        -11    1    1    2    0    0  0.53701076402E+02 -0.82797640763E+01  0.11734456786E+03  0.12931398882E+03  0.00000000000E+00 0. -1.
         11    1    1    2    0    0  0.27998706490E+02 -0.12158570623E+03  0.25567669316E+03  0.28449531270E+03  0.00000000000E+00 0.  1.
</event>
<event>
 7    1  0.2693725E-009  0.1613361E+03  0.7561462E-02  0.1187197E+00
         -1   -1    0    0    0  501 -0.00000000000E+00  0.00000000000E+00  0.80502251325E+02  0.80502251325E+02  0.00000000000E+00 0.  1.
          1   -1    0    0  501    0  0.00000000000E+00 -0.00000000000E+00 -0.44724715016E+03  0.44724715016E+03  0.00000000000E+00 0. -1.
         25    2    1    2    0    0  0.77242345876E+02 -0.12784367159E+03 -0.25405426616E+03  0.32016140496E+03  0.12509744486E+03 0.  0.
          5    1    3    3  502    0  0.24972205948E+02 -0.28872044641E+02 -0.18419693739E+03  0.18815735482E+03  0.41800000000E+01 0.  1.
         -5    1    3    3    0  502  0.52270139928E+02 -0.98971626950E+02 -0.69857328774E+02  0.13200405014E+03  0.41800000000E+01 0.  1.
        -11    1    1    2    0    0 -0.69218658717E+02  0.32296267415E+02 -0.65970184081E+02  0.10092738375E+03  0.00000000000E+00 0. -1.
         11    1    1    2    0    0 -0.80236871590E+01  0.95547404176E+02 -0.46720448596E+02  0.10666061277E+03  0.00000000000E+00 0.  1.
</event>
<event>
 7    1  0.2693725E-009  0.8744669E+02  0.7561462E-02  0.1309155E+00
          1   -1    0    0  501    0  0.00000000000E+00  0.00000000000E+00  0.10794049236E+03  0.10794049236E+03  0.00000000000E+00 0. -1.
         -1   -1    0    0    0  501 -0.00000000000E+00 -0.00000000000E+00 -0.18755477589E+03  0.18755477589E+03  0.00000000000E+00 0.  1.
         25    2    1    2    0    0 -0.43458500042E+02  0.16989129988E+02  0.38353817814E+02  0.13890504535E+03  0.12508526900E+03 0.  0.
          5    1    3    3  502    0  0.25585368802E+01  0.35679237662E+02  0.70798598927E+02  0.79432160496E+02  0.41800000000E+01 0.  1.
         -5    1    3    3    0  502 -0.46017036922E+02 -0.18690107674E+02 -0.32444781113E+02  0.59472884859E+02  0.41800000000E+01 0.  1.
        -11    1    1    2    0    0  0.29648198817E+02  0.28724925836E+02 -0.16519390625E+02  0.44463775413E+02  0.00000000000E+00 0.  1.
         11    1    1    2    0    0  0.13810301225E+02 -0.45714055824E+02 -0.10144871072E+03  0.11212644749E+03  0.00000000000E+00 0. -1.
</event>
<event>
 7    1  0.2693725E-009  0.1299960E+03  0.7561462E-02  0.1227462E+00
          1   -1    0    0  501    0  0.00000000000E+00  0.00000000000E+00  0.12216855674E+03  0.12216855674E+03  0.00000000000E+00 0. -1.
         -1   -1    0    0    0  501 -0.00000000000E+00 -0.00000000000E+00 -0.20614560128E+03  0.20614560128E+03  0.00000000000E+00 0.  1.
         25    2    1    2    0    0  0.76257097932E+02 -0.84213169083E+02 -0.23393572876E+02  0.17059328704E+03  0.12509119672E+03 0.  0.
          5    1    3    3  502    0  0.68127308148E+02 -0.46242144108E+02  0.43436828799E+02  0.93187426744E+02  0.41800000000E+01 0.  1.
         -5    1    3    3    0  502  0.81297897840E+01 -0.37971024975E+02 -0.66830401675E+02  0.77405860292E+02  0.41800000000E+01 0.  1.
        -11    1    1    2    0    0 -0.83401738723E+02  0.94453311981E+02 -0.68015629130E+02  0.14319009733E+03  0.00000000000E+00 0.  1.
         11    1    1    2    0    0  0.71446407911E+01 -0.10240142899E+02  0.74321574690E+01  0.14530773664E+02  0.00000000000E+00 0. -1.
</event>
<event>
 7    1  0.2693725E-009  0.9735008E+02  0.7561462E-02  0.1285969E+00
         -1   -1    0    0    0  501 -0.00000000000E+00  0.00000000000E+00  0.15750899641E+03  0.15750899641E+03  0.00000000000E+00 0.  1.
          1   -1    0    0  501    0  0.00000000000E+00 -0.00000000000E+00 -0.14411328040E+03  0.14411328040E+03  0.00000000000E+00 0. -1.
         25    2    1    2    0    0  0.61588340299E+02 -0.91612698919E+01 -0.75474121987E+02  0.15882320447E+03  0.12510561403E+03 0.  0.
          5    1    3    3  502    0  0.12608516829E+02 -0.29984254909E+02 -0.96137773998E+02  0.10157742972E+03  0.41800000000E+01 0.  1.
         -5    1    3    3    0  502  0.48979823470E+02  0.20822985017E+02  0.20663652011E+02  0.57245774749E+02  0.41800000000E+01 0.  1.
        -11    1    1    2    0    0  0.23126276592E+02 -0.12897624885E+01  0.34645923543E+02  0.41675270538E+02  0.00000000000E+00 0.  1.
         11    1    1    2    0    0 -0.84714616891E+02  0.10451032380E+02  0.54223914459E+02  0.10112380181E+03  0.00000000000E+00 0. -1.
</event>
<event>
 7    1  0.2693725E-009  0.1013367E+03  0.7561462E-02  0.1277510E+00
         -2   -1    0    0    0  501 -0.00000000000E+00  0.00000000000E+00  0.25548377337E+02  0.25548377337E+02  0.00000000000E+00 0.  1.
          2   -1    0    0  501    0  0.00000000000E+00 -0.00000000000E+00 -0.57754677327E+03  0.57754677327E+03  0.00000000000E+00 0. -1.
         25    2    1    2    0    0 -0.40753671099E+02  0.21624256225E+02 -0.23659271536E+03  0.27157336737E+03  0.12509001053E+03 0.  0.
          5    1    3    3  502    0  0.22450497120E+02  0.44177911875E+02 -0.40066125073E+02  0.63862974382E+02  0.41800000000E+01 0. -1.
         -5    1    3    3    0  502 -0.63204168219E+02 -0.22553655650E+02 -0.19652659029E+03  0.20771039298E+03  0.41800000000E+01 0. -1.
        -11    1    1    2    0    0  0.15502877143E+02 -0.47250068726E+02 -0.26481452327E+03  0.26944320353E+03  0.00000000000E+00 0. -1.
         11    1    1    2    0    0  0.25250793955E+02  0.25625812501E+02 -0.50591157305E+02  0.62078579713E+02  0.00000000000E+00 0.  1.
</event>
<event>
 7    1  0.2693725E-009  0.1232442E+03  0.7561462E-02  0.1237839E+00
          1   -1    0    0  501    0  0.00000000000E+00  0.00000000000E+00  0.27023441167E+03  0.27023441167E+03  0.00000000000E+00 0. -1.
         -1   -1    0    0    0  501 -0.00000000000E+00 -0.00000000000E+00 -0.84331616777E+02  0.84331616777E+02  0.00000000000E+00 0.  1.
         25    2    1    2    0    0 -0.43209454517E+02 -0.90530364440E+02  0.13676662282E+03  0.21074799310E+03  0.12508718412E+03 0.  0.
          5    1    3    3  502    0 -0.26841432368E+02  0.74330339928E+01 -0.12978269206E+02  0.31010004152E+02  0.41800000000E+01 0.  1.
         -5    1    3    3    0  502 -0.16368022149E+02 -0.97963398433E+02  0.14974489203E+03  0.17973798895E+03  0.41800000000E+01 0.  1.
        -11    1    1    2    0    0  0.58840971967E+02  0.57008283784E+02 -0.48358347194E+00  0.81929471224E+02  0.00000000000E+00 0.  1.
         11    1    1    2    0    0 -0.15631517451E+02  0.33522080657E+02  0.49619755537E+02  0.61888564120E+02  0.00000000000E+00 0. -1.
</event>
<event>
 7    1  0.2693725E-009  0.1159440E+03  0.7561462E-02  0.1249942E+00
          2   -1    0    0  501    0  0.00000000000E+00  0.00000000000E+00  0.88471741948E+03  0.88471741948E+03  0.00000000000E+00 0. -1.
         -2   -1    0    0    0  501 -0.00000000000E+00 -0.00000000000E+00 -0.40757231303E+02  0.40757231303E+02  0.00000000000E+00 0.  1.
         25    2    1    2    0    0  0.60789122756E+02 -0.72338966606E+02  0.74465132679E+03  0.76097432714E+03  0.12509230412E+03 0.  0.
          5    1    3    3  502    0  0.30377565904E+02 -0.86806150850E+01  0.59089067619E+03  0.59174945137E+03  0.41800000000E+01 0. -1.
         -5    1    3    3    0  502  0.30411556852E+02 -0.63658351521E+02  0.15376065060E+03  0.16922487578E+03  0.41800000000E+01 0. -1.
        -11    1    1    2    0    0 -0.83999807029E+02  0.55762971055E+02  0.87972115935E+02  0.13380795830E+03  0.00000000000E+00 0.  1.
         11    1    1    2    0    0  0.23210684273E+02  0.16575995551E+02  0.11336745459E+02  0.30692365346E+02  0.00000000000E+00 0. -1.
</event>
<event>
 7    1  0.2693725E-009  0.1518966E+03  0.7561462E-02  0.1198162E+00
         -1   -1    0    0    0  501 -0.00000000000E+00  0.00000000000E+00  0.37846778405E+02  0.37846778405E+02  0.00000000000E+00 0.  1.
          1   -1    0    0  501    0  0.00000000000E+00 -0.00000000000E+00 -0.74735307397E+03  0.74735307397E+03  0.00000000000E+00 0. -1.
         25    2    1    2    0    0 -0.20551627443E+02  0.12355728160E+03 -0.42110022977E+03  0.45679673942E+03  0.12509630854E+03 0.  0.
          5    1    3    3  502    0  0.33220879881E+02  0.16836633516E+02 -0.30551035646E+02  0.48352220913E+02  0.41800000000E+01 0. -1.
         -5    1    3    3    0  502 -0.53772507324E+02  0.10672064808E+03 -0.39054919412E+03  0.40844451851E+03  0.41800000000E+01 0. -1.
        -11    1    1    2    0    0  0.42457802983E+02 -0.33572436762E+02 -0.16796837199E+03  0.17647421209E+03  0.00000000000E+00 0. -1.
         11    1    1    2    0    0 -0.21906175540E+02 -0.89984844837E+02 -0.12043769381E+03  0.15192890086E+03  0.00000000000E+00 0.  1.
</event>
<event>
 7    1  0.2693725E-009  0.1258519E+03  0.7561462E-02  0.1233744E+00
         -2   -1    0    0    0  501 -0.00000000000E+00  0.00000000000E+00  0.96354836441E+02  0.96354836441E+02  0.00000000000E+00 0.  1.
          2   -1    0    0  501    0  0.00000000000E+00 -0.00000000000E+00 -0.26320087461E+03  0.26320087461E+03  0.00000000000E+00 0. -1.
         25    2    1    2    0    0  0.10370374172E+03 -0.41617477939E+02 -0.52464745279E+02  0.17574952599E+03  0.12509542706E+03 0.  0.
          5    1    3    3  502    0 -0.75769088316E+00 -0.29307541213E+02 -0.63341060155E+02  0.69921873323E+02  0.41800000000E+01 0.  1.
         -5    1    3    3    0  502  0.10446143260E+03 -0.12309936726E+02  0.10876314876E+02  0.10582765266E+03  0.41800000000E+01 0.  1.
        -11    1    1    2    0    0 -0.42042777640E+02 -0.68074807223E+00  0.56124550586E+01  0.42421200141E+02  0.00000000000E+00 0.  1.
         11    1    1    2    0    0 -0.61660964077E+02  0.42298226011E+02 -0.11999374795E+03  0.14138498492E+03  0.00000000000E+00 0. -1.
</event>
<event>
 7    1  0.2693725E-009  0.1210793E+03  0.7561462E-02  0.1241327E+00
          1   -1    0    0  501    0  0.00000000000E+00  0.00000000000E+00  0.15841494704E+03  0.15841494704E+03  0.00000000000E+00 0. -1.
         -1   -1    0    0    0  501 -0.00000000000E+00 -0.00000000000E+00 -0.14238598356E+03  0.14238598356E+03  0.00000000000E+00 0.  1.
         25    2    1    2    0    0 -0.26221742572E+02  0.82227845289E+02  0.65380540724E+02  0.16544287400E+03  0.12509089146E+03 0.  0.
          5    1    3    3  502    0 -0.11209163050E+02  0.10907778335E+03  0.21704571467E+02  0.11185780697E+03  0.41800000000E+01 0. -1.
         -5    1    3    3    0  502 -0.15012579522E+02 -0.26849938064E+02  0.43675969257E+02  0.53585067029E+02  0.41800000000E+01 0. -1.
        -11    1    1    2    0    0 -0.16534176890E+02 -0.21974158566E+02  0.20017504055E+02  0.34013866565E+02  0.00000000000E+00 0. -1.
         11    1    1    2    0    0  0.42755919462E+02 -0.60253686723E+02 -0.69369081301E+02  0.10134419003E+03  0.00000000000E+00 0.  1.
</event>
<event>
 7    1  0.2693725E-009  0.9275276E+02  0.7561462E-02  0.1296319E+00
          2   -1    0    0  501    0  0.00000000000E+00  0.00000000000E+00  0.86925749941E+03  0.86925749941E+03  0.00000000000E+00 0. -1.
         -2   -1    0    0    0  501 -0.00000000000E+00 -0.00000000000E+00 -0.20671521345E+02  0.20671521345E+02  0.00000000000E+00 0.  1.
         25    2    1    2    0    0  0.45834106569E+02 -0.16370908692E+01  0.67930202492E+03  0.69224410710E+03  0.12508883789E+03 0.  0.
          5    1    3    3  502    0  0.47053625297E+02  0.29741512612E+02  0.12338296294E+03  0.13542314858E+03  0.41800000000E+01 0.  1.
         -5    1    3    3    0  502 -0.12195187285E+01 -0.31378603481E+02  0.55591906197E+03  0.55682095852E+03  0.41800000000E+01 0.  1.
        -11    1    1    2    0    0 -0.56703060129E+02 -0.30284182914E+02  0.82556028072E+02  0.10463205309E+03  0.00000000000E+00 0. -1.
         11    1    1    2    0    0  0.10868953560E+02  0.31921273783E+02  0.86727925074E+02  0.93052860563E+02  0.00000000000E+00 0.  1.
</event>
<event>
 7    1  0.2693725E-009  0.8901939E+02  0.7561462E-02  0.1305244E+00
         -1   -1    0    0    0  501 -0.00000000000E+00  0.00000000000E+00  0.28800732286E+02  0.28800732286E+02  0.00000000000E+00 0.  1.
          1   -1    0    0  501    0  0.00000000000E+00 -0.00000000000E+00 -0.54173563753E+03  0.54173563753E+03  0.00000000000E+00 0. -1.
         25    2    1    2    0    0 -0.12581395494E+02  0.69973796148E+01 -0.42573908715E+03  0.44396626375E+03  0.12508004711E+03 0.  0.
          5    1    3    3  502    0  0.38730699891E+02  0.18178709571E+02 -0.56535796571E+02  0.71023244714E+02  0.41800000000E+01 0. -1.
         -5    1    3    3    0  502 -0.51312095385E+02 -0.11181329956E+02 -0.36920329058E+03  0.37294301904E+03  0.41800000000E+01 0. -1.
        -11    1    1    2    0    0 -0.82647065547E+01 -0.41359439173E+02 -0.72308788063E+02  0.83710629040E+02  0.00000000000E+00 0. -1.
         11    1    1    2    0    0  0.20846102049E+02  0.34362059558E+02 -0.14887030027E+02  0.42859477023E+02  0.00000000000E+00 0.  1.
</event>
<event>
 7    1  0.2693725E-009  0.7143354E+02  0.7561462E-02  0.1355285E+00
         -2   -1    0    0    0  501 -0.00000000000E+00  0.00000000000E+00  0.86681170280E+02  0.86681170280E+02  0.00000000000E+00 0.  1.
          2   -1    0    0  501    0  0.00000000000E+00 -0.00000000000E+00 -0.17246723726E+03  0.17246723726E+03  0.00000000000E+00 0. -1.
         25    2    1    2    0    0  0.53830896845E+01  0.95292179019E+01 -0.10755489795E+03  0.16533826569E+03  0.12509557298E+03 0.  0.
          5    1    3    3  502    0  0.33916967383E+02 -0.28196016351E+02 -0.10917851306E+03  0.11782527797E+03  0.41800000000E+01 0. -1.
         -5    1    3    3    0  502 -0.28533877699E+02  0.37725234253E+02  0.16236151120E+01  0.47512987719E+02  0.41800000000E+01 0. -1.
        -11    1    1    2    0    0 -0.60526509743E+01 -0.29995750494E+02 -0.27067884639E+02  0.40854008498E+02  0.00000000000E+00 0. -1.
         11    1    1    2    0    0  0.66956128981E+00  0.20466532592E+02  0.48836715606E+02  0.52956133355E+02  0.00000000000E+00 0.  1.
</event>
<event>
 7    1  0.2693725E-009  0.1108429E+03  0.7561462E-02  0.1259017E+00
          1   -1    0    0  501    0  0.00000000000E+00  0.00000000000E+00  0.12393335784E+02  0.12393335784E+02  0.00000000000E+00 0. -1.
         -1   -1    0    0    0  501 -0.00000000000E+00 -0.00000000000E+00 -0.12511427748E+04  0.12511427748E+04  0.00000000000E+00 0.  1.
         25    2    1    2    0    0  0.33525700059E+02  0.36271184094E+02 -0.89080617106E+03  0.90090081830E+03  0.12508828342E+03 0.  0.
          5    1    3    3  502    0  0.66454664915E+02  0.51996227060E+02 -0.77036619656E+03  0.77498476071E+03  0.41800000000E+01 0. -1.
         -5    1    3    3    0  502 -0.32928964856E+02 -0.15725042966E+02 -0.12043997450E+03  0.12591605760E+03  0.41800000000E+01 0. -1.
        -11    1    1    2    0    0 -0.12441745246E+02 -0.64248008512E+02 -0.25635018818E+03  0.26457139415E+03  0.00000000000E+00 0. -1.
         11    1    1    2    0    0 -0.21083954813E+02  0.27976824418E+02 -0.91593079783E+02  0.98063898144E+02  0.00000000000E+00 0.  1.
</event>
<event>
 7    1  0.2693725E-009  0.9833599E+02  0.7561462E-02  0.1283835E+00
          2   -1    0    0  501    0  0.00000000000E+00  0.00000000000E+00  0.43290447712E+03  0.43290447712E+03  0.00000000000E+00 0. -1.
         -2   -1    0    0    0  501 -0.00000000000E+00 -0.00000000000E+00 -0.27646695664E+02  0.27646695664E+02  0.00000000000E+00 0.  1.
         25    2    1    2    0    0 -0.60358494814E+01  0.10831175051E+02  0.21508436726E+03  0.24912378552E+03  0.12509048580E+03 0.  0.
          5    1    3    3  502    0 -0.65303051556E+01 -0.47937646573E+02  0.16434071199E+03  0.17136512149E+03  0.41800000000E+01 0.  1.
         -5    1    3    3    0  502  0.49445567425E+00  0.58768821624E+02  0.50743655267E+02  0.77758664027E+02  0.41800000000E+01 0.  1.
        -11    1    1    2    0    0 -0.12447882300E+02 -0.46974905554E+02  0.13049864047E+03  0.13925331842E+03  0.00000000000E+00 0. -1.
         11    1    1    2    0    0  0.18483731781E+02  0.36143730504E+02  0.59674773724E+02  0.72174068849E+02  0.00000000000E+00 0.  1.
</event>
<event>
 7    1  0.2693725E-009  0.1849977E+03  0.7561462E-02  0.1163052E+00
         -2   -1    0    0    0  501 -0.00000000000E+00  0.00000000000E+00  0.12752746003E+03  0.12752746003E+03  0.00000000000E+00 0.  1.
          2   -1    0    0  501    0  0.00000000000E+00 -0.00000000000E+00 -0.35910811159E+03  0.35910811159E+03  0.00000000000E+00 0. -1.
         25    2    1    2    0    0 -0.31264234058E+02 -0.15968587031E+03 -0.21813097978E+03  0.29950816942E+03  0.12508792787E+03 0.  0.
          5    1    3    3  502    0  0.16532710099E+02 -0.14840784014E+03 -0.12774079130E+03  0.19655380861E+03  0.41800000000E+01 0. -1.
         -5    1    3    3    0  502 -0.47796944157E+02 -0.11278030175E+02 -0.90390188481E+02  0.10295436081E+03  0.41800000000E+01 0. -1.
        -11    1    1    2    0    0  0.44602793849E+02  0.90857726629E+02  0.28849722999E+02  0.10524657821E+03  0.00000000000E+00 0.  1.
         11    1    1    2    0    0 -0.13338559791E+02  0.68828143681E+02 -0.42299394778E+02  0.81880823997E+02  0.00000000000E+00 0. -1.
</event>
<event>
 7    1  0.2936712E-009  0.7766832E+02  0.7561462E-02  0.1335802E+00
          1   -1    0    0  501    0  0.00000000000E+00  0.00000000000E+00  0.19842301526E+03  0.19842301526E+03  0.00000000000E+00 0. -1.
         -1   -1    0    0    0  501 -0.00000000000E+00 -0.00000000000E+00 -0.71229420781E+02  0.71229420781E+02  0.00000000000E+00 0.  1.
         25    2    1    2    0    0 -0.30804905501E+02 -0.15396372681E+02  0.34268348658E+02  0.13419687502E+03  0.12509392891E+03 0.  0.
          5    1    3    3  502    0 -0.30617647840E+02 -0.59698428779E+02  0.53309831562E+02  0.85794832589E+02  0.41800000000E+01 0. -1.
         -5    1    3    3    0  502 -0.18725766100E+00  0.44302056097E+02 -0.19041482904E+02  0.48402042427E+02  0.41800000000E+01 0. -1.
        -11    1    1    2    0    0  0.11536897124E+02  0.20640900775E+02  0.10792209568E+03  0.11048224072E+03  0.00000000000E+00 0. -1.
         11    1    1    2    0    0  0.19268008377E+02 -0.52445280938E+01 -0.14996849850E+02  0.24973320307E+02  0.00000000000E+00 0.  1.
</event>
<event>
 7    1  0.2693725E-009  0.1288668E+03  0.7561462E-02  0.1229147E+00
         -1   -1    0    0    0  501 -0.00000000000E+00  0.00000000000E+00  0.18902697592E+02  0.18902697592E+02  0.00000000000E+00 0.  1.
          1   -1    0    0  501    0  0.00000000000E+00 -0.00000000000E+00 -0.89927192538E+03  0.89927192538E+03  0.00000000000E+00 0. -1.
         25    2    1    2    0    0  0.73423448179E+02  0.86021157205E+01 -0.48359726930E+03  0.50495520859E+03  0.12509374353E+03 0.  0.
          5    1    3    3  502    0  0.13106050315E+02 -0.55504337281E+02 -0.19053425028E+03  0.19893032183E+03  0.41800000000E+01 0.  1.
         -5    1    3    3    0  502  0.60317397864E+02  0.64106453001E+02 -0.29306301902E+03  0.30602488676E+03  0.41800000000E+01 0.  1.
        -11    1    1    2    0    0 -0.41234140452E+02 -0.46867943402E+02 -0.17270511434E+03  0.18364072255E+03  0.00000000000E+00 0.  1.
         11    1    1    2    0    0 -0.32189307727E+02  0.38265827682E+02 -0.22406684414E+03  0.22957869183E+03  0.00000000000E+00 0. -1.
</event>
<event>
 7    1  0.2693725E-009  0.8826110E+02  0.7561462E-02  0.1307118E+00
         -1   -1    0    0    0  501 -0.00000000000E+00  0.00000000000E+00  0.14119964825E+03  0.14119964825E+03  0.00000000000E+00 0.  1.
          1   -1    0    0  501    0  0.00000000000E+00 -0.00000000000E+00 -0.96045168009E+02  0.96045168009E+02  0.00000000000E+00 0. -1.
         25    2    1    2    0    0 -0.11804686743E+02  0.38693702788E+02  0.81497649236E+01  0.13172287181E+03  0.12509173843E+03 0.  0.
          5    1    3    3  502    0  0.31499122644E+02 -0.11999978123E+02  0.44255784606E+02  0.55787463407E+02  0.41800000000E+01 0. -1.
         -5    1    3    3    0  502 -0.43303809388E+02  0.50693680911E+02 -0.36106019682E+02  0.75935408401E+02  0.41800000000E+01 0. -1.
        -11    1    1    2    0    0  0.18856212132E+02  0.13433678613E+02 -0.18065291206E+02  0.29366225556E+02  0.00000000000E+00 0. -1.
         11    1    1    2    0    0 -0.70515253886E+01 -0.52127381401E+02  0.55070006526E+02  0.76155718898E+02  0.00000000000E+00 0.  1.
</event>
<event>
 7    1  0.2693725E-009  0.1038641E+03  0.7561462E-02  0.1272374E+00
         -1   -1    0    0    0  501 -0.00000000000E+00  0.00000000000E+00  0.48145238982E+02  0.48145238982E+02  0.00000000000E+00 0.  1.
          1   -1    0    0  501    0  0.00000000000E+00 -0.00000000000E+00 -0.42199743954E+03  0.42199743954E+03  0.00000000000E+00 0. -1.
         25    2    1    2    0    0  0.40762488332E+02  0.38244187585E+02 -0.30736241505E+03  0.33651653554E+03  0.12509007222E+03 0.  0.
          5    1    3    3  502    0  0.55859795212E+02  0.57566406957E+02 -0.30001240161E+03  0.31057868802E+03  0.41800000000E+01 0. -1.
         -5    1    3    3    0  502 -0.15097306879E+02 -0.19322219372E+02 -0.73500134392E+01  0.25937847521E+02  0.41800000000E+01 0. -1.
        -11    1    1    2    0    0  0.97493148416E+01 -0.49774304096E+02 -0.18084124404E+01  0.50752348159E+02  0.00000000000E+00 0.  1.
         11    1    1    2    0    0 -0.50511803174E+02  0.11530116511E+02 -0.64681373066E+02  0.82873794823E+02  0.00000000000E+00 0. -1.
</event>
<event>
 7    1  0.2693725E-009  0.1147753E+03  0.7561462E-02  0.1251974E+00
          2   -1    0    0  501    0  0.00000000000E+00  0.00000000000E+00  0.79946376793E+03  0.79946376793E+03  0.00000000000E+00 0. -1.
         -2   -1    0    0    0  501 -0.00000000000E+00 -0.00000000000E+00 -0.33542780141E+02  0.33542780141E+02  0.00000000000E+00 0.  1.
         25    2    1    2    0    0 -0.30044573197E+02 -0.99471925638E+02  0.57844249640E+03  0.60086638573E+03  0.12508937401E+03 0.  0.
          5    1    3    3  502    0 -0.35326193970E+00 -0.78293966329E+02  0.13660864812E+03  0.15751020633E+03  0.41800000000E+01 0.  1.
         -5    1    3    3    0  502 -0.29691311258E+02 -0.21177959309E+02  0.44183384828E+03  0.44335617940E+03  0.41800000000E+01 0.  1.
        -11    1    1    2    0    0  0.27967406453E+01  0.82041848359E+02  0.18156262251E+03  0.19925780419E+03  0.00000000000E+00 0. -1.
         11    1    1    2    0    0  0.27247832552E+02  0.17430077279E+02  0.59158688821E+01  0.32882358148E+02  0.00000000000E+00 0.  1.
</event>
<event>
 7    1  0.2693725E-009  0.7535765E+02  0.7561462E-02  0.1342767E+00
          2   -1    0    0  501    0  0.00000000000E+00  0.00000000000E+00  0.63902706273E+02  0.63902706273E+02  0.00000000000E+00 0. -1.
         -2   -1    0    0    0  501 -0.00000000000E+00 -0.00000000000E+00 -0.21300641796E+03  0.21300641796E+03  0.00000000000E+00 0.  1.
         25    2    1    2    0    0  0.12548981814E+02  0.21069365541E+00 -0.13342126802E+03  0.18331732613E+03  0.12508591433E+03 0.  0.
          5    1    3    3  502    0  0.30438857497E+02  0.32199175417E+02 -0.13905239838E+03  0.14600120835E+03  0.41800000000E+01 0. -1.
         -5    1    3    3    0  502 -0.17889875683E+02 -0.31988481762E+02  0.56311303583E+01  0.37316117785E+02  0.41800000000E+01 0. -1.
        -11    1    1    2    0    0  0.12053788985E+02 -0.29026974777E+02  0.23379391031E+02  0.39172120425E+02  0.00000000000E+00 0. -1.
         11    1    1    2    0    0 -0.24602770800E+02  0.28816281122E+02 -0.39061834696E+02  0.54419677677E+02  0.00000000000E+00 0.  1.
</event>
<event>
 7    1  0.2693725E-009  0.1246008E+03  0.7561462E-02  0.1235694E+00
          1   -1    0    0  501    0  0.00000000000E+00  0.00000000000E+00  0.36166021743E+02  0.36166021743E+02  0.00000000000E+00 0. -1.
         -1   -1    0    0    0  501 -0.00000000000E+00 -0.00000000000E+00 -0.70305100119E+03  0.70305100119E+03  0.00000000000E+00 0.  1.
         25    2    1    2    0    0  0.55698852834E+02 -0.10261890597E+03 -0.39994806220E+03  0.43501678653E+03  0.12509256585E+03 0.  0.
          5    1    3    3  502    0  0.30414570577E+02 -0.16651018258E+02 -0.29454244139E+03  0.29660584063E+03  0.41800000000E+01 0.  1.
         -5    1    3    3    0  502  0.25284282256E+02 -0.85967887713E+02 -0.10540562081E+03  0.13841094590E+03  0.41800000000E+01 0.  1.
        -11    1    1    2    0    0 -0.22430416413E+02  0.72627890696E+01 -0.14008541003E+03  0.14205560105E+03  0.00000000000E+00 0.  1.
         11    1    1    2    0    0 -0.33268436421E+02  0.95356116901E+02 -0.12685150721E+03  0.16214463535E+03  0.00000000000E+00 0. -1.
</event>
<event>
 7    1  0.2693725E-009  0.1287939E+03  0.7561462E-02  0.1229256E+00
          1   -1    0    0  501    0  0.00000000000E+00  0.00000000000E+00  0.39252737004E+03  0.39252737004E+03  0.00000000000E+00 0. -1.
         -1   -1    0    0    0  501 -0.00000000000E+00 -0.00000000000E+00 -0.63884347711E+02  0.63884347711E+02  0.00000000000E+00 0.  1.
         25    2    1    2    0    0  0.73719700536E+02  0.84876089469E+02  0.14884448277E+03  0.22459201551E+03  0.12509335941E+03 0.  0.
          5    1    3    3  502    0  0.45104781046E+02 -0.92999173710E+01  0.10885316612E+03  0.11826839777E+03  0.41800000000E+01 0. -1.
         -5    1    3    3    0  502  0.28614919490E+02  0.94176006840E+02  0.39991316647E+02  0.10632361774E+03  0.41800000000E+01 0. -1.
        -11    1    1    2    0    0 -0.32174897786E+02 -0.29920512984E+02  0.15080539370E+03  0.15707554843E+03  0.00000000000E+00 0. -1.
         11    1    1    2    0    0 -0.41544802750E+02 -0.54955576485E+02  0.28993145856E+02  0.74744153811E+02  0.00000000000E+00 0.  1.
</event>
<event>
 7    1  0.2693725E-009  0.1356909E+03  0.7561462E-02  0.1219248E+00
          2   -1    0    0  501    0  0.00000000000E+00  0.00000000000E+00  0.40604960402E+03  0.40604960402E+03  0.00000000000E+00 0. -1.
         -2   -1    0    0    0  501 -0.00000000000E+00 -0.00000000000E+00 -0.51676824406E+02  0.51676824406E+02  0.00000000000E+00 0.  1.
         25    2    1    2    0    0  0.69006261917E+02 -0.64742075593E+02  0.18322105612E+03  0.24118547722E+03  0.12508828274E+03 0.  0.
          5    1    3    3  502    0  0.48725914342E+02 -0.92197005846E+02  0.77446166932E+02  0.12996108567E+03  0.41800000000E+01 0. -1.
         -5    1    3    3    0  502  0.20280347575E+02  0.27454930252E+02  0.10577488919E+03  0.11122439155E+03  0.41800000000E+01 0. -1.
        -11    1    1    2    0    0 -0.52800740295E+02  0.88983550758E+02  0.13524054827E+03  0.17028210821E+03  0.00000000000E+00 0. -1.
         11    1    1    2    0    0 -0.16205521622E+02 -0.24241475165E+02  0.35911175222E+02  0.46258842993E+02  0.00000000000E+00 0.  1.
</event>
<event>
 7    1  0.2693725E-009  0.9768731E+02  0.7561462E-02  0.1285236E+00
         -2   -1    0    0    0  501 -0.00000000000E+00  0.00000000000E+00  0.36450950005E+02  0.36450950005E+02  0.00000000000E+00 0.  1.
          2   -1    0    0  501    0  0.00000000000E+00 -0.00000000000E+00 -0.38537376942E+03  0.38537376942E+03  0.00000000000E+00 0. -1.
         25    2    1    2    0    0  0.47549480401E+02 -0.58983876221E+01 -0.20076080110E+03  0.24134093636E+03  0.12507919189E+03 0.  0.
          5    1    3    3  502    0  0.24279266861E+02  0.48050846533E+02 -0.16216693497E+03  0.17092089939E+03  0.41800000000E+01 0. -1.
         -5    1    3    3    0  502  0.23270213539E+02 -0.53949234155E+02 -0.38593866130E+02  0.70420036971E+02  0.41800000000E+01 0. -1.
        -11    1    1    2    0    0 -0.47165402199E+02  0.31597783362E+02 -0.40348881422E+02  0.69649316652E+02  0.00000000000E+00 0.  1.
         11    1    1    2    0    0 -0.38407820114E+00 -0.25699395740E+02 -0.10781313690E+03  0.11083446642E+03  0.00000000000E+00 0. -1.
</event>
<event>
 7    1  0.2693725E-009  0.1174309E+03  0.7561462E-02  0.1247396E+00
          1   -1    0    0  501    0  0.00000000000E+00  0.00000000000E+00  0.14073215826E+04  0.14073215826E+04  0.00000000000E+00 0. -1.
         -1   -1    0    0    0  501 -0.00000000000E+00 -0.00000000000E+00 -0.13527082651E+02  0.13527082651E+02  0.00000000000E+00 0.  1.
         25    2    1    2    0    0 -0.59875433792E+02 -0.55331625196E+02  0.88871132481E+03  0.90116710732E+03  0.12509068773E+03 0.  0.
          5    1    3    3  502    0 -0.52768369890E+02  0.12843721219E+02  0.66316377962E+03  0.66539697402E+03  0.41800000000E+01 0.  1.
         -5    1    3    3    0  502 -0.71070639020E+01 -0.68175346415E+02  0.22554754519E+03  0.23577013331E+03  0.41800000000E+01 0.  1.
        -11    1    1    2    0    0  0.17291650154E+02 -0.19226270300E+02  0.47214081606E+02  0.53831404743E+02  0.00000000000E+00 0. -1.
         11    1    1    2    0    0  0.42583783639E+02  0.74557895496E+02  0.45786909349E+03  0.46585015314E+03  0.00000000000E+00 0.  1.
</event>
<event>
 7    1  0.2693725E-009  0.9662487E+02  0.7561462E-02  0.1287558E+00
         -1   -1    0    0    0  501 -0.00000000000E+00  0.00000000000E+00  0.12402880866E+03  0.12402880866E+03  0.00000000000E+00 0.  1.
          1   -1    0    0  501    0  0.00000000000E+00 -0.00000000000E+00 -0.14322544322E+03  0.14322544322E+03  0.00000000000E+00 0. -1.
         25    2    1    2    0    0 -0.36259807695E+02 -0.56820957344E+02  0.28304941068E+02  0.14488437975E+03  0.12508764511E+03 0.  0.
          5    1    3    3  502    0 -0.67219708181E+02 -0.47396971848E+02  0.58027719603E+02  0.10074547509E+03  0.41800000000E+01 0.  1.
         -5    1    3    3    0  502  0.30959900486E+02 -0.94239854960E+01 -0.29722778535E+02  0.44138904659E+02  0.41800000000E+01 0.  1.
        -11    1    1    2    0    0  0.45026906274E+02  0.46664466874E+02  0.79378890284E+01  0.65329968923E+02  0.00000000000E+00 0.  1.
         11    1    1    2    0    0 -0.87670985794E+01  0.10156490470E+02 -0.55439464664E+02  0.57039903212E+02  0.00000000000E+00 0. -1.
</event>
<event>
 7    1  0.2693725E-009  0.1022599E+03  0.7561462E-02  0.1275614E+00
         -1   -1    0    0    0  501 -0.00000000000E+00  0.00000000000E+00  0.90117928407E+02  0.90117928407E+02  0.00000000000E+00 0.  1.
          1   -1    0    0  501    0  0.00000000000E+00 -0.00000000000E+00 -0.22254392190E+03  0.22254392190E+03  0.00000000000E+00 0. -1.
         25    2    1    2    0    0 -0.12917846679E+02 -0.70268367766E+02 -0.13391730640E+03  0.19668392567E+03  0.12508480080E+03 0.  0.
          5    1    3    3  502    0  0.18853890976E+02 -0.53289844096E+02 -0.14745517684E+03  0.15797397971E+03  0.41800000000E+01 0. -1.
         -5    1    3    3    0  502 -0.31771737656E+02 -0.16978523670E+02  0.13537870440E+02  0.38709945954E+02  0.41800000000E+01 0. -1.
        -11    1    1    2    0    0  0.40486939205E+02  0.73401010910E+02 -0.12748931479E+02  0.84790541351E+02  0.00000000000E+00 0. -1.
         11    1    1    2    0    0 -0.27569092525E+02 -0.31326431442E+01  0.14240244393E+02  0.31187383284E+02  0.00000000000E+00 0.  1.
</event>
<event>
 7    1  0.2693725E-009  0.1856677E+03  0.7561462E-02  0.1162428E+00
          1   -1    0    0  501    0  0.00000000000E+00  0.00000000000E+00  0.11038408344E+04  0.11038408344E+04  0.00000000000E+00 0.  1.
         -1   -1    0    0    0  501 -0.00000000000E+00 -0.00000000000E+00 -0.38332377586E+02  0.38332377586E+02  0.00000000000E+00 0. -1.
         25    2    1    2    0    0 -0.79940935868E+02 -0.13262282776E+03  0.42204758261E+03  0.46663724750E+03  0.12508713404E+03 0.  0.
          5    1    3    3  502    0 -0.48479431169E+02  0.61876795450E+01  0.59391417579E+02  0.77028277319E+02  0.41800000000E+01 0.  1.
         -5    1    3    3    0  502 -0.31461504699E+02 -0.13881050730E+03  0.36265616503E+03  0.38960897018E+03  0.41800000000E+01 0.  1.
        -11    1    1    2    0    0  0.35701137335E+02  0.13083196887E+03  0.59342149477E+03  0.60872049887E+03  0.00000000000E+00 0.  1.
         11    1    1    2    0    0  0.44239798533E+02  0.17908588878E+01  0.50039379405E+02  0.66815465583E+02  0.00000000000E+00 0. -1.
</event>
<event>
 7    1  0.2693725E-009  0.1921002E+03  0.7561462E-02  0.1156581E+00
          3   -1    0    0  501    0  0.00000000000E+00  0.00000000000E+00  0.23865038247E+03  0.23865038247E+03  0.00000000000E+00 0.  1.
         -3   -1    0    0    0  501 -0.00000000000E+00 -0.00000000000E+00 -0.18331036416E+03  0.18331036416E+03  0.00000000000E+00 0. -1.
         25    2    1    2    0    0 -0.14158680342E+03  0.91639899458E+02 -0.31836772436E+02  0.21238669509E+03  0.12509929695E+03 0.  0.
          5    1    3    3  502    0 -0.12828045220E+02 -0.27676378323E+02 -0.19318839376E+02  0.36348736100E+02  0.41800000000E+01 0. -1.
         -5    1    3    3    0  502 -0.12875875820E+03  0.11931627778E+03 -0.12517933060E+02  0.17603795899E+03  0.41800000000E+01 0. -1.
        -11    1    1    2    0    0  0.11519466169E+03 -0.43914263594E+02  0.93422742209E+02  0.15468057859E+03  0.00000000000E+00 0. -1.
         11    1    1    2    0    0  0.26392141723E+02 -0.47725635864E+02 -0.62459514699E+01  0.54893472955E+02  0.00000000000E+00 0.  1.
</event>
<event>
 7    1  0.2693725E-009  0.1324058E+03  0.7561462E-02  0.1223929E+00
          2   -1    0    0  501    0  0.00000000000E+00  0.00000000000E+00  0.88163900150E+03  0.88163900150E+03  0.00000000000E+00 0. -1.
         -2   -1    0    0    0  501 -0.00000000000E+00 -0.00000000000E+00 -0.20413696778E+02  0.20413696778E+02  0.00000000000E+00 0.  1.
         25    2    1    2    0    0 -0.77364173724E+02 -0.17518800586E+02  0.45269007034E+03  0.47630647821E+03  0.12508971838E+03 0.  0.
          5    1    3    3  502    0  0.33261658724E+02  0.63085908627E-01  0.71343697718E+02  0.78827263843E+02  0.41800000000E+01 0. -1.
         -5    1    3    3    0  502 -0.11062583245E+03 -0.17581886495E+02  0.38134637263E+03  0.39747921437E+03  0.41800000000E+01 0. -1.
        -11    1    1    2    0    0  0.72455760950E+02  0.48913093826E+02  0.31796271377E+03  0.32976145225E+03  0.00000000000E+00 0.  1.
         11    1    1    2    0    0  0.49084127736E+01 -0.31394293240E+02  0.90572520612E+02  0.95984767823E+02  0.00000000000E+00 0. -1.
</event>
<event>
 7    1  0.2693725E-009  0.8514138E+02  0.7561462E-02  0.1315063E+00
         -1   -1    0    0    0  501 -0.00000000000E+00  0.00000000000E+00  0.68818656177E+02  0.68818656177E+02  0.00000000000E+00 0. -1.
          1   -1    0    0  501    0  0.00000000000E+00 -0.00000000000E+00 -0.23219747555E+03  0.23219747555E+03  0.00000000000E+00 0.  1.
         25    2    1    2    0    0  0.11386402700E+02 -0.47057099157E+02 -0.14046288292E+03  0.19421850322E+03  0.12508790815E+03 0.  0.
          5    1    3    3  502    0 -0.23572798202E+02 -0.38171784986E+02 -0.15004419035E+03  0.15666363153E+03  0.41800000000E+01 0. -1.
         -5    1    3    3    0  502  0.34959200902E+02 -0.88853141706E+01  0.95813074337E+01  0.37554871691E+02  0.41800000000E+01 0. -1.
        -11    1    1    2    0    0  0.31639825034E+02  0.26289378476E+02 -0.38702518363E+02  0.56480924890E+02  0.00000000000E+00 0.  1.
         11    1    1    2    0    0 -0.43026227734E+02  0.20767720680E+02  0.15786581906E+02  0.50316703623E+02  0.00000000000E+00 0. -1.
</event>
<event>
 7    1  0.2693725E-009  0.1086709E+03  0.7561462E-02  0.1263051E+00
          4   -1    0    0  501    0  0.00000000000E+00  0.00000000000E+00  0.93151160288E+03  0.93151160288E+03  0.00000000000E+00 0. -1.
         -4   -1    0    0    0  501 -0.00000000000E+00 -0.00000000000E+00 -0.14747171019E+02  0.14747171019E+02  0.00000000000E+00 0.  1.
         25    2    1    2    0    0 -0.26088583979E+02 -0.26920510849E+02  0.60981595179E+03  0.62364037693E+03  0.12508595672E+03 0.  0.
          5    1    3    3  502    0 -0.70465095161E+02 -0.83282789020E-01  0.45175021112E+03  0.45723195669E+03  0.41800000000E+01 0. -1.
         -5    1    3    3    0  502  0.44376511182E+02 -0.26837228060E+02  0.15806574067E+03  0.16640842024E+03  0.41800000000E+01 0. -1.
        -11    1    1    2    0    0  0.46424918767E+02  0.47058359604E+02  0.16377847866E+03  0.17661583271E+03  0.00000000000E+00 0.  1.
         11    1    1    2    0    0 -0.20336334788E+02 -0.20137848755E+02  0.14317000141E+03  0.14600256426E+03  0.00000000000E+00 0. -1.
</event>
<event>
 7    1  0.2693725E-009  0.1300376E+03  0.7561462E-02  0.1227400E+00
          3   -1    0    0  501    0  0.00000000000E+00  0.00000000000E+00  0.18772041118E+03  0.18772041118E+03  0.00000000000E+00 0. -1.
         -3   -1    0    0    0  501 -0.00000000000E+00 -0.00000000000E+00 -0.15033111244E+03  0.15033111244E+03  0.00000000000E+00 0.  1.
         25    2    1    2    0    0 -0.83317545786E+02  0.83817809066E+02  0.68572132378E+02  0.18524699300E+03  0.12508825893E+03 0.  0.
          5    1    3    3  502    0 -0.74406760411E+02  0.78136571273E+02  0.10285771028E+03  0.14912702884E+03  0.41800000000E+01 0.  1.
         -5    1    3    3    0  502 -0.89107853744E+01  0.56812377931E+01 -0.34285577902E+02  0.36119964160E+02  0.41800000000E+01 0.  1.
        -11    1    1    2    0    0 -0.95724978366E+01  0.61813221826E+01  0.11903506612E+02  0.16478316917E+02  0.00000000000E+00 0. -1.
         11    1    1    2    0    0  0.92890043622E+02 -0.89999131248E+02 -0.43086340248E+02  0.13632621371E+03  0.00000000000E+00 0.  1.
</event>
<event>
 7    1  0.2693725E-009  0.2046892E+03  0.7561462E-02  0.1145842E+00
          2   -1    0    0  501    0  0.00000000000E+00  0.00000000000E+00  0.14808590013E+03  0.14808590013E+03  0.00000000000E+00 0. -1.
         -2   -1    0    0    0  501 -0.00000000000E+00 -0.00000000000E+00 -0.33931180963E+03  0.33931180963E+03  0.00000000000E+00 0.  1.
         25    2    1    2    0    0 -0.17765874936E+03 -0.32626634078E+02 -0.15950488139E+02  0.22030364404E+03  0.12510854898E+03 0.  0.
          5    1    3    3  502    0 -0.14634018358E+03  0.22273492202E+02  0.16730688116E+02  0.14902666241E+03  0.41800000000E+01 0.  1.
         -5    1    3    3    0  502 -0.31318565785E+02 -0.54900126280E+02 -0.32681176255E+02  0.71276981627E+02  0.41800000000E+01 0.  1.
        -11    1    1    2    0    0  0.12104018048E+03 -0.17540037453E+02 -0.13197060785E+03  0.17992948491E+03  0.00000000000E+00 0. -1.
         11    1    1    2    0    0  0.56618568883E+02  0.50166671531E+02 -0.43304813520E+02  0.87164580816E+02  0.00000000000E+00 0.  1.
</event>
<event>
 7    1  0.2693725E-009  0.1154881E+03  0.7561462E-02  0.1250732E+00
          2   -1    0    0  501    0  0.00000000000E+00  0.00000000000E+00  0.15379090356E+03  0.15379090356E+03  0.00000000000E+00 0. -1.
         -2   -1    0    0    0  501 -0.00000000000E+00 -0.00000000000E+00 -0.11460049334E+03  0.11460049334E+03  0.00000000000E+00 0.  1.
         25    2    1    2    0    0 -0.32040016503E+02  0.66595614950E+02  0.30158825816E+01  0.14530965353E+03  0.12507702136E+03 0.  0.
          5    1    3    3  502    0  0.25317514696E+02 -0.13257206628E+02 -0.29873304701E+02  0.41552578882E+02  0.41800000000E+01 0.  1.
         -5    1    3    3    0  502 -0.57357531199E+02  0.79852821578E+02  0.32889187283E+02  0.10375707465E+03  0.41800000000E+01 0.  1.
        -11    1    1    2    0    0 -0.22619775829E+02 -0.91733837488E+01  0.36372225146E+02  0.43803470068E+02  0.00000000000E+00 0. -1.
         11    1    1    2    0    0  0.54659792332E+02 -0.57422231201E+02 -0.19769751254E+00  0.79278273305E+02  0.00000000000E+00 0.  1.
</event>
<event>
 7    1  0.2693725E-009  0.8363165E+02  0.7561462E-02  0.1319050E+00
         -2   -1    0    0    0  501 -0.00000000000E+00  0.00000000000E+00  0.33049138560E+02  0.33049138560E+02  0.00000000000E+00 0.  1.
          2   -1    0    0  501    0  0.00000000000E+00 -0.00000000000E+00 -0.33777482475E+03  0.33777482475E+03  0.00000000000E+00 0. -1.
         25    2    1    2    0    0  0.11354171056E+02  0.87823885020E+00 -0.17513018849E+03  0.21551850849E+03  0.12509179061E+03 0.  0.
          5    1    3    3  502    0  0.56048216217E+02  0.34881001061E+02 -0.70350657494E+02  0.96564870351E+02  0.41800000000E+01 0. -1.
         -5    1    3    3    0  502 -0.44694045161E+02 -0.34002762211E+02 -0.10477953099E+03  0.11895363814E+03  0.41800000000E+01 0. -1.
        -11    1    1    2    0    0  0.93200713244E+01 -0.16458455008E+02  0.39093061360E+01  0.19313910666E+02  0.00000000000E+00 0.  1.
         11    1    1    2    0    0 -0.20674242381E+02  0.15580216158E+02 -0.13350480384E+03  0.13599154416E+03  0.00000000000E+00 0. -1.
</event>
<event>
 7    1  0.2693725E-009  0.1068671E+03  0.7561462E-02  0.1266484E+00
         -2   -1    0    0    0  501 -0.00000000000E+00  0.00000000000E+00  0.92869442832E+02  0.92869442832E+02  0.00000000000E+00 0.  1.
          2   -1    0    0  501    0  0.00000000000E+00 -0.00000000000E+00 -0.14248452602E+03  0.14248452602E+03  0.00000000000E+00 0. -1.
         25    2    1    2    0    0  0.15920152902E+02  0.33450609694E-01 -0.64513341063E+02  0.14164110956E+03  0.12508709108E+03 0.  0.
          5    1    3    3  502    0 -0.17366314611E+02 -0.56137656489E+02 -0.42383546466E+02  0.72573154611E+02  0.41800000000E+01 0. -1.
         -5    1    3    3    0  502  0.33286467512E+02  0.56171107098E+02 -0.22129794597E+02  0.69067954950E+02  0.41800000000E+01 0. -1.
        -11    1    1    2    0    0  0.36730540619E+02 -0.82542702537E+00  0.18105158875E+02  0.40958646485E+02  0.00000000000E+00 0. -1.
         11    1    1    2    0    0 -0.52650693521E+02  0.79197641568E+00 -0.32069010016E+01  0.52754212807E+02  0.00000000000E+00 0.  1.
</event>
<event>
 7    1  0.2693725E-009  0.1129930E+03  0.7561462E-02  0.1255126E+00
         -2   -1    0    0    0  501 -0.00000000000E+00  0.00000000000E+00  0.16810149086E+02  0.16810149086E+02  0.00000000000E+00 0.  1.
          2   -1    0    0  501    0  0.00000000000E+00 -0.00000000000E+00 -0.10562799072E+04  0.10562799072E+04  0.00000000000E+00 0. -1.
         25    2    1    2    0    0 -0.66185349534E+02  0.65728329160E+01 -0.71077111327E+03  0.72475304771E+03  0.12509077536E+03 0.  0.
          5    1    3    3  502    0  0.20209348237E+02 -0.10536978326E+02 -0.28145688196E+02  0.36456794050E+02  0.41800000000E+01 0. -1.
         -5    1    3    3    0  502 -0.86394697770E+02  0.17109811242E+02 -0.68262542507E+03  0.68829625366E+03  0.41800000000E+01 0. -1.
        -11    1    1    2    0    0  0.33017132926E+02 -0.50049299661E+02 -0.15316640113E+03  0.16448407187E+03  0.00000000000E+00 0.  1.
         11    1    1    2    0    0  0.33168216607E+02  0.43476466745E+02 -0.17553224376E+03  0.18385293675E+03  0.00000000000E+00 0. -1.
</event>
<event>
 7    1  0.2693725E-009  0.9964144E+02  0.7561462E-02  0.1281052E+00
         -2   -1    0    0    0  501 -0.00000000000E+00  0.00000000000E+00  0.12094059624E+04  0.12094059624E+04  0.00000000000E+00 0. -1.
          2   -1    0    0  501    0  0.00000000000E+00 -0.00000000000E+00 -0.13143394029E+02  0.13143394029E+02  0.00000000000E+00 0.  1.
         25    2    1    2    0    0 -0.43025926326E+02 -0.28872199271E+02  0.82151479650E+03  0.83259642163E+03  0.12508159823E+03 0.  0.
          5    1    3    3  502    0 -0.31025285078E+02  0.23337568453E+02  0.68160928608E+03  0.68272681336E+03  0.41800000000E+01 0. -1.
         -5    1    3    3    0  502 -0.12000641249E+02 -0.52209767725E+02  0.13990551043E+03  0.14986960827E+03  0.41800000000E+01 0. -1.
        -11    1    1    2    0    0  0.65229130390E+02  0.44838456127E+02  0.24952407352E+03  0.26177774899E+03  0.00000000000E+00 0.  1.
         11    1    1    2    0    0 -0.22203204064E+02 -0.15966256855E+02  0.12522369835E+03  0.12817518581E+03  0.00000000000E+00 0. -1.
</event>
<event>
 7    1  0.2693725E-009  0.6306269E+02  0.7561462E-02  0.1385411E+00
         -3   -1    0    0    0  501 -0.00000000000E+00  0.00000000000E+00  0.79918725900E+02  0.79918725900E+02  0.00000000000E+00 0.  1.
          3   -1    0    0  501    0  0.00000000000E+00 -0.00000000000E+00 -0.17592976705E+03  0.17592976705E+03  0.00000000000E+00 0. -1.
         25    2    1    2    0    0 -0.49433480747E+01  0.11173862978E+02 -0.10608123994E+03  0.16446851434E+03  0.12508945134E+03 0.  0.
          5    1    3    3  502    0 -0.49411719865E+02  0.57080044153E+01 -0.74220970573E+00  0.49921164346E+02  0.41800000000E+01 0.  1.
         -5    1    3    3    0  502  0.44468371790E+02  0.54658585632E+01 -0.10533903023E+03  0.11454734999E+03  0.41800000000E+01 0.  1.
        -11    1    1    2    0    0  0.17019773492E+02 -0.74086284086E+01  0.47963975408E+02  0.51430568746E+02  0.00000000000E+00 0.  1.
         11    1    1    2    0    0 -0.12076425417E+02 -0.37652345699E+01 -0.37893776621E+02  0.39949409868E+02  0.00000000000E+00 0. -1.
</event>
<event>
 7    1  0.2693725E-009  0.1008791E+03  0.7561462E-02  0.1278458E+00
          1   -1    0    0  501    0  0.00000000000E+00  0.00000000000E+00  0.63084248717E+02  0.63084248717E+02  0.00000000000E+00 0. -1.
         -1   -1    0    0    0  501 -0.00000000000E+00 -0.00000000000E+00 -0.34269534355E+03  0.34269534355E+03  0.00000000000E+00 0.  1.
         25    2    1    2    0    0 -0.84442836823E+02  0.16718460066E+02 -0.21947339278E+03  0.26688757184E+03  0.12510118411E+03 0.  0.
          5    1    3    3  502    0 -0.49541095557E+02 -0.14017390169E+02 -0.21368107361E+03  0.21983603207E+03  0.41800000000E+01 0.  1.
         -5    1    3    3    0  502 -0.34901741265E+02  0.30735850235E+02 -0.57923191679E+01  0.47051539767E+02  0.41800000000E+01 0.  1.
        -11    1    1    2    0    0  0.47535336869E+02  0.19794660378E+02 -0.69132383965E+02  0.86201643508E+02  0.00000000000E+00 0.  1.
         11    1    1    2    0    0  0.36907499953E+02 -0.36513120445E+02  0.89946819125E+01  0.52690376921E+02  0.00000000000E+00 0. -1.
</event>
<event>
 7    1  0.2693725E-009  0.7693055E+02  0.7561462E-02  0.1337995E+00
          2   -1    0    0  501    0  0.00000000000E+00  0.00000000000E+00  0.10601517156E+03  0.10601517156E+03  0.00000000000E+00 0. -1.
         -2   -1    0    0    0  501 -0.00000000000E+00 -0.00000000000E+00 -0.13692786696E+03  0.13692786696E+03  0.00000000000E+00 0.  1.
         25    2    1    2    0    0 -0.22035895377E+02 -0.38034192926E+02 -0.38502833565E+02  0.13806581271E+03  0.12509004729E+03 0.  0.
          5    1    3    3  502    0 -0.23093242429E+02 -0.11541843656E+02  0.44066748577E+02  0.51243172530E+02  0.41800000000E+01 0. -1.
         -5    1    3    3    0  502  0.10573470517E+01 -0.26492349270E+02 -0.82569582142E+02  0.86822640180E+02  0.41800000000E+01 0. -1.
        -11    1    1    2    0    0  0.50673510181E+02 -0.30746362032E+01  0.17705983785E+02  0.53765787297E+02  0.00000000000E+00 0.  1.
         11    1    1    2    0    0 -0.28637614805E+02  0.41108829129E+02 -0.10115845626E+02  0.51111438512E+02  0.00000000000E+00 0. -1.
</event>
<event>
 7    1  0.2693725E-009  0.2164116E+03  0.7561462E-02  0.1136587E+00
          2   -1    0    0  501    0  0.00000000000E+00  0.00000000000E+00  0.11418935133E+04  0.11418935133E+04  0.00000000000E+00 0.  1.
         -2   -1    0    0    0  501 -0.00000000000E+00 -0.00000000000E+00 -0.57214752283E+02  0.57214752283E+02  0.00000000000E+00 0. -1.
         25    2    1    2    0    0  0.18481741245E+03  0.56066678229E+02  0.26136900806E+03  0.34822753469E+03  0.12509080379E+03 0.  0.
          5    1    3    3  502    0  0.11714519866E+02  0.43049241536E+02  0.10655146299E+03  0.11559045738E+03  0.41800000000E+01 0. -1.
         -5    1    3    3    0  502  0.17310289258E+03  0.13017436693E+02  0.15481754506E+03  0.23263707731E+03  0.41800000000E+01 0. -1.
        -11    1    1    2    0    0 -0.72148309063E+02 -0.70387249589E+02  0.41546184137E+03  0.42751407584E+03  0.00000000000E+00 0. -1.
         11    1    1    2    0    0 -0.11266910339E+03  0.14320571360E+02  0.40784791159E+03  0.42336665506E+03  0.00000000000E+00 0.  1.
</event>
<event>
 7    1  0.2693725E-009  0.1459934E+03  0.7561462E-02  0.1205485E+00
          2   -1    0    0  501    0  0.00000000000E+00  0.00000000000E+00  0.67862407634E+03  0.67862407634E+03  0.00000000000E+00 0. -1.
         -2   -1    0    0    0  501 -0.00000000000E+00 -0.00000000000E+00 -0.38848246814E+02  0.38848246814E+02  0.00000000000E+00 0.  1.
         25    2    1    2    0    0  0.10753684319E+03  0.34582235808E+02  0.44031155260E+03  0.47146756973E+03  0.12508917732E+03 0.  0.
          5    1    3    3  502    0  0.91901259468E+02 -0.20138634424E+02  0.16215825248E+03  0.18752113837E+03  0.41800000000E+01 0.  1.
         -5    1    3    3    0  502  0.15635583726E+02  0.54720870233E+02  0.27815330012E+03  0.28394643136E+03  0.41800000000E+01 0.  1.
        -11    1    1    2    0    0 -0.96916048875E+02  0.76339103093E+01  0.11200633377E+03  0.14831188732E+03  0.00000000000E+00 0.  1.
         11    1    1    2    0    0 -0.10620794319E+02 -0.42216146118E+02  0.87457943158E+02  0.97692866098E+02  0.00000000000E+00 0. -1.
</event>
<event>
 7    1  0.2693725E-009  0.1122399E+03  0.7561462E-02  0.1256477E+00
          1   -1    0    0  501    0  0.00000000000E+00  0.00000000000E+00  0.65349061502E+02  0.65349061502E+02  0.00000000000E+00 0. -1.
         -1   -1    0    0    0  501 -0.00000000000E+00 -0.00000000000E+00 -0.22616057765E+03  0.22616057765E+03  0.00000000000E+00 0.  1.
         25    2    1    2    0    0  0.42140679347E+02 -0.30295154123E+02 -0.11760608800E+03  0.17936649703E+03  0.12509002799E+03 0.  0.
          5    1    3    3  502    0  0.80559923904E+02 -0.38998823303E+02 -0.10447105642E+03  0.13763169544E+03  0.41800000000E+01 0. -1.
         -5    1    3    3    0  502 -0.38419244557E+02  0.87036691797E+01 -0.13135031573E+02  0.41734801592E+02  0.41800000000E+01 0. -1.
        -11    1    1    2    0    0 -0.27949464042E+02 -0.25414438324E+02 -0.39315257684E+02  0.54522983248E+02  0.00000000000E+00 0.  1.
         11    1    1    2    0    0 -0.14191215305E+02  0.55709592447E+02 -0.38901704662E+01  0.57620158874E+02  0.00000000000E+00 0. -1.
</event>
<event>
 7    1  0.2693725E-009  0.1134755E+03  0.7561462E-02  0.1254266E+00
         -1   -1    0    0    0  501 -0.00000000000E+00  0.00000000000E+00  0.83791388698E+02  0.83791388698E+02  0.00000000000E+00 0.  1.
          1   -1    0    0  501    0  0.00000000000E+00 -0.00000000000E+00 -0.16167893952E+03  0.16167893952E+03  0.00000000000E+00 0. -1.
         25    2    1    2    0    0 -0.43584286868E+02 -0.30935257771E+02 -0.28264462975E+02  0.13893242933E+03  0.12508700899E+03 0.  0.
          5    1    3    3  502    0 -0.76161808518E+02  0.16598483619E+02 -0.19847622504E+02  0.80545212485E+02  0.41800000000E+01 0. -1.
         -5    1    3    3    0  502  0.32577521649E+02 -0.47533741390E+02 -0.84168404709E+01  0.58387216845E+02  0.41800000000E+01 0. -1.
        -11    1    1    2    0    0  0.48176670725E+02 -0.10595572105E+02 -0.13090722054E+02  0.51035524434E+02  0.00000000000E+00 0.  1.
         11    1    1    2    0    0 -0.45923838562E+01  0.41530829876E+02 -0.36532365790E+02  0.55502374453E+02  0.00000000000E+00 0. -1.
</event>
<event>
 7    1  0.2693725E-009  0.9666871E+02  0.7561462E-02  0.1287461E+00
         -1   -1    0    0    0  501 -0.00000000000E+00  0.00000000000E+00  0.32608119325E+02  0.32608119325E+02  0.00000000000E+00 0.  1.
          1   -1    0    0  501    0  0.00000000000E+00 -0.00000000000E+00 -0.51266984890E+03  0.51266984890E+03  0.00000000000E+00 0. -1.
         25    2    1    2    0    0  0.27266637607E+02 -0.33884211456E+00 -0.40137337602E+03  0.42129734853E+03  0.12508910650E+03 0.  0.
          5    1    3    3  502    0  0.67823906963E+02 -0.19076538391E+01 -0.12834005540E+03  0.14523210293E+03  0.41800000000E+01 0.  1.
         -5    1    3    3    0  502 -0.40557269356E+02  0.15688117245E+01 -0.27303332061E+03  0.27606524561E+03  0.41800000000E+01 0.  1.
        -11    1    1    2    0    0 -0.28796506826E+02 -0.37167816932E+02 -0.13773597579E+02  0.48993850748E+02  0.00000000000E+00 0. -1.
         11    1    1    2    0    0  0.15298692186E+01  0.37506659047E+02 -0.64914755982E+02  0.74986768946E+02  0.00000000000E+00 0.  1.
</event>
<event>
 7    1  0.2693725E-009  0.1401654E+03  0.7561462E-02  0.1213107E+00
          2   -1    0    0  501    0  0.00000000000E+00  0.00000000000E+00  0.84987943024E+03  0.84987943024E+03  0.00000000000E+00 0.  1.
         -2   -1    0    0    0  501 -0.00000000000E+00 -0.00000000000E+00 -0.31439360818E+02  0.31439360818E+02  0.00000000000E+00 0. -1.
         25    2    1    2    0    0  0.74758221813E+02 -0.73131216574E+02  0.26805143267E+03  0.31374697041E+03  0.12509446159E+03 0.  0.
          5    1    3    3  502    0 -0.20607195018E+02 -0.31999233838E+02  0.16740311181E+02  0.41788968295E+02  0.41800000000E+01 0.  1.
         -5    1    3    3    0  502  0.95365416832E+02 -0.41131982736E+02  0.25131112149E+03  0.27195800211E+03  0.41800000000E+01 0.  1.
        -11    1    1    2    0    0 -0.94681273440E+02  0.48378739818E+02  0.44300393994E+03  0.45558482943E+03  0.00000000000E+00 0.  1.
         11    1    1    2    0    0  0.19923051627E+02  0.24752476756E+02  0.10738469681E+03  0.11198699121E+03  0.00000000000E+00 0. -1.
</event>
<event>
 7    1  0.2693725E-009  0.7291500E+02  0.7561462E-02  0.1350452E+00
         -1   -1    0    0    0  501 -0.00000000000E+00  0.00000000000E+00  0.54751083722E+02  0.54751083722E+02  0.00000000000E+00 0.  1.
          1   -1    0    0  501    0  0.00000000000E+00 -0.00000000000E+00 -0.29845082153E+03  0.29845082153E+03  0.00000000000E+00 0. -1.
         25    2    1    2    0    0  0.43168978504E+01  0.32048700383E+02 -0.21974898090E+03  0.25491735165E+03  0.12508991470E+03 0.  0.
          5    1    3    3  502    0 -0.63400124246E+01  0.37196920902E+02 -0.23334512817E+03  0.23641325665E+03  0.41800000000E+01 0. -1.
         -5    1    3    3    0  502  0.10656910275E+02 -0.51482205182E+01  0.13596147266E+02  0.18504094995E+02  0.41800000000E+01 0. -1.
        -11    1    1    2    0    0  0.37601065605E+02  0.67430450528E+01 -0.10206167508E+02  0.39540797241E+02  0.00000000000E+00 0.  1.
         11    1    1    2    0    0 -0.41917963455E+02 -0.38791745436E+02 -0.13744589403E+02  0.58743756367E+02  0.00000000000E+00 0. -1.
</event>
<event>
 7    1  0.2693725E-009  0.6972090E+02  0.7561462E-02  0.1361045E+00
          1   -1    0    0  501    0  0.00000000000E+00  0.00000000000E+00  0.24955146693E+03  0.24955146693E+03  0.00000000000E+00 0. -1.
         -1   -1    0    0    0  501 -0.00000000000E+00 -0.00000000000E+00 -0.55732930410E+02  0.55732930410E+02  0.00000000000E+00 0.  1.
         25    2    1    2    0    0 -0.11155338560E+02 -0.25954361300E+02  0.15532469071E+03  0.20142342220E+03  0.12509022750E+03 0.  0.
          5    1    3    3  502    0 -0.52928760324E+02 -0.31148297078E+02  0.14551437084E+03  0.15799865380E+03  0.41800000000E+01 0. -1.
         -5    1    3    3    0  502  0.41773421764E+02  0.51939357776E+01  0.98103198691E+01  0.43424768401E+02  0.41800000000E+01 0. -1.
        -11    1    1    2    0    0 -0.12557351739E+01  0.22724570305E+02 -0.28033398027E+02  0.36108923707E+02  0.00000000000E+00 0.  1.
         11    1    1    2    0    0  0.12411073734E+02  0.32297909952E+01  0.66527243834E+02  0.67752051432E+02  0.00000000000E+00 0. -1.
</event>
<event>
 7    1  0.2693725E-009  0.3337467E+03  0.7561462E-02  0.1069491E+00
         -1   -1    0    0    0  501 -0.00000000000E+00  0.00000000000E+00  0.32175607308E+03  0.32175607308E+03  0.00000000000E+00 0.  1.
          1   -1    0    0  501    0  0.00000000000E+00 -0.00000000000E+00 -0.39711077842E+03  0.39711077842E+03  0.00000000000E+00 0. -1.
         25    2    1    2    0    0  0.27085121368E+03 -0.17136558964E+03  0.79372855196E+02  0.35309229457E+03  0.12509025971E+03 0.  0.
          5    1    3    3  502    0  0.43165653126E+02 -0.93642408598E+02  0.17851724408E+02  0.10472979883E+03  0.41800000000E+01 0.  1.
         -5    1    3    3    0  502  0.22768556055E+03 -0.77723181045E+02  0.61521130788E+02  0.24836249574E+03  0.41800000000E+01 0.  1.
        -11    1    1    2    0    0 -0.10765235340E+03  0.42527025169E+02 -0.18553329012E+02  0.11722543700E+03  0.00000000000E+00 0.  1.
         11    1    1    2    0    0 -0.16319886028E+03  0.12883856447E+03 -0.13617423152E+03  0.24854911994E+03  0.00000000000E+00 0. -1.
</event>
<event>
 7    1  0.2693725E-009  0.7833341E+02  0.7561462E-02  0.1333849E+00
         -1   -1    0    0    0  501 -0.00000000000E+00  0.00000000000E+00  0.13216583636E+03  0.13216583636E+03  0.00000000000E+00 0.  1.
          1   -1    0    0  501    0  0.00000000000E+00 -0.00000000000E+00 -0.87773627171E+02  0.87773627171E+02  0.00000000000E+00 0. -1.
         25    2    1    2    0    0 -0.16101941180E+02  0.35121973414E+00  0.25434876017E+02  0.12866698243E+03  0.12509541792E+03 0.  0.
          5    1    3    3  502    0  0.31564228708E+02  0.22062441734E+02  0.55839326497E+02  0.67959948888E+02  0.41800000000E+01 0.  1.
         -5    1    3    3    0  502 -0.47666169888E+02 -0.21711222000E+02 -0.30404450480E+02  0.60707033542E+02  0.41800000000E+01 0.  1.
        -11    1    1    2    0    0  0.39223475408E+01 -0.31602529515E+02  0.40416155815E+02  0.51454546279E+02  0.00000000000E+00 0.  1.
         11    1    1    2    0    0  0.12179593639E+02  0.31251309781E+02 -0.21458822643E+02  0.39817934821E+02  0.00000000000E+00 0. -1.
</event>
<event>
 7    1  0.3501295E-009  0.1515828E+03  0.7561462E-02  0.1198541E+00
          1   -1    0    0  501    0  0.00000000000E+00  0.00000000000E+00  0.10570750342E+04  0.10570750342E+04  0.00000000000E+00 0. -1.
         -1   -1    0    0    0  501 -0.00000000000E+00 -0.00000000000E+00 -0.25433014096E+02  0.25433014096E+02  0.00000000000E+00 0.  1.
         25    2    1    2    0    0  0.76463559284E+02  0.94865159903E+02  0.51427252140E+03  0.54311128303E+03  0.12509022754E+03 0.  0.
          5    1    3    3  502    0  0.28565476068E+02  0.11039127842E+03  0.42973929890E+03  0.44462968659E+03  0.41800000000E+01 0.  1.
         -5    1    3    3    0  502  0.47898083215E+02 -0.15526118518E+02  0.84533222491E+02  0.98481596436E+02  0.41800000000E+01 0.  1.
        -11    1    1    2    0    0  0.11930171538E+02 -0.16808679869E+02  0.21848070406E+02  0.30036625848E+02  0.00000000000E+00 0.  1.
         11    1    1    2    0    0 -0.88393730822E+02 -0.78056480034E+02  0.49552142829E+03  0.50936013941E+03  0.00000000000E+00 0. -1.
</event>
<event>
 7    1  0.2693725E-009  0.1801084E+03  0.7561462E-02  0.1167698E+00
          2   -1    0    0  501    0  0.00000000000E+00  0.00000000000E+00  0.63747285995E+03  0.63747285995E+03  0.00000000000E+00 0. -1.
         -2   -1    0    0    0  501 -0.00000000000E+00 -0.00000000000E+00 -0.71231737668E+02  0.71231737668E+02  0.00000000000E+00 0.  1.
         25    2    1    2    0    0  0.12532202156E+03 -0.81443230191E+02  0.47053600402E+03  0.50930353023E+03  0.12508935203E+03 0.  0.
          5    1    3    3  502    0 -0.15210718349E+02  0.96781297124E+01  0.11243008596E+03  0.11394309447E+03  0.41800000000E+01 0. -1.
         -5    1    3    3    0  502  0.14053273991E+03 -0.91121359903E+02  0.35810591806E+03  0.39536043576E+03  0.41800000000E+01 0. -1.
        -11    1    1    2    0    0 -0.10994098444E+03  0.21165792484E+02  0.52481518977E+02  0.12364999258E+03  0.00000000000E+00 0.  1.
         11    1    1    2    0    0 -0.15381037117E+02  0.60277437707E+02  0.43223599285E+02  0.75751074808E+02  0.00000000000E+00 0. -1.
</event>
<event>
 7    1  0.2693725E-009  0.1206950E+03  0.7561462E-02  0.1241955E+00
          2   -1    0    0  501    0  0.00000000000E+00  0.00000000000E+00  0.12391378817E+03  0.12391378817E+03  0.00000000000E+00 0. -1.
         -2   -1    0    0    0  501 -0.00000000000E+00 -0.00000000000E+00 -0.11907275766E+03  0.11907275766E+03  0.00000000000E+00 0.  1.
         25    2    1    2    0    0  0.37068679607E+02 -0.39887811444E+02 -0.48343813838E+01  0.13651257417E+03  0.12508871713E+03 0.  0.
          5    1    3    3  502    0 -0.39336351086E+02 -0.43866363806E+02  0.49131370189E+01  0.59272402564E+02  0.41800000000E+01 0. -1.
         -5    1    3    3    0  502  0.76405030693E+02  0.39785523619E+01 -0.97475184027E+01  0.77240171602E+02  0.41800000000E+01 0. -1.
        -11    1    1    2    0    0  0.28681424875E+02  0.25533082683E+02 -0.54247283602E+00  0.38403863360E+02  0.00000000000E+00 0. -1.
         11    1    1    2    0    0 -0.65750104482E+02  0.14354728762E+02  0.10217884731E+02  0.68070108312E+02  0.00000000000E+00 0.  1.
</event>
<event>
 7    1  0.2693725E-009  0.1884938E+03  0.7561462E-02  0.1159827E+00
         -1   -1    0    0    0  501 -0.00000000000E+00  0.00000000000E+00  0.64591633646E+02  0.64591633646E+02  0.00000000000E+00 0.  1.
          1   -1    0    0  501    0  0.00000000000E+00 -0.00000000000E+00 -0.64241656344E+03  0.64241656344E+03  0.00000000000E+00 0. -1.
         25    2    1    2    0    0 -0.11057640580E+03  0.13159611038E+03 -0.27968184635E+03  0.35130330928E+03  0.12508957648E+03 0.  0.
          5    1    3    3  502    0  0.10980735551E+02  0.44302719341E+02 -0.16869852973E+02  0.48840268566E+02  0.41800000000E+01 0. -1.
         -5    1    3    3    0  502 -0.12155714136E+03  0.87293391035E+02 -0.26281199338E+03  0.30246304071E+03  0.41800000000E+01 0. -1.
        -11    1    1    2    0    0  0.44779052930E+02 -0.97595450663E+02 -0.23503353310E+03  0.25840045908E+03  0.00000000000E+00 0. -1.
         11    1    1    2    0    0  0.65797352875E+02 -0.34000659713E+02 -0.63109550352E+02  0.97304428737E+02  0.00000000000E+00 0.  1.
</event>
<event>
 7    1  0.2693725E-009  0.1323829E+03  0.7561462E-02  0.1223962E+00
         -3   -1    0    0    0  501 -0.00000000000E+00  0.00000000000E+00  0.48264604723E+03  0.48264604723E+03  0.00000000000E+00 0.  1.
          3   -1    0    0  501    0  0.00000000000E+00 -0.00000000000E+00 -0.52258557636E+02  0.52258557636E+02  0.00000000000E+00 0. -1.
         25    2    1    2    0    0 -0.66854839606E+02  0.71399873011E+02  0.30407465332E+03  0.34304004932E+03  0.12509024422E+03 0.  0.
          5    1    3    3  502    0  0.24425907281E+02 -0.98120094408E+01  0.18630024368E+02  0.32518466811E+02  0.41800000000E+01 0. -1.
         -5    1    3    3    0  502 -0.91280746887E+02  0.81211882452E+02  0.28544462895E+03  0.31052158250E+03  0.41800000000E+01 0. -1.
        -11    1    1    2    0    0 -0.11796964275E+02 -0.45636693085E+01 -0.13226142117E+02  0.18300991202E+02  0.00000000000E+00 0. -1.
         11    1    1    2    0    0  0.78651803881E+02 -0.66836203703E+02  0.13953897839E+03  0.17356356435E+03  0.00000000000E+00 0.  1.
</event>
<event>
 7    1  0.2693725E-009  0.1883031E+03  0.7561462E-02  0.1160001E+00
          2   -1    0    0  501    0  0.00000000000E+00  0.00000000000E+00  0.13010101779E+03  0.13010101779E+03  0.00000000000E+00 0. -1.
         -2   -1    0    0    0  501 -0.00000000000E+00 -0.00000000000E+00 -0.33552392217E+03  0.33552392217E+03  0.00000000000E+00 0.  1.
         25    2    1    2    0    0  0.14523235996E+03  0.97207382949E+02 -0.86482523417E+02  0.23166608526E+03  0.12509290358E+03 0.  0.
          5    1    3    3  502    0  0.65268667951E+02  0.74430492648E+02  0.15210555490E+02  0.10024335714E+03  0.41800000000E+01 0. -1.
         -5    1    3    3    0  502  0.79963692004E+02  0.22776890301E+02 -0.10169307891E+03  0.13142272813E+03  0.41800000000E+01 0. -1.
        -11    1    1    2    0    0 -0.97595602023E+02 -0.10786074305E+03 -0.11416547153E+03  0.18491240174E+03  0.00000000000E+00 0.  1.
         11    1    1    2    0    0 -0.47636757932E+02  0.10653360102E+02 -0.47749094319E+01  0.49046452959E+02  0.00000000000E+00 0. -1.
</event>
<event>
 7    1  0.2693725E-009  0.1829180E+03  0.7561462E-02  0.1165009E+00
          2   -1    0    0  501    0  0.00000000000E+00  0.00000000000E+00  0.48168917806E+02  0.48168917806E+02  0.00000000000E+00 0. -1.
         -2   -1    0    0    0  501 -0.00000000000E+00 -0.00000000000E+00 -0.84997338174E+03  0.84997338174E+03  0.00000000000E+00 0.  1.
         25    2    1    2    0    0  0.13621637054E+03  0.97721674086E+02 -0.47414118657E+03  0.51822972256E+03  0.12509098832E+03 0.  0.
          5    1    3    3  502    0  0.88303919746E+02  0.26426756770E+02 -0.10764040348E+03  0.14177406172E+03  0.41800000000E+01 0.  1.
         -5    1    3    3    0  502  0.47912450798E+02  0.71294917317E+02 -0.36650078309E+03  0.37645566084E+03  0.41800000000E+01 0.  1.
        -11    1    1    2    0    0 -0.41153823294E+02 -0.81264438744E+02 -0.20112246951E+03  0.22078902581E+03  0.00000000000E+00 0. -1.
         11    1    1    2    0    0 -0.95062547250E+02 -0.16457235342E+02 -0.12654080786E+03  0.15912355118E+03  0.00000000000E+00 0.  1.
</event>
<event>
 7    1  0.2693725E-009  0.6684639E+02  0.7561462E-02  0.1371158E+00
          1   -1    0    0  501    0  0.00000000000E+00  0.00000000000E+00  0.13917159964E+03  0.13917159964E+03  0.00000000000E+00 0. -1.
         -1   -1    0    0    0  501 -0.00000000000E+00 -0.00000000000E+00 -0.11689428644E+03  0.11689428644E+03  0.00000000000E+00 0.  1.
         25    2    1    2    0    0  0.35715225308E+02 -0.11755217023E+02 -0.43840772986E+02  0.13778387090E+03  0.12509444136E+03 0.  0.
          5    1    3    3  502    0  0.20322393183E+02 -0.18059179679E+02  0.42022490216E+02  0.50224453400E+02  0.41800000000E+01 0. -1.
         -5    1    3    3    0  502  0.15392832125E+02  0.63039626567E+01 -0.85863263201E+02  0.87559417504E+02  0.41800000000E+01 0. -1.
        -11    1    1    2    0    0  0.16189058389E+02 -0.21856076484E+02 -0.74392805885E+00  0.27208952934E+02  0.00000000000E+00 0.  1.
         11    1    1    2    0    0 -0.51904283698E+02  0.33611293507E+02  0.66862014239E+02  0.91073062238E+02  0.00000000000E+00 0. -1.
</event>
<event>
 7    1  0.2693725E-009  0.1587191E+03  0.7561462E-02  0.1190151E+00
          1   -1    0    0  501    0  0.00000000000E+00  0.00000000000E+00  0.11218548804E+03  0.11218548804E+03  0.00000000000E+00 0. -1.
         -1   -1    0    0    0  501 -0.00000000000E+00 -0.00000000000E+00 -0.26755449369E+03  0.26755449369E+03  0.00000000000E+00 0.  1.
         25    2    1    2    0    0  0.76892491952E+02  0.10675716946E+03 -0.51162704817E+02  0.18861653001E+03  0.12509606100E+03 0.  0.
          5    1    3    3  502    0  0.11159771217E+03  0.77307153700E+02 -0.39286911186E+02  0.14139087370E+03  0.41800000000E+01 0.  1.
         -5    1    3    3    0  502 -0.34705220222E+02  0.29450015761E+02 -0.11875793631E+02  0.47225656304E+02  0.41800000000E+01 0.  1.
        -11    1    1    2    0    0 -0.53376941392E+02 -0.44967469564E+02 -0.10371085335E+03  0.12500844889E+03  0.00000000000E+00 0.  1.
         11    1    1    2    0    0 -0.23515550561E+02 -0.61789699896E+02 -0.49544749155E+00  0.66115002833E+02  0.00000000000E+00 0. -1.
</event>
<event>
 7    1  0.2693725E-009  0.1251922E+03  0.7561462E-02  0.1234769E+00
          2   -1    0    0  501    0  0.00000000000E+00  0.00000000000E+00  0.42804082574E+03  0.42804082574E+03  0.00000000000E+00 0. -1.
         -2   -1    0    0    0  501 -0.00000000000E+00 -0.00000000000E+00 -0.39829920667E+02  0.39829920667E+02  0.00000000000E+00 0.  1.
         25    2    1    2    0    0  0.59832769286E+02  0.21685942471E+02  0.27841088073E+03  0.31178507059E+03  0.12508825426E+03 0.  0.
          5    1    3    3  502    0  0.22027527410E+02 -0.52437180861E+02  0.11448798045E+03  0.12790559006E+03  0.41800000000E+01 0. -1.
         -5    1    3    3    0  502  0.37805241876E+02  0.74123123332E+02  0.16392290028E+03  0.18387948053E+03  0.41800000000E+01 0. -1.
        -11    1    1    2    0    0 -0.78591407668E+02 -0.36002184526E+02  0.93894894539E+02  0.12762843676E+03  0.00000000000E+00 0.  1.
         11    1    1    2    0    0  0.18758638382E+02  0.14316242054E+02  0.15905129810E+02  0.28457239058E+02  0.00000000000E+00 0. -1.
</event>
<event>
 7    1  0.2693725E-009  0.6791891E+02  0.7561462E-02  0.1367316E+00
          1   -1    0    0  501    0  0.00000000000E+00  0.00000000000E+00  0.99212330352E+02  0.99212330352E+02  0.00000000000E+00 0. -1.
         -1   -1    0    0    0  501 -0.00000000000E+00 -0.00000000000E+00 -0.12659383800E+03  0.12659383800E+03  0.00000000000E+00 0.  1.
         25    2    1    2    0    0 -0.17375917064E+02 -0.26529033527E+02 -0.25743700210E+02  0.13158958649E+03  0.12508944423E+03 0.  0.
          5    1    3    3  502    0 -0.58683845567E+02 -0.19698403714E+02 -0.52880523559E+02  0.81520813362E+02  0.41800000000E+01 0.  1.
         -5    1    3    3    0  502  0.41307928503E+02 -0.68306298126E+01  0.27136823350E+02  0.50068773126E+02  0.41800000000E+01 0.  1.
        -11    1    1    2    0    0  0.11029330052E+02  0.17338521494E+02 -0.44983593383E+02  0.49454970656E+02  0.00000000000E+00 0.  1.
         11    1    1    2    0    0  0.63465870117E+01  0.91905120331E+01  0.43345785948E+02  0.44761611204E+02  0.00000000000E+00 0. -1.
</event>
<event>
 7    1  0.2693725E-009  0.1906036E+03  0.7561462E-02  0.1157918E+00
          1   -1    0    0  501    0  0.00000000000E+00  0.00000000000E+00  0.91176066739E+02  0.91176066739E+02  0.00000000000E+00 0. -1.
         -1   -1    0    0    0  501 -0.00000000000E+00 -0.00000000000E+00 -0.57066783139E+03  0.57066783139E+03  0.00000000000E+00 0.  1.
         25    2    1    2    0    0  0.67177116713E+01 -0.15798670391E+03 -0.70169954860E+02  0.21348583991E+03  0.12508978781E+03 0.  0.
          5    1    3    3  502    0 -0.40516196524E+02 -0.78456538806E+01 -0.29398614895E+02  0.50841591471E+02  0.41800000000E+01 0. -1.
         -5    1    3    3    0  502  0.47233908195E+02 -0.15014105003E+03 -0.40771339965E+02  0.16264424844E+03  0.41800000000E+01 0. -1.
        -11    1    1    2    0    0  0.15903267565E+02  0.15884469712E+03 -0.34431575991E+03  0.37952324598E+03  0.00000000000E+00 0. -1.
         11    1    1    2    0    0 -0.22620979236E+02 -0.85799321041E+00 -0.65006049886E+02  0.68834812237E+02  0.00000000000E+00 0.  1.
</event>
<event>
 7    1  0.2693725E-009  0.1159415E+03  0.7561462E-02  0.1249946E+00
          2   -1    0    0  501    0  0.00000000000E+00  0.00000000000E+00  0.36063360648E+03  0.36063360648E+03  0.00000000000E+00 0.  1.
         -2   -1    0    0    0  501 -0.00000000000E+00 -0.00000000000E+00 -0.41090418782E+02  0.41090418782E+02  0.00000000000E+00 0. -1.
         25    2    1    2    0    0  0.39842964868E+02 -0.20533125110E+02  0.13991102576E+03  0.19295749144E+03  0.12509367409E+03 0.  0.
          5    1    3    3  502    0  0.81177714572E+02  0.91659954147E+01  0.84880902071E+02  0.11788162177E+03  0.41800000000E+01 0.  1.
         -5    1    3    3    0  502 -0.41334749704E+02 -0.29699120524E+02  0.55030123687E+02  0.75075869665E+02  0.41800000000E+01 0.  1.
        -11    1    1    2    0    0 -0.61829275429E+02 -0.86964834280E+01  0.14715376944E+03  0.15985218167E+03  0.00000000000E+00 0.  1.
         11    1    1    2    0    0  0.21986310561E+02  0.29229608538E+02  0.32478392498E+02  0.48914352153E+02  0.00000000000E+00 0. -1.
</event>
<event>
 7    1  0.2693725E-009  0.9666417E+02  0.7561462E-02  0.1287471E+00
         -2   -1    0    0    0  501 -0.00000000000E+00  0.00000000000E+00  0.32138980732E+02  0.32138980732E+02  0.00000000000E+00 0.  1.
          2   -1    0    0  501    0  0.00000000000E+00 -0.00000000000E+00 -0.58002890166E+03  0.58002890166E+03  0.00000000000E+00 0. -1.
         25    2    1    2    0    0 -0.52242769645E+01 -0.41304678049E+02 -0.46155094091E+03  0.48001000806E+03  0.12508783828E+03 0.  0.
          5    1    3    3  502    0 -0.30684492478E+02 -0.68909902477E+02 -0.40507234857E+03  0.41205726873E+03  0.41800000000E+01 0.  1.
         -5    1    3    3    0  502  0.25460215514E+02  0.27605224429E+02 -0.56478592342E+02  0.67952739332E+02  0.41800000000E+01 0.  1.
        -11    1    1    2    0    0  0.36764631757E+02  0.25272075112E+02 -0.68310809044E+01  0.45132910332E+02  0.00000000000E+00 0.  1.
         11    1    1    2    0    0 -0.31540354793E+02  0.16032602937E+02 -0.79507899114E+02  0.87024963998E+02  0.00000000000E+00 0. -1.
</event>
<event>
 7    1  0.2693725E-009  0.6655944E+02  0.7561462E-02  0.1372200E+00
          1   -1    0    0  501    0  0.00000000000E+00  0.00000000000E+00  0.13235254192E+03  0.13235254192E+03  0.00000000000E+00 0. -1.
         -1   -1    0    0    0  501 -0.00000000000E+00 -0.00000000000E+00 -0.10774709919E+03  0.10774709919E+03  0.00000000000E+00 0.  1.
         25    2    1    2    0    0  0.13582624365E+02 -0.47045636132E+02  0.11990242330E+02  0.13486565555E+03  0.12508876677E+03 0.  0.
          5    1    3    3  502    0  0.27714647777E+02  0.30606410029E+01 -0.47787821032E+02  0.55485290517E+02  0.41800000000E+01 0.  1.
         -5    1    3    3    0  502 -0.14132023412E+02 -0.50106277134E+02  0.59778063362E+02  0.79380365037E+02  0.41800000000E+01 0.  1.
        -11    1    1    2    0    0 -0.17832256339E+01  0.37435116859E+02  0.51375928900E+02  0.63592876474E+02  0.00000000000E+00 0. -1.
         11    1    1    2    0    0 -0.11799398732E+02  0.96105192727E+01 -0.38760728507E+02  0.41641109081E+02  0.00000000000E+00 0.  1.
</event>
<event>
 7    1  0.2693725E-009  0.1098039E+03  0.7561462E-02  0.1260933E+00
          1   -1    0    0  501    0  0.00000000000E+00  0.00000000000E+00  0.54152087609E+02  0.54152087609E+02  0.00000000000E+00 0. -1.
         -1   -1    0    0    0  501 -0.00000000000E+00 -0.00000000000E+00 -0.38733815050E+03  0.38733815050E+03  0.00000000000E+00 0.  1.
         25    2    1    2    0    0 -0.40939147265E+02 -0.79151125679E+02 -0.22248176003E+03  0.27034467689E+03  0.12508875370E+03 0.  0.
          5    1    3    3  502    0  0.29603503280E+02 -0.10353305822E+02 -0.13452654424E+03  0.13819703995E+03  0.41800000000E+01 0.  1.
         -5    1    3    3    0  502 -0.70542650545E+02 -0.68797819857E+02 -0.87955215799E+02  0.13214763694E+03  0.41800000000E+01 0.  1.
        -11    1    1    2    0    0  0.30643403381E+02  0.52728031525E+02 -0.12522505358E+03  0.13928595594E+03  0.00000000000E+00 0.  1.
         11    1    1    2    0    0  0.10295743883E+02  0.26423094154E+02  0.14520750719E+02  0.31859605274E+02  0.00000000000E+00 0. -1.
</event>
<event>
 7    1  0.2693725E-009  0.8422368E+02  0.7561462E-02  0.1317475E+00
         -1   -1    0    0    0  501 -0.00000000000E+00  0.00000000000E+00  0.11884985949E+03  0.11884985949E+03  0.00000000000E+00 0.  1.
          1   -1    0    0  501    0  0.00000000000E+00 -0.00000000000E+00 -0.13317767306E+03  0.13317767306E+03  0.00000000000E+00 0. -1.
         25    2    1    2    0    0  0.10844365305E+02 -0.10396360465E+02  0.55135722064E+02  0.13751798723E+03  0.12508223053E+03 0.  0.
          5    1    3    3  502    0 -0.43535528112E+02 -0.19684040551E+02  0.65548473862E+02  0.81221170184E+02  0.41800000000E+01 0.  1.
         -5    1    3    3    0  502  0.54379893417E+02  0.92876800860E+01 -0.10412751797E+02  0.56296817045E+02  0.41800000000E+01 0.  1.
        -11    1    1    2    0    0 -0.37428869453E+02  0.29079495614E+01  0.23026631854E+01  0.37612214731E+02  0.00000000000E+00 0.  1.
         11    1    1    2    0    0  0.26584504149E+02  0.74884109041E+01 -0.71766198816E+02  0.76897330586E+02  0.00000000000E+00 0. -1.
</event>
<event>
 7    1  0.2693725E-009  0.8858571E+02  0.7561462E-02  0.1306313E+00
         -1   -1    0    0    0  501 -0.00000000000E+00  0.00000000000E+00  0.12414069466E+03  0.12414069466E+03  0.00000000000E+00 0.  1.
          1   -1    0    0  501    0  0.00000000000E+00 -0.00000000000E+00 -0.11898653491E+03  0.11898653491E+03  0.00000000000E+00 0. -1.
         25    2    1    2    0    0 -0.42372859819E+02  0.31671145470E+01  0.39767762854E+02  0.13796060250E+03  0.12508462342E+03 0.  0.
          5    1    3    3  502    0 -0.86331312043E+02  0.69568905002E+01  0.17900349384E+02  0.88540322297E+02  0.41800000000E+01 0. -1.
         -5    1    3    3    0  502  0.43958452223E+02 -0.37897759532E+01  0.21867413470E+02  0.49420280205E+02  0.41800000000E+01 0. -1.
        -11    1    1    2    0    0  0.15332492713E+02  0.75043090043E+01  0.29886641653E+02  0.34418183214E+02  0.00000000000E+00 0.  1.
         11    1    1    2    0    0  0.27040367106E+02 -0.10671423551E+02 -0.64500244758E+02  0.70748443853E+02  0.00000000000E+00 0. -1.
</event>
<event>
 7    1  0.2693725E-009  0.6350149E+02  0.7561462E-02  0.1383699E+00
          1   -1    0    0  501    0  0.00000000000E+00  0.00000000000E+00  0.52504203751E+02  0.52504203751E+02  0.00000000000E+00 0. -1.
         -1   -1    0    0    0  501 -0.00000000000E+00 -0.00000000000E+00 -0.26830079133E+03  0.26830079133E+03  0.00000000000E+00 0.  1.
         25    2    1    2    0    0 -0.13931622366E+02 -0.45729696370E+02 -0.10512215753E+03  0.17024483568E+03  0.12508933144E+03 0.  0.
          5    1    3    3  502    0 -0.13739961416E+02  0.12216200332E+02 -0.11031664583E+03  0.11191629389E+03  0.41800000000E+01 0.  1.
         -5    1    3    3    0  502 -0.19166094985E+00 -0.57945896703E+02  0.51944883019E+01  0.58328541790E+02  0.41800000000E+01 0.  1.
        -11    1    1    2    0    0  0.13426784507E+01  0.29409959460E+02  0.76788955043E+01  0.30425547440E+02  0.00000000000E+00 0. -1.
         11    1    1    2    0    0  0.12588943915E+02  0.16319736910E+02 -0.11835332556E+03  0.12013461197E+03  0.00000000000E+00 0.  1.
</event>
<event>
 7    1  0.2693725E-009  0.7944221E+02  0.7561462E-02  0.1330642E+00
          2   -1    0    0  501    0  0.00000000000E+00  0.00000000000E+00  0.13594229917E+03  0.13594229917E+03  0.00000000000E+00 0. -1.
         -2   -1    0    0    0  501 -0.00000000000E+00 -0.00000000000E+00 -0.13441860134E+03  0.13441860134E+03  0.00000000000E+00 0.  1.
         25    2    1    2    0    0  0.41455642323E+02 -0.44547202679E+01 -0.66865243138E+02  0.14784386586E+03  0.12509369736E+03 0.  0.
          5    1    3    3  502    0  0.56599775595E+02 -0.12962931101E+01  0.19484756385E+02  0.60019522695E+02  0.41800000000E+01 0. -1.
         -5    1    3    3    0  502 -0.15144133272E+02 -0.31584271577E+01 -0.86349999523E+02  0.87824343165E+02  0.41800000000E+01 0. -1.
        -11    1    1    2    0    0 -0.47477248508E+02  0.32416315496E+02  0.11192828085E+02  0.58567790097E+02  0.00000000000E+00 0.  1.
         11    1    1    2    0    0  0.60216061852E+01 -0.27961595228E+02  0.57196112884E+02  0.63949244544E+02  0.00000000000E+00 0. -1.
</event>
<event>
 7    1  0.2693725E-009  0.1905063E+03  0.7561462E-02  0.1158005E+00
          2   -1    0    0  501    0  0.00000000000E+00  0.00000000000E+00  0.30173107029E+03  0.30173107029E+03  0.00000000000E+00 0.  1.
         -2   -1    0    0    0  501 -0.00000000000E+00 -0.00000000000E+00 -0.17614010388E+03  0.17614010388E+03  0.00000000000E+00 0. -1.
         25    2    1    2    0    0 -0.33608118810E+02 -0.18119150121E+03  0.15290229641E+03  0.27015988629E+03  0.12508951257E+03 0.  0.
          5    1    3    3  502    0 -0.47461221617E+02 -0.75662944749E+02  0.13533483633E+03  0.16220492930E+03  0.41800000000E+01 0. -1.
         -5    1    3    3    0  502  0.13853102806E+02 -0.10552855646E+03  0.17567460085E+02  0.10795495699E+03  0.41800000000E+01 0. -1.
        -11    1    1    2    0    0  0.18099710260E+02  0.13817891548E+03 -0.59772598830E+02  0.15163698680E+03  0.00000000000E+00 0. -1.
         11    1    1    2    0    0  0.15508408550E+02  0.43012585731E+02  0.32461268832E+02  0.56074301076E+02  0.00000000000E+00 0.  1.
</event>
<event>
 7    1  0.2693725E-009  0.1266819E+03  0.7561462E-02  0.1232464E+00
         -3   -1    0    0    0  501 -0.00000000000E+00  0.00000000000E+00  0.38348839424E+02  0.38348839424E+02  0.00000000000E+00 0.  1.
          3   -1    0    0  501    0  0.00000000000E+00 -0.00000000000E+00 -0.47043832439E+03  0.47043832439E+03  0.00000000000E+00 0. -1.
         25    2    1    2    0    0  0.35237316471E+02 -0.87146033888E+02 -0.28377503463E+03  0.32405520803E+03  0.12508959941E+03 0.  0.
          5    1    3    3  502    0  0.48850915022E+02  0.70181253500E+01 -0.44729129334E+02  0.66737046630E+02  0.41800000000E+01 0. -1.
         -5    1    3    3    0  502 -0.13613598551E+02 -0.94164159238E+02 -0.23904590529E+03  0.25731816140E+03  0.41800000000E+01 0. -1.
        -11    1    1    2    0    0 -0.40929496461E+02  0.28967095505E+02 -0.53334011696E+02  0.73204051159E+02  0.00000000000E+00 0. -1.
         11    1    1    2    0    0  0.56921799898E+01  0.58178938383E+02 -0.94980438642E+02  0.11152790462E+03  0.00000000000E+00 0.  1.
</event>
<event>
 7    1  0.2693725E-009  0.8201408E+02  0.7561462E-02  0.1323431E+00
          2   -1    0    0  501    0  0.00000000000E+00  0.00000000000E+00  0.90735839249E+02  0.90735839249E+02  0.00000000000E+00 0. -1.
         -2   -1    0    0    0  501 -0.00000000000E+00 -0.00000000000E+00 -0.15882489785E+03  0.15882489785E+03  0.00000000000E+00 0.  1.
         25    2    1    2    0    0  0.76255554559E+00 -0.13304609405E+02 -0.89073594302E+02  0.15415490179E+03  0.12510809095E+03 0.  0.
          5    1    3    3  502    0  0.40855138117E+02 -0.49819455583E+02 -0.22917925385E+02  0.68511489322E+02  0.41800000000E+01 0.  1.
         -5    1    3    3    0  502 -0.40092582571E+02  0.36514846178E+02 -0.66155668918E+02  0.85643412465E+02  0.41800000000E+01 0.  1.
        -11    1    1    2    0    0  0.17661993406E+02 -0.57442358278E+01  0.51642893740E+02  0.54881059849E+02  0.00000000000E+00 0. -1.
         11    1    1    2    0    0 -0.18424548951E+02  0.19048845233E+02 -0.30658358044E+02  0.40524775468E+02  0.00000000000E+00 0.  1.
</event>
<event>
 7    1  0.2693725E-009  0.7528007E+02  0.7561462E-02  0.1343006E+00
         -1   -1    0    0    0  501 -0.00000000000E+00  0.00000000000E+00  0.15372286855E+03  0.15372286855E+03  0.00000000000E+00 0.  1.
          1   -1    0    0  501    0  0.00000000000E+00 -0.00000000000E+00 -0.85192279584E+02  0.85192279584E+02  0.00000000000E+00 0. -1.
         25    2    1    2    0    0  0.24134464833E+02  0.15610296453E+02  0.64787664060E+02  0.14376116261E+03  0.12507468454E+03 0.  0.
          5    1    3    3  502    0  0.41646009093E+02  0.69643644390E+00  0.96020012776E+02  0.10474822362E+03  0.41800000000E+01 0.  1.
         -5    1    3    3    0  502 -0.17511544260E+02  0.14913860009E+02 -0.31232348717E+02  0.39012938996E+02  0.41800000000E+01 0.  1.
        -11    1    1    2    0    0 -0.53989337625E+02 -0.88482378294E+01 -0.18013623251E+02  0.57598875965E+02  0.00000000000E+00 0. -1.
         11    1    1    2    0    0  0.29854872791E+02 -0.67620586235E+01  0.21756548159E+02  0.37555109559E+02  0.00000000000E+00 0.  1.
</event>
<event>
 7    1  0.2693725E-009  0.1243825E+03  0.7561462E-02  0.1236037E+00
          4   -1    0    0  501    0  0.00000000000E+00  0.00000000000E+00  0.65335240853E+03  0.65335240853E+03  0.00000000000E+00 0. -1.
         -4   -1    0    0    0  501 -0.00000000000E+00 -0.00000000000E+00 -0.31962854862E+02  0.31962854862E+02  0.00000000000E+00 0.  1.
         25    2    1    2    0    0  0.59636620516E+02  0.68892868071E+02  0.40918442514E+03  0.43747198900E+03  0.12508834322E+03 0.  0.
          5    1    3    3  502    0  0.61183424592E+02  0.84812246076E+02  0.40764800116E+03  0.42086921220E+03  0.41800000000E+01 0.  1.
         -5    1    3    3    0  502 -0.15468040764E+01 -0.15919378005E+02  0.15364239796E+01  0.16602776802E+02  0.41800000000E+01 0.  1.
        -11    1    1    2    0    0 -0.32486967523E+02 -0.88374175417E+02  0.14689228992E+03  0.17447848801E+03  0.00000000000E+00 0.  1.
         11    1    1    2    0    0 -0.27149652992E+02  0.19481307346E+02  0.65312838615E+02  0.73364786386E+02  0.00000000000E+00 0. -1.
</event>
<event>
 7    1  0.3718453E-009  0.9631077E+02  0.7561462E-02  0.1288251E+00
         -2   -1    0    0    0  501 -0.00000000000E+00  0.00000000000E+00  0.24531927037E+02  0.24531927037E+02  0.00000000000E+00 0.  1.
          2   -1    0    0  501    0  0.00000000000E+00 -0.00000000000E+00 -0.63802104840E+03  0.63802104840E+03  0.00000000000E+00 0. -1.
         25    2    1    2    0    0 -0.44074114603E+02  0.25847507344E+02 -0.24726924272E+03  0.28178076444E+03  0.12509076543E+03 0.  0.
          5    1    3    3  502    0 -0.20557793067E+02  0.54816896989E+02 -0.23509367168E+03  0.24230976439E+03  0.41800000000E+01 0.  1.
         -5    1    3    3    0  502 -0.23516321536E+02 -0.28969389645E+02 -0.12175571042E+02  0.39471000053E+02  0.41800000000E+01 0.  1.
        -11    1    1    2    0    0  0.25126592773E+02  0.28989487157E+02 -0.22250730457E+03  0.22579024916E+03  0.00000000000E+00 0. -1.
         11    1    1    2    0    0  0.18947521830E+02 -0.54836994501E+02 -0.14371257407E+03  0.15498196184E+03  0.00000000000E+00 0.  1.
</event>
<event>
 7    1  0.2693725E-009  0.2350025E+03  0.7561462E-02  0.1123168E+00
          1   -1    0    0  501    0  0.00000000000E+00  0.00000000000E+00  0.17148226604E+03  0.17148226604E+03  0.00000000000E+00 0. -1.
         -1   -1    0    0    0  501 -0.00000000000E+00 -0.00000000000E+00 -0.35343264687E+03  0.35343264687E+03  0.00000000000E+00 0.  1.
         25    2    1    2    0    0 -0.16881271315E+03 -0.13144394115E+03 -0.14761063569E+03  0.28846461467E+03  0.12509073653E+03 0.  0.
          5    1    3    3  502    0 -0.14656598568E+02 -0.70086643820E+02 -0.91188371974E+01  0.72301999387E+02  0.41800000000E+01 0.  1.
         -5    1    3    3    0  502 -0.15415611458E+03 -0.61357297330E+02 -0.13849179849E+03  0.21616261528E+03  0.41800000000E+01 0.  1.
        -11    1    1    2    0    0  0.10860847854E+03  0.27253247259E+02 -0.26213487895E+01  0.11200630592E+03  0.00000000000E+00 0. -1.
         11    1    1    2    0    0  0.60204234608E+02  0.10419069389E+03 -0.31718396357E+02  0.12444399233E+03  0.00000000000E+00 0.  1.
</event>
<event>
 7    1  0.2693725E-009  0.1030366E+03  0.7561462E-02  0.1274037E+00
          1   -1    0    0  501    0  0.00000000000E+00  0.00000000000E+00  0.14671763669E+03  0.14671763669E+03  0.00000000000E+00 0. -1.
         -1   -1    0    0    0  501 -0.00000000000E+00 -0.00000000000E+00 -0.98207492603E+02  0.98207492603E+02  0.00000000000E+00 0.  1.
         25    2    1    2    0    0  0.52713049693E+01  0.52717982721E+02  0.21348877849E+02  0.13751327890E+03  0.12508858833E+03 0.  0.
          5    1    3    3  502    0 -0.41275521419E+02  0.69918156394E+01  0.50667466836E+02  0.65857564106E+02  0.41800000000E+01 0. -1.
         -5    1    3    3    0  502  0.46546826388E+02  0.45726167081E+02 -0.29318588987E+02  0.71655714796E+02  0.41800000000E+01 0. -1.
        -11    1    1    2    0    0 -0.42105858634E+02 -0.12152089076E+02  0.29062010732E+02  0.52584950965E+02  0.00000000000E+00 0.  1.
         11    1    1    2    0    0  0.36834553665E+02 -0.40565893645E+02 -0.19007444952E+01  0.54826899425E+02  0.00000000000E+00 0. -1.
</event>
<event>
 7    1  0.2693725E-009  0.1184375E+03  0.7561462E-02  0.1245697E+00
          1   -1    0    0  501    0  0.00000000000E+00  0.00000000000E+00  0.41369592910E+03  0.41369592910E+03  0.00000000000E+00 0. -1.
         -1   -1    0    0    0  501 -0.00000000000E+00 -0.00000000000E+00 -0.53354976228E+02  0.53354976228E+02  0.00000000000E+00 0.  1.
         25    2    1    2    0    0  0.54241755733E+02  0.81441545510E+02  0.15158364126E+03  0.21954830551E+03  0.12509582230E+03 0.  0.
          5    1    3    3  502    0  0.70500839458E+02  0.43127177487E+02  0.25323984922E+02  0.86539577157E+02  0.41800000000E+01 0.  1.
         -5    1    3    3    0  502 -0.16259083724E+02  0.38314368023E+02  0.12625965634E+03  0.13300872835E+03  0.41800000000E+01 0.  1.
        -11    1    1    2    0    0 -0.97443653290E+01 -0.63615611060E+02  0.49512733363E+02  0.81199811522E+02  0.00000000000E+00 0.  1.
         11    1    1    2    0    0 -0.44497390404E+02 -0.17825934450E+02  0.15924457825E+03  0.16630278829E+03  0.00000000000E+00 0. -1.
</event>
<event>
 7    1  0.2693725E-009  0.1248175E+03  0.7561462E-02  0.1235355E+00
         -1   -1    0    0    0  501 -0.00000000000E+00  0.00000000000E+00  0.41792508359E+02  0.41792508359E+02  0.00000000000E+00 0.  1.
          1   -1    0    0  501    0  0.00000000000E+00 -0.00000000000E+00 -0.65827353916E+03  0.65827353916E+03  0.00000000000E+00 0. -1.
         25    2    1    2    0    0 -0.86684102912E+01 -0.10114380106E+03 -0.48513081319E+03  0.51117959415E+03  0.12508981467E+03 0.  0.
          5    1    3    3  502    0 -0.21235247734E+02 -0.11354003618E+03 -0.25085789325E+03  0.27620541372E+03  0.41800000000E+01 0. -1.
         -5    1    3    3    0  502  0.12566837443E+02  0.12396235125E+02 -0.23427291994E+03  0.23497418043E+03  0.41800000000E+01 0. -1.
        -11    1    1    2    0    0  0.32393667763E+02  0.65806020707E+02 -0.12626178470E+03  0.14601993134E+03  0.00000000000E+00 0. -1.
         11    1    1    2    0    0 -0.23725257472E+02  0.35337780349E+02 -0.50884329106E+01  0.42866522037E+02  0.00000000000E+00 0.  1.
</event>
<event>
 7    1  0.2693725E-009  0.1085735E+03  0.7561462E-02  0.1263235E+00
         -1   -1    0    0    0  501 -0.00000000000E+00  0.00000000000E+00  0.55216778902E+03  0.55216778902E+03  0.00000000000E+00 0.  1.
          1   -1    0    0  501    0  0.00000000000E+00 -0.00000000000E+00 -0.21484854564E+02  0.21484854564E+02  0.00000000000E+00 0. -1.
         25    2    1    2    0    0  0.11680069779E+02  0.14833447080E+01  0.29257956860E+03  0.31841403200E+03  0.12508424150E+03 0.  0.
          5    1    3    3  502    0 -0.10912665349E+02 -0.59246801959E+02  0.15232150955E+03  0.16385537672E+03  0.41800000000E+01 0. -1.
         -5    1    3    3    0  502  0.22592735128E+02  0.60730146667E+02  0.14025805904E+03  0.15455865528E+03  0.41800000000E+01 0. -1.
        -11    1    1    2    0    0  0.47350400057E+01 -0.45035968580E+02  0.11102847398E+03  0.11990821951E+03  0.00000000000E+00 0.  1.
         11    1    1    2    0    0 -0.16415109785E+02  0.43552623872E+02  0.12707489188E+03  0.13533039208E+03  0.00000000000E+00 0. -1.
</event>
<event>
 7    1  0.2693725E-009  0.8168088E+02  0.7561462E-02  0.1324348E+00
          3   -1    0    0  501    0  0.00000000000E+00  0.00000000000E+00  0.22779363427E+03  0.22779363427E+03  0.00000000000E+00 0. -1.
         -3   -1    0    0    0  501 -0.00000000000E+00 -0.00000000000E+00 -0.67555777805E+02  0.67555777805E+02  0.00000000000E+00 0.  1.
         25    2    1    2    0    0 -0.19066765167E+02  0.25702760935E+02  0.15049050486E+03  0.19828993039E+03  0.12508929207E+03 0.  0.
          5    1    3    3  502    0  0.12595954662E+02  0.37065401161E+02 -0.45088369681E+01  0.39627062065E+02  0.41800000000E+01 0.  1.
         -5    1    3    3    0  502 -0.31662719828E+02 -0.11362640227E+02  0.15499934182E+03  0.15866286833E+03  0.41800000000E+01 0.  1.
        -11    1    1    2    0    0  0.45505812869E+02  0.90801162817E+01 -0.12463162897E+02  0.48047455145E+02  0.00000000000E+00 0.  1.
         11    1    1    2    0    0 -0.26439047702E+02 -0.34782877216E+02  0.22210514508E+02  0.49012026540E+02  0.00000000000E+00 0. -1.
</event>
<event>
 7    1  0.2693725E-009  0.9849459E+02  0.7561462E-02  0.1283494E+00
         -1   -1    0    0    0  501 -0.00000000000E+00  0.00000000000E+00  0.67489088583E+02  0.67489088583E+02  0.00000000000E+00 0.  1.
          1   -1    0    0  501    0  0.00000000000E+00 -0.00000000000E+00 -0.22855245235E+03  0.22855245235E+03  0.00000000000E+00 0. -1.
         25    2    1    2    0    0 -0.31832697762E+02 -0.48967927517E+02 -0.69187606537E+02  0.15442086982E+03  0.12509077330E+03 0.  0.
          5    1    3    3  502    0 -0.72427016621E+02 -0.55018688156E+02 -0.67115773067E+02  0.11311378421E+03  0.41800000000E+01 0.  1.
         -5    1    3    3    0  502  0.40594318860E+02  0.60507606388E+01 -0.20718334697E+01  0.41307085614E+02  0.41800000000E+01 0.  1.
        -11    1    1    2    0    0  0.14511017143E+01  0.27367494809E+02  0.12988269668E+02  0.30327885144E+02  0.00000000000E+00 0.  1.
         11    1    1    2    0    0  0.30381596047E+02  0.21600432708E+02 -0.10486402690E+03  0.11129278597E+03  0.00000000000E+00 0. -1.
</event>
<event>
 7    1  0.2693725E-009  0.9784380E+02  0.7561462E-02  0.1284897E+00
         -2   -1    0    0    0  501 -0.00000000000E+00  0.00000000000E+00  0.34470760051E+02  0.34470760051E+02  0.00000000000E+00 0.  1.
          2   -1    0    0  501    0  0.00000000000E+00 -0.00000000000E+00 -0.54729079102E+03  0.54729079102E+03  0.00000000000E+00 0. -1.
         25    2    1    2    0    0  0.31944363060E+02 -0.76022469503E+02 -0.30710919017E+03  0.34170741304E+03  0.12509213900E+03 0.  0.
          5    1    3    3  502    0 -0.13961170403E+02 -0.29127794438E+02 -0.55220830451E+01  0.33034958590E+02  0.41800000000E+01 0. -1.
         -5    1    3    3    0  502  0.45905533463E+02 -0.46894675065E+02 -0.30158710712E+03  0.30867245445E+03  0.41800000000E+01 0. -1.
        -11    1    1    2    0    0  0.97248228511E+00  0.61290013523E+02 -0.19187386850E+03  0.20142738864E+03  0.00000000000E+00 0. -1.
         11    1    1    2    0    0 -0.32916845345E+02  0.14732455980E+02 -0.13836972303E+02  0.38626749399E+02  0.00000000000E+00 0.  1.
</event>
<event>
 7    1  0.2693725E-009  0.9742160E+02  0.7561462E-02  0.1285813E+00
          1   -1    0    0  501    0  0.00000000000E+00  0.00000000000E+00  0.12827760995E+03  0.12827760995E+03  0.00000000000E+00 0. -1.
         -1   -1    0    0    0  501 -0.00000000000E+00 -0.00000000000E+00 -0.16495224054E+03  0.16495224054E+03  0.00000000000E+00 0.  1.
         25    2    1    2    0    0  0.57148555126E+01 -0.91194692361E+02 -0.49679904235E+02  0.16268199413E+03  0.12509279292E+03 0.  0.
          5    1    3    3  502    0 -0.16097371952E+02 -0.38388370981E+02 -0.85452183613E+02  0.95143788523E+02  0.41800000000E+01 0. -1.
         -5    1    3    3    0  502  0.21812227464E+02 -0.52806321380E+02  0.35772279377E+02  0.67538205606E+02  0.41800000000E+01 0. -1.
        -11    1    1    2    0    0 -0.15569735596E+02  0.30638901974E+02  0.48670860200E+02  0.59581973896E+02  0.00000000000E+00 0. -1.
         11    1    1    2    0    0  0.98548800836E+01  0.60555790387E+02 -0.35665586553E+02  0.70965882472E+02  0.00000000000E+00 0.  1.
</event>
<event>
 7    1  0.2693725E-009  0.1168676E+03  0.7561462E-02  0.1248356E+00
          1   -1    0    0  501    0  0.00000000000E+00  0.00000000000E+00  0.18185472061E+03  0.18185472061E+03  0.00000000000E+00 0. -1.
         -1   -1    0    0    0  501 -0.00000000000E+00 -0.00000000000E+00 -0.14548678444E+03  0.14548678444E+03  0.00000000000E+00 0.  1.
         25    2    1    2    0    0  0.76870885417E+02  0.61143801603E+01 -0.74475077072E+02  0.16473908465E+03  0.12508361298E+03 0.  0.
          5    1    3    3  502    0  0.94304227181E+02 -0.12459031420E+02 -0.92897066711E+02  0.13302575740E+03  0.41800000000E+01 0.  1.
         -5    1    3    3    0  502 -0.17433341763E+02  0.18573411581E+02  0.18421989639E+02  0.31713327247E+02  0.41800000000E+01 0.  1.
        -11    1    1    2    0    0 -0.32930268052E+02  0.38107822078E+02  0.76033853079E+02  0.91201729543E+02  0.00000000000E+00 0.  1.
         11    1    1    2    0    0 -0.43940617365E+02 -0.44222202239E+02  0.34809160160E+02  0.71400690867E+02  0.00000000000E+00 0. -1.
</event>
<event>
 7    1  0.2693725E-009  0.1064410E+03  0.7561462E-02  0.1267306E+00
         -3   -1    0    0    0  501 -0.00000000000E+00  0.00000000000E+00  0.15556801927E+03  0.15556801927E+03  0.00000000000E+00 0.  1.
          3   -1    0    0  501    0  0.00000000000E+00 -0.00000000000E+00 -0.13204811870E+03  0.13204811870E+03  0.00000000000E+00 0. -1.
         25    2    1    2    0    0  0.63625378270E+02  0.21687443383E+02 -0.52398761927E+02  0.15136905852E+03  0.12509367556E+03 0.  0.
          5    1    3    3  502    0  0.86422712453E+02  0.95292558040E+01  0.61222607263E+01  0.87261941419E+02  0.41800000000E+01 0.  1.
         -5    1    3    3    0  502 -0.22797334182E+02  0.12158187579E+02 -0.58521022653E+02  0.64107117104E+02  0.41800000000E+01 0.  1.
        -11    1    1    2    0    0 -0.53884329149E+02  0.19526268093E+02  0.74340351597E+02  0.93868439579E+02  0.00000000000E+00 0.  1.
         11    1    1    2    0    0 -0.97410491218E+01 -0.41213711476E+02  0.15783108998E+01  0.42378639866E+02  0.00000000000E+00 0. -1.
</event>
<event>
 7    1  0.2693725E-009  0.1345282E+03  0.7561462E-02  0.1220887E+00
          2   -1    0    0  501    0  0.00000000000E+00  0.00000000000E+00  0.76579942019E+03  0.76579942019E+03  0.00000000000E+00 0. -1.
         -2   -1    0    0    0  501 -0.00000000000E+00 -0.00000000000E+00 -0.34905676536E+02  0.34905676536E+02  0.00000000000E+00 0.  1.
         25    2    1    2    0    0 -0.73328931641E+00  0.88759747029E+02  0.19209741546E+03  0.24582267143E+03  0.12509411798E+03 0.  0.
          5    1    3    3  502    0 -0.37714907877E+02 -0.46735517846E+01  0.12933821113E+02  0.40361026883E+02  0.41800000000E+01 0. -1.
         -5    1    3    3    0  502  0.36981618561E+02  0.93433298814E+02  0.17916359435E+03  0.20546164455E+03  0.41800000000E+01 0. -1.
        -11    1    1    2    0    0  0.32426400896E+02  0.35803779035E+01  0.18542667129E+03  0.18827464250E+03  0.00000000000E+00 0. -1.
         11    1    1    2    0    0 -0.31693111579E+02 -0.92340124933E+02  0.35336965690E+03  0.36660778280E+03  0.00000000000E+00 0.  1.
</event>
<event>
 7    1  0.2693725E-009  0.9612150E+02  0.7561462E-02  0.1288670E+00
          2   -1    0    0  501    0  0.00000000000E+00  0.00000000000E+00  0.89688385710E+03  0.89688385710E+03  0.00000000000E+00 0. -1.
         -2   -1    0    0    0  501 -0.00000000000E+00 -0.00000000000E+00 -0.14962141519E+02  0.14962141519E+02  0.00000000000E+00 0.  1.
         25    2    1    2    0    0  0.33887050308E+02 -0.18005306478E+02  0.56181567191E+03  0.57685063553E+03  0.12508910135E+03 0.  0.
          5    1    3    3  502    0 -0.36281604194E+01 -0.59340661996E+02  0.42292892022E+03  0.42710750599E+03  0.41800000000E+01 0.  1.
         -5    1    3    3    0  502  0.37515210728E+02  0.41335355518E+02  0.13888675169E+03  0.14974312955E+03  0.41800000000E+01 0.  1.
        -11    1    1    2    0    0 -0.50612626089E+02 -0.19244856705E+01  0.29329173244E+03  0.29763296505E+03  0.00000000000E+00 0. -1.
         11    1    1    2    0    0  0.16725575780E+02  0.19929792149E+02  0.26814311236E+02  0.37362398041E+02  0.00000000000E+00 0.  1.
</event>
<event>
 7    1  0.2693725E-009  0.8032749E+02  0.7561462E-02  0.1328125E+00
          2   -1    0    0  501    0  0.00000000000E+00  0.00000000000E+00  0.33246407564E+03  0.33246407564E+03  0.00000000000E+00 0. -1.
         -2   -1    0    0    0  501 -0.00000000000E+00 -0.00000000000E+00 -0.42912540566E+02  0.42912540566E+02  0.00000000000E+00 0.  1.
         25    2    1    2    0    0 -0.28863405488E+02  0.34464526150E+02  0.19998159700E+03  0.24012707490E+03  0.12508986057E+03 0.  0.
          5    1    3    3  502    0 -0.38278762082E+02  0.53233358063E+01  0.20514053401E+03  0.20879107411E+03  0.41800000000E+01 0. -1.
         -5    1    3    3    0  502  0.94153565939E+01  0.29141190344E+02 -0.51589370088E+01  0.31336000790E+02  0.41800000000E+01 0. -1.
        -11    1    1    2    0    0  0.42373281568E+02 -0.53051051354E+02  0.89414396743E+02  0.11227129368E+03  0.00000000000E+00 0. -1.
         11    1    1    2    0    0 -0.13509876080E+02  0.18586525203E+02  0.15554132530E+00  0.22978247625E+02  0.00000000000E+00 0.  1.
</event>
<event>
 7    1  0.2896476E-009  0.1040502E+03  0.7561462E-02  0.1272002E+00
          1   -1    0    0  501    0  0.00000000000E+00  0.00000000000E+00  0.32718731317E+02  0.32718731317E+02  0.00000000000E+00 0. -1.
         -1   -1    0    0    0  501 -0.00000000000E+00 -0.00000000000E+00 -0.39012568114E+03  0.39012568114E+03  0.00000000000E+00 0.  1.
         25    2    1    2    0    0  0.14392898174E+02  0.14970424210E+02 -0.24733724966E+03  0.27794817464E+03  0.12509277994E+03 0.  0.
          5    1    3    3  502    0  0.63809097933E+02  0.35181163107E+02 -0.13366990859E+03  0.15229718343E+03  0.41800000000E+01 0.  1.
         -5    1    3    3    0  502 -0.49416199759E+02 -0.20210738897E+02 -0.11366734107E+03  0.12565099121E+03  0.41800000000E+01 0.  1.
        -11    1    1    2    0    0 -0.28855603394E+02  0.25548138890E+02 -0.89010934378E+02  0.96996390071E+02  0.00000000000E+00 0. -1.
         11    1    1    2    0    0  0.14462705220E+02 -0.40518563100E+02 -0.21058765776E+02  0.47899847745E+02  0.00000000000E+00 0.  1.
</event>
<event>
 7    1  0.2693725E-009  0.1103267E+03  0.7561462E-02  0.1259966E+00
         -2   -1    0    0    0  501 -0.00000000000E+00  0.00000000000E+00  0.11639415135E+03  0.11639415135E+03  0.00000000000E+00 0.  1.
          2   -1    0    0  501    0  0.00000000000E+00 -0.00000000000E+00 -0.19897458978E+03  0.19897458978E+03  0.00000000000E+00 0. -1.
         25    2    1    2    0    0  0.60398750526E+02  0.42465546148E+02  0.34872941622E+02  0.14938736185E+03  0.12509648336E+03 0.  0.
          5    1    3    3  502    0 -0.81316492724E+01 -0.12471941057E+02 -0.34223785292E+02  0.37555464494E+02  0.41800000000E+01 0.  1.
         -5    1    3    3    0  502  0.68530399798E+02  0.54937487205E+02  0.69096726915E+02  0.11183189736E+03  0.41800000000E+01 0.  1.
        -11    1    1    2    0    0 -0.27591916094E+02  0.28134858514E+02 -0.41015364636E+02  0.56878328330E+02  0.00000000000E+00 0.  1.
         11    1    1    2    0    0 -0.32806834432E+02 -0.70600404662E+02 -0.76438015423E+02  0.10910305095E+03  0.00000000000E+00 0. -1.
</event>
<event>
 7    1  0.2693725E-009  0.1245212E+03  0.7561462E-02  0.1235819E+00
         -1   -1    0    0    0  501 -0.00000000000E+00  0.00000000000E+00  0.12348993246E+03  0.12348993246E+03  0.00000000000E+00 0.  1.
          1   -1    0    0  501    0  0.00000000000E+00 -0.00000000000E+00 -0.24542439596E+03  0.24542439596E+03  0.00000000000E+00 0. -1.
         25    2    1    2    0    0  0.73982975826E+02 -0.39621882929E+02  0.43264682176E+02  0.15671861781E+03  0.12508204558E+03 0.  0.
          5    1    3    3  502    0  0.20972840174E+02 -0.69097337473E+02  0.59646974292E+02  0.93752525369E+02  0.41800000000E+01 0. -1.
         -5    1    3    3    0  502  0.53010135652E+02  0.29475454544E+02 -0.16382292116E+02  0.62966092442E+02  0.41800000000E+01 0. -1.
        -11    1    1    2    0    0 -0.86748163250E+02  0.49405583072E+02 -0.87188178783E+02  0.13254408318E+03  0.00000000000E+00 0.  1.
         11    1    1    2    0    0  0.12765187423E+02 -0.97837001431E+01 -0.78010966893E+02  0.79651627441E+02  0.00000000000E+00 0. -1.
</event>
<event>
 7    1  0.2693725E-009  0.1278823E+03  0.7561462E-02  0.1230632E+00
          1   -1    0    0  501    0  0.00000000000E+00  0.00000000000E+00  0.51678083514E+02  0.51678083514E+02  0.00000000000E+00 0. -1.
         -1   -1    0    0    0  501 -0.00000000000E+00 -0.00000000000E+00 -0.34491732214E+03  0.34491732214E+03  0.00000000000E+00 0.  1.
         25    2    1    2    0    0  0.76098626684E+02  0.75699279241E+01 -0.14461627226E+03  0.20593274004E+03  0.12508446117E+03 0.  0.
          5    1    3    3  502    0 -0.23853453328E+02 -0.22701042239E+02 -0.70127027165E+02  0.77586061206E+02  0.41800000000E+01 0.  1.
         -5    1    3    3    0  502  0.99952080012E+02  0.30270970163E+02 -0.74489245097E+02  0.12834667884E+03  0.41800000000E+01 0.  1.
        -11    1    1    2    0    0  0.20737480430E+02  0.15039401627E+01 -0.16190311471E+02  0.26352060947E+02  0.00000000000E+00 0. -1.
         11    1    1    2    0    0 -0.96836107114E+02 -0.90738680868E+01 -0.13243265489E+03  0.16431060466E+03  0.00000000000E+00 0.  1.
</event>
<event>
 7    1  0.2693725E-009  0.1617502E+03  0.7561462E-02  0.1186735E+00
         -1   -1    0    0    0  501 -0.00000000000E+00  0.00000000000E+00  0.10531363406E+03  0.10531363406E+03  0.00000000000E+00 0.  1.
          1   -1    0    0  501    0  0.00000000000E+00 -0.00000000000E+00 -0.28354597416E+03  0.28354597416E+03  0.00000000000E+00 0. -1.
         25    2    1    2    0    0  0.90964239550E+02  0.88826184087E+02 -0.14183200286E+03  0.22787799609E+03  0.12508988852E+03 0.  0.
          5    1    3    3  502    0 -0.29074539455E+02  0.27517493611E+02 -0.52360282756E+02  0.66042508353E+02  0.41800000000E+01 0. -1.
         -5    1    3    3    0  502  0.12003877901E+03  0.61308690476E+02 -0.89471720108E+02  0.16183548774E+03  0.41800000000E+01 0. -1.
        -11    1    1    2    0    0 -0.51456081821E+01 -0.56435269847E+02  0.11005183694E+02  0.57728078388E+02  0.00000000000E+00 0. -1.
         11    1    1    2    0    0 -0.85818631368E+02 -0.32390914240E+02 -0.47405520930E+02  0.10325353374E+03  0.00000000000E+00 0.  1.
</event>
<event>
 7    1  0.2693725E-009  0.1086027E+03  0.7561462E-02  0.1263180E+00
          1   -1    0    0  501    0  0.00000000000E+00  0.00000000000E+00  0.28313907871E+03  0.28313907871E+03  0.00000000000E+00 0. -1.
         -1   -1    0    0    0  501 -0.00000000000E+00 -0.00000000000E+00 -0.58842383973E+02  0.58842383973E+02  0.00000000000E+00 0.  1.
         25    2    1    2    0    0  0.32636024689E+02 -0.16027866561E+02  0.45210658887E+02  0.13788818523E+03  0.12508854997E+03 0.  0.
          5    1    3    3  502    0 -0.21564029415E+02  0.43806078696E+02  0.11732125902E+02  0.50389434146E+02  0.41800000000E+01 0.  1.
         -5    1    3    3    0  502  0.54200054105E+02 -0.59833945256E+02  0.33478532985E+02  0.87498751081E+02  0.41800000000E+01 0.  1.
        -11    1    1    2    0    0  0.24346666490E+01 -0.29662192061E+02  0.22679572711E+02  0.37418394646E+02  0.00000000000E+00 0.  1.
         11    1    1    2    0    0 -0.35070691338E+02  0.45690058622E+02  0.15640646314E+03  0.16667488281E+03  0.00000000000E+00 0. -1.
</event>
<event>
 7    1  0.2693725E-009  0.9601945E+02  0.7561462E-02  0.1288896E+00
         -3   -1    0    0    0  501 -0.00000000000E+00  0.00000000000E+00  0.36315495880E+03  0.36315495880E+03  0.00000000000E+00 0.  1.
          3   -1    0    0  501    0  0.00000000000E+00 -0.00000000000E+00 -0.33502178900E+02  0.33502178900E+02  0.00000000000E+00 0. -1.
         25    2    1    2    0    0 -0.21762522191E+02  0.13491976679E+02  0.14998162923E+03  0.19696882262E+03  0.12508631887E+03 0.  0.
          5    1    3    3  502    0 -0.57551379959E+02 -0.14907731857E+02  0.26469852407E+02  0.65211404607E+02  0.41800000000E+01 0. -1.
         -5    1    3    3    0  502  0.35788857768E+02  0.28399708536E+02  0.12351177683E+03  0.13175741801E+03  0.41800000000E+01 0. -1.
        -11    1    1    2    0    0  0.36333282608E+02  0.25862090423E+02  0.10401981067E+03  0.11317718921E+03  0.00000000000E+00 0.  1.
         11    1    1    2    0    0 -0.14570760418E+02 -0.39354067102E+02  0.75651339989E+02  0.86511125867E+02  0.00000000000E+00 0. -1.
</event>
<event>
 7    1  0.2693725E-009  0.4271281E+03  0.7561462E-02  0.1034771E+00
         -2   -1    0    0    0  501 -0.00000000000E+00  0.00000000000E+00  0.96758289197E+02  0.96758289197E+02  0.00000000000E+00 0.  1.
          2   -1    0    0  501    0  0.00000000000E+00 -0.00000000000E+00 -0.19574327909E+04  0.19574327909E+04  0.00000000000E+00 0. -1.
         25    2    1    2    0    0 -0.14778683116E+03 -0.39382777965E+03 -0.10008295404E+04  0.10928176230E+04  0.12509724547E+03 0.  0.
          5    1    3    3  502    0 -0.11381571390E+03 -0.37791624205E+03 -0.95560392993E+03  0.10339105600E+04  0.41800000000E+01 0. -1.
         -5    1    3    3    0  502 -0.33971117261E+02 -0.15911537595E+02 -0.45225610434E+02  0.58907063038E+02  0.41800000000E+01 0. -1.
        -11    1    1    2    0    0  0.73017966018E+02  0.23836363941E+03 -0.41330452482E+03  0.48266911874E+03  0.00000000000E+00 0.  1.
         11    1    1    2    0    0  0.74768865144E+02  0.15546414024E+03 -0.44654043653E+03  0.47870433834E+03  0.00000000000E+00 0. -1.
</event>
<event>
 7    1  0.2693725E-009  0.5836416E+02  0.7561462E-02  0.1404828E+00
          1   -1    0    0  501    0  0.00000000000E+00  0.00000000000E+00  0.77986734656E+03  0.77986734656E+03  0.00000000000E+00 0. -1.
         -1   -1    0    0    0  501 -0.00000000000E+00 -0.00000000000E+00 -0.19477613921E+02  0.19477613921E+02  0.00000000000E+00 0.  1.
         25    2    1    2    0    0 -0.42191172980E+01 -0.38534631374E+02  0.56488602821E+03  0.57986756153E+03  0.12508974893E+03 0.  0.
          5    1    3    3  502    0  0.62546383977E+00 -0.24253551019E+02  0.56363087620E+03  0.56416829311E+03  0.41800000000E+01 0. -1.
         -5    1    3    3    0  502 -0.48445811378E+01 -0.14281080354E+02  0.12551520074E+01  0.15699268424E+02  0.41800000000E+01 0. -1.
        -11    1    1    2    0    0  0.18152359168E+02 -0.13481041642E+02  0.73590321802E+01  0.23778182894E+02  0.00000000000E+00 0. -1.
         11    1    1    2    0    0 -0.13933241870E+02  0.52015673015E+02  0.18814467224E+03  0.19569921605E+03  0.00000000000E+00 0.  1.
</event>
<event>
 7    1  0.2693725E-009  0.9391535E+02  0.7561462E-02  0.1293638E+00
         -1   -1    0    0    0  501 -0.00000000000E+00  0.00000000000E+00  0.14451159040E+02  0.14451159040E+02  0.00000000000E+00 0.  1.
          1   -1    0    0  501    0  0.00000000000E+00 -0.00000000000E+00 -0.99244971357E+03  0.99244971357E+03  0.00000000000E+00 0. -1.
         25    2    1    2    0    0 -0.36666481287E+02  0.35274183143E+02 -0.55908279654E+03  0.57516155214E+03  0.12509411984E+03 0.  0.
          5    1    3    3  502    0 -0.44886800481E+02 -0.57830880730E+01 -0.65136778379E+02  0.79426326005E+02  0.41800000000E+01 0. -1.
         -5    1    3    3    0  502  0.82203191940E+01  0.41057271216E+02 -0.49394601817E+03  0.49573522613E+03  0.41800000000E+01 0. -1.
        -11    1    1    2    0    0 -0.25314630429E+02 -0.28233297517E+02 -0.10382585042E+03  0.11053396228E+03  0.00000000000E+00 0.  1.
         11    1    1    2    0    0  0.61981111716E+02 -0.70408856263E+01 -0.31508990757E+03  0.32120535819E+03  0.00000000000E+00 0. -1.
</event>
<event>
 7    1  0.2693725E-009  0.2233510E+03  0.7561462E-02  0.1131409E+00
         -1   -1    0    0    0  501 -0.00000000000E+00  0.00000000000E+00  0.69810749373E+02  0.69810749373E+02  0.00000000000E+00 0.  1.
          1   -1    0    0  501    0  0.00000000000E+00 -0.00000000000E+00 -0.11115713708E+04  0.11115713708E+04  0.00000000000E+00 0. -1.
         25    2    1    2    0    0 -0.18639213797E+03 -0.79079625350E+02 -0.19983733055E+03  0.31077020854E+03  0.12509015785E+03 0.  0.
          5    1    3    3  502    0  0.14022966191E+02  0.11369802867E+01 -0.38602332175E+02  0.41298289969E+02  0.41800000000E+01 0. -1.
         -5    1    3    3    0  502 -0.20041510416E+03 -0.80216605637E+02 -0.16123499837E+03  0.26947191857E+03  0.41800000000E+01 0. -1.
        -11    1    1    2    0    0  0.86331101222E+02 -0.34609590356E+01 -0.43562308249E+03  0.44410866606E+03  0.00000000000E+00 0. -1.
         11    1    1    2    0    0  0.10006103675E+03  0.82540584386E+02 -0.40630020840E+03  0.42650324558E+03  0.00000000000E+00 0.  1.
</event>
<event>
 7    1  0.2693725E-009  0.9464946E+02  0.7561462E-02  0.1291968E+00
          1   -1    0    0  501    0  0.00000000000E+00  0.00000000000E+00  0.57670766343E+02  0.57670766343E+02  0.00000000000E+00 0. -1.
         -1   -1    0    0    0  501 -0.00000000000E+00 -0.00000000000E+00 -0.26475222860E+03  0.26475222860E+03  0.00000000000E+00 0.  1.
         25    2    1    2    0    0 -0.53652527906E+02 -0.21495270505E+02 -0.93984698116E+02  0.16679731592E+03  0.12509029025E+03 0.  0.
          5    1    3    3  502    0  0.27556067115E+01  0.24752483404E+02 -0.90164675630E+02  0.93634501838E+02  0.41800000000E+01 0. -1.
         -5    1    3    3    0  502 -0.56408134617E+02 -0.46247753910E+02 -0.38200224860E+01  0.73162814082E+02  0.41800000000E+01 0. -1.
        -11    1    1    2    0    0  0.66193908971E+02  0.32999532682E+02 -0.11676173601E+03  0.13821687935E+03  0.00000000000E+00 0.  1.
         11    1    1    2    0    0 -0.12541381066E+02 -0.11504262177E+02  0.36649718658E+01  0.17408799672E+02  0.00000000000E+00 0. -1.
</event>
<event>
 7    1  0.2693725E-009  0.1002420E+03  0.7561462E-02  0.1279788E+00
         -3   -1    0    0    0  501 -0.00000000000E+00  0.00000000000E+00  0.47253982054E+02  0.47253982054E+02  0.00000000000E+00 0.  1.
          3   -1    0    0  501    0  0.00000000000E+00 -0.00000000000E+00 -0.34944232306E+03  0.34944232306E+03  0.00000000000E+00 0. -1.
         25    2    1    2    0    0 -0.26132870767E+02  0.36615053918E+02 -0.25132130548E+03  0.28431024177E+03  0.12508527444E+03 0.  0.
          5    1    3    3  502    0 -0.49221462606E+02 -0.14911411683E+02 -0.20429251377E+03  0.21070834384E+03  0.41800000000E+01 0.  1.
         -5    1    3    3    0  502  0.23088591839E+02  0.51526465601E+02 -0.47028791706E+02  0.73601897936E+02  0.41800000000E+01 0.  1.
        -11    1    1    2    0    0  0.21011633070E+02  0.23735216050E+02 -0.39691822725E+02  0.50796554966E+02  0.00000000000E+00 0. -1.
         11    1    1    2    0    0  0.51212376976E+01 -0.60350269967E+02 -0.11175212804E+02  0.61589508375E+02  0.00000000000E+00 0.  1.
</event>
<event>
 7    1  0.2693725E-009  0.2108061E+03  0.7561462E-02  0.1140929E+00
          2   -1    0    0  501    0  0.00000000000E+00  0.00000000000E+00  0.24272465411E+03  0.24272465411E+03  0.00000000000E+00 0. -1.
         -2   -1    0    0    0  501 -0.00000000000E+00 -0.00000000000E+00 -0.24234749621E+03  0.24234749621E+03  0.00000000000E+00 0.  1.
         25    2    1    2    0    0 -0.20396447089E+03 -0.39510947267E+02  0.60924873782E+02  0.25004382680E+03  0.12508978670E+03 0.  0.
          5    1    3    3  502    0 -0.99253932887E+02  0.35369010869E+01  0.88890219689E+02  0.13335215191E+03  0.41800000000E+01 0. -1.
         -5    1    3    3    0  502 -0.10471053800E+03 -0.43047848354E+02 -0.27965345907E+02  0.11669167489E+03  0.41800000000E+01 0. -1.
        -11    1    1    2    0    0  0.18862814994E+03  0.42338718884E+02 -0.80749044938E+02  0.20950788607E+03  0.00000000000E+00 0.  1.
         11    1    1    2    0    0  0.15336320944E+02 -0.28277716160E+01  0.20201329050E+02  0.25520437453E+02  0.00000000000E+00 0. -1.
</event>
<event>
 7    1  0.2693725E-009  0.8715333E+02  0.7561462E-02  0.1309895E+00
         -1   -1    0    0    0  501 -0.00000000000E+00  0.00000000000E+00  0.27440906034E+02  0.27440906034E+02  0.00000000000E+00 0.  1.
          1   -1    0    0  501    0  0.00000000000E+00 -0.00000000000E+00 -0.45527181524E+03  0.45527181524E+03  0.00000000000E+00 0. -1.
         25    2    1    2    0    0  0.44589309871E+01 -0.15588083879E+02 -0.28441693972E+03  0.31113243955E+03  0.12509008321E+03 0.  0.
          5    1    3    3  502    0  0.33238520899E+02 -0.42605871356E+02 -0.51190225795E+02  0.74551801873E+02  0.41800000000E+01 0. -1.
         -5    1    3    3    0  502 -0.28779589912E+02  0.27017787477E+02 -0.23322671393E+03  0.23658063768E+03  0.41800000000E+01 0. -1.
        -11    1    1    2    0    0 -0.30436928152E+02  0.36167865809E+02 -0.12505982333E+03  0.13369547683E+03  0.00000000000E+00 0. -1.
         11    1    1    2    0    0  0.25977997165E+02 -0.20579781929E+02 -0.18354146157E+02  0.37884804897E+02  0.00000000000E+00 0.  1.
</event>
<event>
 7    1  0.2693725E-009  0.1284065E+03  0.7561462E-02  0.1229840E+00
          1   -1    0    0  501    0  0.00000000000E+00  0.00000000000E+00  0.16287183178E+03  0.16287183178E+03  0.00000000000E+00 0. -1.
         -1   -1    0    0    0  501 -0.00000000000E+00 -0.00000000000E+00 -0.28377350204E+03  0.28377350204E+03  0.00000000000E+00 0.  1.
         25    2    1    2    0    0  0.23867941138E+02 -0.94175179664E+02 -0.22685901234E+03  0.27667939727E+03  0.12509130392E+03 0.  0.
          5    1    3    3  502    0  0.67605321999E+02 -0.27767782051E+02 -0.72704260989E+02  0.10317417918E+03  0.41800000000E+01 0. -1.
         -5    1    3    3    0  502 -0.43737380861E+02 -0.66407397613E+02 -0.15415475135E+03  0.17350521809E+03  0.41800000000E+01 0. -1.
        -11    1    1    2    0    0  0.10078031209E+02  0.23853033853E+02 -0.11971289077E+02  0.28527980987E+02  0.00000000000E+00 0. -1.
         11    1    1    2    0    0 -0.33945972347E+02  0.70322145811E+02  0.11792863115E+03  0.14143795557E+03  0.00000000000E+00 0.  1.
</event>
<event>
 7    1  0.2693725E-009  0.8850950E+02  0.7561462E-02  0.1306502E+00
         -2   -1    0    0    0  501 -0.00000000000E+00  0.00000000000E+00  0.34705374041E+03  0.34705374041E+03  0.00000000000E+00 0.  1.
          2   -1    0    0  501    0  0.00000000000E+00 -0.00000000000E+00 -0.38036536936E+02  0.38036536936E+02  0.00000000000E+00 0. -1.
         25    2    1    2    0    0 -0.23597453622E+02  0.26340669072E+02  0.13427095261E+03  0.18688812275E+03  0.12509121090E+03 0.  0.
          5    1    3    3  502    0  0.11931171058E+02 -0.26229080836E+02  0.11760129977E+03  0.12115220028E+03  0.41800000000E+01 0. -1.
         -5    1    3    3    0  502 -0.35528624679E+02  0.52569749908E+02  0.16669652840E+02  0.65735922468E+02  0.41800000000E+01 0. -1.
        -11    1    1    2    0    0 -0.22075086328E+02 -0.31378291214E+02  0.12373888728E+03  0.12955006299E+03  0.00000000000E+00 0.  1.
         11    1    1    2    0    0  0.45672539949E+02  0.50376221420E+01  0.51007363580E+02  0.68652091604E+02  0.00000000000E+00 0. -1.
</event>
<event>
 7    1  0.2693725E-009  0.1257478E+03  0.7561462E-02  0.1233905E+00
         -2   -1    0    0    0  501 -0.00000000000E+00  0.00000000000E+00  0.18678001525E+03  0.18678001525E+03  0.00000000000E+00 0.  1.
          2   -1    0    0  501    0  0.00000000000E+00 -0.00000000000E+00 -0.10163682631E+03  0.10163682631E+03  0.00000000000E+00 0. -1.
         25    2    1    2    0    0 -0.63346616498E+02  0.22420439272E+02  0.91692880072E+01  0.14229406597E+03  0.12509218780E+03 0.  0.
          5    1    3    3  502    0 -0.93528691682E+02  0.23696743128E+02 -0.21612280601E+02  0.98963199602E+02  0.41800000000E+01 0. -1.
         -5    1    3    3    0  502  0.30182075184E+02 -0.12763038558E+01  0.30781568608E+02  0.43330866365E+02  0.41800000000E+01 0. -1.
        -11    1    1    2    0    0  0.91017446757E+02 -0.38487322820E+01  0.50365521635E+02  0.10409454416E+03  0.00000000000E+00 0.  1.
         11    1    1    2    0    0 -0.27670830259E+02 -0.18571706990E+02  0.25608379300E+02  0.42028231442E+02  0.00000000000E+00 0. -1.
</event>
<event>
 7    1  0.2693725E-009  0.1624232E+03  0.7561462E-02  0.1185988E+00
         -1   -1    0    0    0  501 -0.00000000000E+00  0.00000000000E+00  0.89829348072E+02  0.89829348072E+02  0.00000000000E+00 0.  1.
          1   -1    0    0  501    0  0.00000000000E+00 -0.00000000000E+00 -0.45015049313E+03  0.45015049313E+03  0.00000000000E+00 0. -1.
         25    2    1    2    0    0  0.13484892844E+03  0.66213491157E+02 -0.84738656425E+02  0.21306340412E+03  0.12508762676E+03 0.  0.
          5    1    3    3  502    0  0.11161590226E+02  0.48073329985E+02 -0.71924598795E+02  0.87328382924E+02  0.41800000000E+01 0.  1.
         -5    1    3    3    0  502  0.12368733822E+03  0.18140161172E+02 -0.12814057630E+02  0.12573502120E+03  0.41800000000E+01 0.  1.
        -11    1    1    2    0    0 -0.12585865158E+02 -0.56413365769E+01  0.51975140134E+01  0.14739159816E+02  0.00000000000E+00 0.  1.
         11    1    1    2    0    0 -0.12226306328E+03 -0.60572154581E+02 -0.28078000265E+03  0.31217727727E+03  0.00000000000E+00 0. -1.
</event>
<event>
 7    1  0.2693725E-009  0.1209615E+03  0.7561462E-02  0.1241519E+00
          2   -1    0    0  501    0  0.00000000000E+00  0.00000000000E+00  0.73443495712E+03  0.73443495712E+03  0.00000000000E+00 0. -1.
         -2   -1    0    0    0  501 -0.00000000000E+00 -0.00000000000E+00 -0.28444590555E+02  0.28444590555E+02  0.00000000000E+00 0.  1.
         25    2    1    2    0    0  0.38046015630E+02 -0.45964539537E+02  0.58032461546E+03  0.59664429152E+03  0.12509002000E+03 0.  0.
          5    1    3    3  502    0  0.77192390293E+02 -0.65978633599E+01  0.25335980065E+03  0.26497331546E+03  0.41800000000E+01 0. -1.
         -5    1    3    3    0  502 -0.39146374662E+02 -0.39366676177E+02  0.32696481481E+03  0.33167097607E+03  0.41800000000E+01 0. -1.
        -11    1    1    2    0    0  0.29294199991E+02  0.23875772024E+02  0.39466059149E+02  0.54642222389E+02  0.00000000000E+00 0. -1.
         11    1    1    2    0    0 -0.67340215622E+02  0.22088767512E+02  0.86199691964E+02  0.11159303376E+03  0.00000000000E+00 0.  1.
</event>
<event>
 7    1  0.2693725E-009  0.1853477E+03  0.7561462E-02  0.1162726E+00
         -1   -1    0    0    0  501 -0.00000000000E+00  0.00000000000E+00  0.22671839132E+03  0.22671839132E+03  0.00000000000E+00 0.  1.
          1   -1    0    0  501    0  0.00000000000E+00 -0.00000000000E+00 -0.18930112514E+03  0.18930112514E+03  0.00000000000E+00 0. -1.
         25    2    1    2    0    0 -0.17436711146E+03  0.12031065366E+02  0.32800033822E+01  0.21495861304E+03  0.12509120994E+03 0.  0.
          5    1    3    3  502    0 -0.91792761659E+02 -0.24058292438E+02  0.56203196275E+02  0.11036749612E+03  0.41800000000E+01 0.  1.
         -5    1    3    3    0  502 -0.82574349803E+02  0.36089357805E+02 -0.52923192893E+02  0.10459111692E+03  0.41800000000E+01 0.  1.
        -11    1    1    2    0    0  0.13604042895E+03 -0.35447837846E+02  0.55729574378E+02  0.15122609887E+03  0.00000000000E+00 0.  1.
         11    1    1    2    0    0  0.38326682507E+02  0.23416772479E+02 -0.21592311584E+02  0.49834804554E+02  0.00000000000E+00 0. -1.
</event>
<event>
 7    1  0.2693725E-009  0.1698659E+03  0.7561462E-02  0.1177988E+00
          1   -1    0    0  501    0  0.00000000000E+00  0.00000000000E+00  0.82533511167E+02  0.82533511167E+02  0.00000000000E+00 0. -1.
         -1   -1    0    0    0  501 -0.00000000000E+00 -0.00000000000E+00 -0.65350248788E+03  0.65350248788E+03  0.00000000000E+00 0.  1.
         25    2    1    2    0    0 -0.10584820152E+03 -0.89787628590E+02 -0.53428725484E+03  0.56601802769E+03  0.12509147444E+03 0.  0.
          5    1    3    3  502    0 -0.26233564673E+02 -0.10110864513E+03 -0.33987932156E+03  0.35559328404E+03  0.41800000000E+01 0.  1.
         -5    1    3    3    0  502 -0.79614636847E+02  0.11321016545E+02 -0.19440793328E+03  0.21042474365E+03  0.41800000000E+01 0.  1.
        -11    1    1    2    0    0  0.79998676339E-01  0.36014964624E+02  0.16953724071E+02  0.39805939715E+02  0.00000000000E+00 0. -1.
         11    1    1    2    0    0  0.10576820284E+03  0.53772663965E+02 -0.53635445948E+02  0.13021203164E+03  0.00000000000E+00 0.  1.
</event>
<event>
 7    1  0.2693725E-009  0.1274652E+03  0.7561462E-02  0.1231266E+00
          3   -1    0    0  501    0  0.00000000000E+00  0.00000000000E+00  0.53099967623E+03  0.53099967623E+03  0.00000000000E+00 0. -1.
         -3   -1    0    0    0  501 -0.00000000000E+00 -0.00000000000E+00 -0.70187190631E+02  0.70187190631E+02  0.00000000000E+00 0.  1.
         25    2    1    2    0    0 -0.86325355334E+02  0.61697833515E+02  0.42665967119E+03  0.45710458639E+03  0.12508972077E+03 0.  0.
          5    1    3    3  502    0 -0.10014717566E+03  0.77969879044E+02  0.26353222181E+03  0.29253284117E+03  0.41800000000E+01 0. -1.
         -5    1    3    3    0  502  0.13821820323E+02 -0.16272045528E+02  0.16312744939E+03  0.16457174522E+03  0.41800000000E+01 0. -1.
        -11    1    1    2    0    0  0.49109653958E+02 -0.32597230427E+02  0.64933766766E+02  0.87696816418E+02  0.00000000000E+00 0. -1.
         11    1    1    2    0    0  0.37215701376E+02 -0.29100603088E+02 -0.30780952356E+02  0.56385464057E+02  0.00000000000E+00 0.  1.
</event>
<event>
 7    1  0.2693725E-009  0.1818833E+03  0.7561462E-02  0.1165993E+00
         -2   -1    0    0    0  501 -0.00000000000E+00  0.00000000000E+00  0.25852407449E+02  0.25852407449E+02  0.00000000000E+00 0.  1.
          2   -1    0    0  501    0  0.00000000000E+00 -0.00000000000E+00 -0.16791435087E+04  0.16791435087E+04  0.00000000000E+00 0. -1.
         25    2    1    2    0    0  0.93256555317E+02 -0.14934242023E+03 -0.89256264037E+03  0.91832194604E+03  0.12508871258E+03 0.  0.
          5    1    3    3  502    0  0.84029586452E+02 -0.14956617810E+03 -0.89180061587E+03  0.90816123232E+03  0.41800000000E+01 0.  1.
         -5    1    3    3    0  502  0.92269688644E+01  0.22375786955E+00 -0.76202450066E+00  0.10160713722E+02  0.41800000000E+01 0.  1.
        -11    1    1    2    0    0 -0.64379870143E+02  0.59515854578E+02 -0.20453715332E+03  0.22253618068E+03  0.00000000000E+00 0.  1.
         11    1    1    2    0    0 -0.28876685174E+02  0.89826565650E+02 -0.55619130759E+03  0.56413778944E+03  0.00000000000E+00 0. -1.
</event>
<event>
 7    1  0.3433900E-009  0.2467882E+03  0.7561462E-02  0.1115352E+00
          2   -1    0    0  501    0  0.00000000000E+00  0.00000000000E+00  0.11763754016E+04  0.11763754016E+04  0.00000000000E+00 0. -1.
         -2   -1    0    0    0  501 -0.00000000000E+00 -0.00000000000E+00 -0.61123010935E+02  0.61123010935E+02  0.00000000000E+00 0.  1.
         25    2    1    2    0    0 -0.32262256408E+02 -0.24051827528E+03  0.64635286545E+03  0.70164808397E+03  0.12509241835E+03 0.  0.
          5    1    3    3  502    0  0.86676076120E+01 -0.69299764170E+02  0.35001036277E+03  0.35693460351E+03  0.41800000000E+01 0.  1.
         -5    1    3    3    0  502 -0.40929864020E+02 -0.17121851111E+03  0.29634250268E+03  0.34471348046E+03  0.41800000000E+01 0.  1.
        -11    1    1    2    0    0 -0.94049172191E+01  0.11246782718E+03  0.29539793653E+03  0.31622366376E+03  0.00000000000E+00 0. -1.
         11    1    1    2    0    0  0.41667173627E+02  0.12805044810E+03  0.17350158870E+03  0.21962666481E+03  0.00000000000E+00 0.  1.
</event>
<event>
 7    1  0.2693725E-009  0.1943317E+03  0.7561462E-02  0.1154611E+00
          1   -1    0    0  501    0  0.00000000000E+00  0.00000000000E+00  0.78371072871E+02  0.78371072871E+02  0.00000000000E+00 0. -1.
         -1   -1    0    0    0  501 -0.00000000000E+00 -0.00000000000E+00 -0.58022683685E+03  0.58022683685E+03  0.00000000000E+00 0.  1.
         25    2    1    2    0    0 -0.18209157109E+03  0.55436251592E+00 -0.28444732681E+03  0.36016039980E+03  0.12509030447E+03 0.  0.
          5    1    3    3  502    0 -0.11422991681E+02  0.11561602518E+02  0.10063759231E+02  0.19568010670E+02  0.41800000000E+01 0. -1.
         -5    1    3    3    0  502 -0.17066857941E+03 -0.11007240002E+02 -0.29451108604E+03  0.34059238913E+03  0.41800000000E+01 0. -1.
        -11    1    1    2    0    0  0.84780235084E+02  0.41982260953E+02 -0.13063288665E+03  0.16129212495E+03  0.00000000000E+00 0.  1.
         11    1    1    2    0    0  0.97311336009E+02 -0.42536623469E+02 -0.86775550517E+02  0.13714538497E+03  0.00000000000E+00 0. -1.
</event>
<event>
 7    1  0.2693725E-009  0.1411264E+03  0.7561462E-02  0.1211821E+00
          1   -1    0    0  501    0  0.00000000000E+00  0.00000000000E+00  0.35934453388E+03  0.35934453388E+03  0.00000000000E+00 0. -1.
         -1   -1    0    0    0  501 -0.00000000000E+00 -0.00000000000E+00 -0.83069091155E+02  0.83069091155E+02  0.00000000000E+00 0.  1.
         25    2    1    2    0    0  0.12019148412E+03  0.14014205159E+02  0.73986078118E+02  0.18911076186E+03  0.12508616908E+03 0.  0.
          5    1    3    3  502    0  0.49348358922E+02 -0.17051968588E+02 -0.29287853339E+02  0.60010673336E+02  0.41800000000E+01 0.  1.
         -5    1    3    3    0  502  0.70843125198E+02  0.31066173748E+02  0.10327393146E+03  0.12910008853E+03  0.41800000000E+01 0.  1.
        -11    1    1    2    0    0 -0.47363032358E+02 -0.51941587724E+02  0.96374850308E+02  0.11928661761E+03  0.00000000000E+00 0. -1.
         11    1    1    2    0    0 -0.72828451763E+02  0.37927382565E+02  0.10591451429E+03  0.13401624555E+03  0.00000000000E+00 0.  1.
</event>
<event>
 7    1  0.2693725E-009  0.1180805E+03  0.7561462E-02  0.1246298E+00
          3   -1    0    0  501    0  0.00000000000E+00  0.00000000000E+00  0.32664201233E+03  0.32664201233E+03  0.00000000000E+00 0. -1.
         -3   -1    0    0    0  501 -0.00000000000E+00 -0.00000000000E+00 -0.55386888532E+02  0.55386888532E+02  0.00000000000E+00 0.  1.
         25    2    1    2    0    0 -0.53031524266E+02  0.12079094554E+02  0.23368136755E+03  0.27057892079E+03  0.12509086195E+03 0.  0.
          5    1    3    3  502    0  0.50998333967E+01 -0.49839831893E+02  0.70753966166E+02  0.86796389740E+02  0.41800000000E+01 0. -1.
         -5    1    3    3    0  502 -0.58131357662E+02  0.61918926447E+02  0.16292740139E+03  0.18378253105E+03  0.41800000000E+01 0. -1.
        -11    1    1    2    0    0  0.50295216772E+02 -0.45198998178E+02  0.39229234202E+02  0.78176026264E+02  0.00000000000E+00 0. -1.
         11    1    1    2    0    0  0.27363074939E+01  0.33119903624E+02 -0.16554779575E+01  0.33273953808E+02  0.00000000000E+00 0.  1.
</event>
<event>
 7    1  0.2693725E-009  0.1328592E+03  0.7561462E-02  0.1223274E+00
          3   -1    0    0  501    0  0.00000000000E+00  0.00000000000E+00  0.79067447750E+03  0.79067447750E+03  0.00000000000E+00 0. -1.
         -3   -1    0    0    0  501 -0.00000000000E+00 -0.00000000000E+00 -0.23805373386E+02  0.23805373386E+02  0.00000000000E+00 0.  1.
         25    2    1    2    0    0 -0.34977601874E+02 -0.67437107779E+02  0.51514083657E+03  0.53552650423E+03  0.12508940438E+03 0.  0.
          5    1    3    3  502    0  0.38731946515E+02 -0.60689254982E+02  0.26383399649E+03  0.27351270438E+03  0.41800000000E+01 0.  1.
         -5    1    3    3    0  502 -0.73709548389E+02 -0.67478527978E+01  0.25130684008E+03  0.26201379985E+03  0.41800000000E+01 0.  1.
        -11    1    1    2    0    0 -0.31442955195E+02  0.28717768211E+02  0.75424752055E+02  0.86615604050E+02  0.00000000000E+00 0.  1.
         11    1    1    2    0    0  0.66420557068E+02  0.38719339569E+02  0.17630351548E+03  0.19233774260E+03  0.00000000000E+00 0. -1.
</event>
<event>
 7    1  0.2693725E-009  0.8670514E+02  0.7561462E-02  0.1311033E+00
          2   -1    0    0  501    0  0.00000000000E+00  0.00000000000E+00  0.79110465232E+03  0.79110465232E+03  0.00000000000E+00 0. -1.
         -2   -1    0    0    0  501 -0.00000000000E+00 -0.00000000000E+00 -0.20918622381E+02  0.20918622381E+02  0.00000000000E+00 0.  1.
         25    2    1    2    0    0 -0.46801863640E+02 -0.35882859198E+02  0.53854061264E+03  0.55601329849E+03  0.12508718001E+03 0.  0.
          5    1    3    3  502    0 -0.40022242518E+01 -0.16958708744E+02  0.48271815839E+03  0.48305062720E+03  0.41800000000E+01 0. -1.
         -5    1    3    3    0  502 -0.42799639389E+02 -0.18924150454E+02  0.55822454256E+02  0.72962671287E+02  0.41800000000E+01 0. -1.
        -11    1    1    2    0    0  0.46048066682E+02 -0.21710922829E+02  0.96597222538E+02  0.10919162979E+03  0.00000000000E+00 0.  1.
         11    1    1    2    0    0  0.75379695808E+00  0.57593782028E+02  0.13504819476E+03  0.14681834642E+03  0.00000000000E+00 0. -1.
</event>
<event>
 7    1  0.2693725E-009  0.2525655E+03  0.7561462E-02  0.1111694E+00
          1   -1    0    0  501    0  0.00000000000E+00  0.00000000000E+00  0.78909039056E+03  0.78909039056E+03  0.00000000000E+00 0. -1.
         -1   -1    0    0    0  501 -0.00000000000E+00 -0.00000000000E+00 -0.10000987257E+03  0.10000987257E+03  0.00000000000E+00 0.  1.
         25    2    1    2    0    0 -0.21818234518E+03  0.11508398461E+03  0.47383635329E+03  0.54864982195E+03  0.12509147921E+03 0.  0.
          5    1    3    3  502    0 -0.21689058532E+03  0.10907589778E+03  0.35799440569E+03  0.43256969888E+03  0.41800000000E+01 0. -1.
         -5    1    3    3    0  502 -0.12917598554E+01  0.60080868234E+01  0.11584194759E+03  0.11608012307E+03  0.41800000000E+01 0. -1.
        -11    1    1    2    0    0  0.43697538213E+02 -0.55225058736E+02  0.23156616385E+02  0.74131712787E+02  0.00000000000E+00 0.  1.
         11    1    1    2    0    0  0.17448480697E+03 -0.59858925872E+02  0.19208754832E+03  0.26631872839E+03  0.00000000000E+00 0. -1.
</event>
<event>
 7    1  0.2693725E-009  0.1342339E+03  0.7561462E-02  0.1221305E+00
          1   -1    0    0  501    0  0.00000000000E+00  0.00000000000E+00  0.11713003472E+04  0.11713003472E+04  0.00000000000E+00 0. -1.
         -1   -1    0    0    0  501 -0.00000000000E+00 -0.00000000000E+00 -0.18899295952E+02  0.18899295952E+02  0.00000000000E+00 0.  1.
         25    2    1    2    0    0 -0.73685476330E+02  0.30229933961E+02  0.84761331536E+03  0.86048798507E+03  0.12509133359E+03 0.  0.
          5    1    3    3  502    0 -0.22131920279E+02 -0.46564741055E+02  0.40533449684E+03  0.40862161438E+03  0.41800000000E+01 0.  1.
         -5    1    3    3    0  502 -0.51553556051E+02  0.76794675016E+02  0.44227881852E+03  0.45186637069E+03  0.41800000000E+01 0.  1.
        -11    1    1    2    0    0 -0.87653025544E+01  0.23943661021E+02  0.43536550817E+02  0.50453549815E+02  0.00000000000E+00 0. -1.
         11    1    1    2    0    0  0.82450778884E+02 -0.54173594982E+02  0.26125118505E+03  0.27925810825E+03  0.00000000000E+00 0.  1.
</event>
<event>
 7    1  0.2693725E-009  0.1366578E+03  0.7561462E-02  0.1217898E+00
          1   -1    0    0  501    0  0.00000000000E+00  0.00000000000E+00  0.86348641065E+03  0.86348641065E+03  0.00000000000E+00 0. -1.
         -1   -1    0    0    0  501 -0.00000000000E+00 -0.00000000000E+00 -0.28717596981E+02  0.28717596981E+02  0.00000000000E+00 0.  1.
         25    2    1    2    0    0 -0.10203944065E+03  0.29402481112E+02  0.58081748707E+03  0.60354899503E+03  0.12508350319E+03 0.  0.
          5    1    3    3  502    0 -0.15787746605E+02  0.67245056559E+02  0.22070308811E+03  0.23129737585E+03  0.41800000000E+01 0. -1.
         -5    1    3    3    0  502 -0.86251694043E+02 -0.37842575447E+02  0.36011439896E+03  0.37225161918E+03  0.41800000000E+01 0. -1.
        -11    1    1    2    0    0  0.23827713477E+02  0.50730471555E+01  0.42495597070E+01  0.24729627872E+02  0.00000000000E+00 0.  1.
         11    1    1    2    0    0  0.78211727171E+02 -0.34475528268E+02  0.24970176689E+03  0.26392538473E+03  0.00000000000E+00 0. -1.
</event>
<event>
 7    1  0.2693725E-009  0.1584805E+03  0.7561462E-02  0.1190423E+00
         -2   -1    0    0    0  501 -0.00000000000E+00  0.00000000000E+00  0.86507055531E+02  0.86507055531E+02  0.00000000000E+00 0.  1.
          2   -1    0    0  501    0  0.00000000000E+00 -0.00000000000E+00 -0.42836665840E+03  0.42836665840E+03  0.00000000000E+00 0. -1.
         25    2    1    2    0    0  0.12496887271E+03 -0.93150901918E+02 -0.13841352805E+03  0.24310513585E+03  0.12508993827E+03 0.  0.
          5    1    3    3  502    0  0.53249114539E+02 -0.43543108511E+02  0.11263420748E+02  0.69826982929E+02  0.41800000000E+01 0. -1.
         -5    1    3    3    0  502  0.71719758169E+02 -0.49607793407E+02 -0.14967694880E+03  0.17327815292E+03  0.41800000000E+01 0. -1.
        -11    1    1    2    0    0 -0.56990154351E+02  0.18824590301E+02 -0.21408708004E+02  0.63722646456E+02  0.00000000000E+00 0.  1.
         11    1    1    2    0    0 -0.67978718356E+02  0.74326311617E+02 -0.18203736681E+03  0.20804593162E+03  0.00000000000E+00 0. -1.
</event>
<event>
 7    1  0.2693725E-009  0.2086833E+03  0.7561462E-02  0.1142613E+00
          4   -1    0    0  501    0  0.00000000000E+00  0.00000000000E+00  0.50142312951E+03  0.50142312951E+03  0.00000000000E+00 0. -1.
         -4   -1    0    0    0  501 -0.00000000000E+00 -0.00000000000E+00 -0.14169528686E+03  0.14169528686E+03  0.00000000000E+00 0.  1.
         25    2    1    2    0    0 -0.18864293761E+03 -0.64137544510E+02  0.35395346021E+03  0.42500912314E+03  0.12509964119E+03 0.  0.
          5    1    3    3  502    0 -0.16196096332E+03 -0.55554009082E+02  0.17887362775E+03  0.24765065853E+03  0.41800000000E+01 0. -1.
         -5    1    3    3    0  502 -0.26681974288E+02 -0.85835354280E+01  0.17507983247E+03  0.17735846461E+03  0.41800000000E+01 0. -1.
        -11    1    1    2    0    0  0.12914186186E+03 -0.15130807623E+01  0.88495283096E+01  0.12945355943E+03  0.00000000000E+00 0. -1.
         11    1    1    2    0    0  0.59501075755E+02  0.65650625272E+02 -0.30751458794E+01  0.88655733807E+02  0.00000000000E+00 0.  1.
</event>
<event>
 7    1  0.2693725E-009  0.1538456E+03  0.7561462E-02  0.1195826E+00
          2   -1    0    0  501    0  0.00000000000E+00  0.00000000000E+00  0.25472276854E+04  0.25472276854E+04  0.00000000000E+00 0. -1.
         -2   -1    0    0    0  501 -0.00000000000E+00 -0.00000000000E+00 -0.13318604616E+02  0.13318604616E+02  0.00000000000E+00 0.  1.
         25    2    1    2    0    0  0.21163431329E+02 -0.13587846359E+03  0.17389993394E+04  0.17489071865E+04  0.12508715762E+03 0.  0.
          5    1    3    3  502    0  0.32534052730E+02 -0.65680862350E+02  0.14266494879E+04  0.14285372498E+04  0.41800000000E+01 0. -1.
         -5    1    3    3    0  502 -0.11370621401E+02 -0.70197601241E+02  0.31234985151E+03  0.32036993677E+03  0.41800000000E+01 0. -1.
        -11    1    1    2    0    0  0.34469356488E+02  0.51290271666E+02  0.34358397604E+03  0.34909708836E+03  0.00000000000E+00 0. -1.
         11    1    1    2    0    0 -0.55632787817E+02  0.84588191925E+02  0.45132576540E+03  0.46254201518E+03  0.00000000000E+00 0.  1.
</event>
<event>
 7    1  0.2693725E-009  0.1020681E+03  0.7561462E-02  0.1276006E+00
         -2   -1    0    0    0  501 -0.00000000000E+00  0.00000000000E+00  0.14691101026E+03  0.14691101026E+03  0.00000000000E+00 0.  1.
          2   -1    0    0  501    0  0.00000000000E+00 -0.00000000000E+00 -0.10193936104E+03  0.10193936104E+03  0.00000000000E+00 0. -1.
         25    2    1    2    0    0  0.37104731275E+02 -0.39754436854E+02  0.51281628795E+02  0.14571533935E+03  0.12508388521E+03 0.  0.
          5    1    3    3  502    0  0.51330651911E+02  0.31535224293E+02  0.38958211051E+02  0.71864600501E+02  0.41800000000E+01 0. -1.
         -5    1    3    3    0  502 -0.14225920636E+02 -0.71289661147E+02  0.12323417744E+02  0.73850738854E+02  0.41800000000E+01 0. -1.
        -11    1    1    2    0    0 -0.45336350800E+02  0.20039029690E+02 -0.39692211366E+02  0.63501331150E+02  0.00000000000E+00 0. -1.
         11    1    1    2    0    0  0.82316195249E+01  0.19715407163E+02  0.33382231790E+02  0.39633700797E+02  0.00000000000E+00 0.  1.
</event>
<event>
 7    1  0.2693725E-009  0.1349229E+03  0.7561462E-02  0.1220329E+00
          3   -1    0    0  501    0  0.00000000000E+00  0.00000000000E+00  0.28344001072E+02  0.28344001072E+02  0.00000000000E+00 0. -1.
         -3   -1    0    0    0  501 -0.00000000000E+00 -0.00000000000E+00 -0.74979426716E+03  0.74979426716E+03  0.00000000000E+00 0.  1.
         25    2    1    2    0    0 -0.92315285215E+02  0.48261696476E+00 -0.30139101282E+03  0.33912671880E+03  0.12509214201E+03 0.  0.
          5    1    3    3  502    0 -0.75172292977E+01  0.54170909086E+02 -0.11404574463E+03  0.12654999169E+03  0.41800000000E+01 0. -1.
         -5    1    3    3    0  502 -0.84798055917E+02 -0.53688292121E+02 -0.18734526818E+03  0.21257672711E+03  0.41800000000E+01 0. -1.
        -11    1    1    2    0    0  0.60312469040E+02  0.32563438521E+02 -0.33853250113E+03  0.34540154280E+03  0.00000000000E+00 0.  1.
         11    1    1    2    0    0  0.32002816175E+02 -0.33046055486E+02 -0.81526752145E+02  0.93610006632E+02  0.00000000000E+00 0. -1.
</event>
<event>
 7    1  0.2693725E-009  0.1684413E+03  0.7561462E-02  0.1179483E+00
          1   -1    0    0  501    0  0.00000000000E+00  0.00000000000E+00  0.25996429869E+03  0.25996429869E+03  0.00000000000E+00 0. -1.
         -1   -1    0    0    0  501 -0.00000000000E+00 -0.00000000000E+00 -0.14168890726E+03  0.14168890726E+03  0.00000000000E+00 0.  1.
         25    2    1    2    0    0  0.96662448516E+02 -0.10752877144E+03 -0.58223490925E+01  0.19127866449E+03  0.12509021585E+03 0.  0.
          5    1    3    3  502    0  0.97073522837E+02 -0.13129019069E+03 -0.17870412807E+02  0.16430826839E+03  0.41800000000E+01 0.  1.
         -5    1    3    3    0  502 -0.41107432179E+00  0.23761419247E+02  0.12048063715E+02  0.26970396104E+02  0.41800000000E+01 0.  1.
        -11    1    1    2    0    0 -0.41303340032E+02  0.73863630589E+02  0.11812078447E+03  0.14530767889E+03  0.00000000000E+00 0. -1.
         11    1    1    2    0    0 -0.55359108484E+02  0.33665140852E+02  0.59769560520E+01  0.65066862567E+02  0.00000000000E+00 0.  1.
</event>
<event>
 7    1  0.2693725E-009  0.1022193E+03  0.7561462E-02  0.1275697E+00
          4   -1    0    0  501    0  0.00000000000E+00  0.00000000000E+00  0.31856735176E+03  0.31856735176E+03  0.00000000000E+00 0. -1.
         -4   -1    0    0    0  501 -0.00000000000E+00 -0.00000000000E+00 -0.38870925615E+02  0.38870925615E+02  0.00000000000E+00 0.  1.
         25    2    1    2    0    0 -0.70130412531E+01 -0.19915668917E+01  0.12812392655E+03  0.17921038747E+03  0.12508986104E+03 0.  0.
          5    1    3    3  502    0 -0.22091344859E+02  0.58029433246E+02  0.75700189419E+02  0.97997110767E+02  0.41800000000E+01 0.  1.
         -5    1    3    3    0  502  0.15078303606E+02 -0.60021000138E+02  0.52423737134E+02  0.81213276699E+02  0.41800000000E+01 0.  1.
        -11    1    1    2    0    0  0.40666468912E+02  0.16033964181E+02  0.12685275741E+03  0.13417329006E+03  0.00000000000E+00 0. -1.
         11    1    1    2    0    0 -0.33653427658E+02 -0.14042397289E+02  0.24719742178E+02  0.44054599852E+02  0.00000000000E+00 0.  1.
</event>
<event>
 7    1  0.2693725E-009  0.1579174E+03  0.7561462E-02  0.1191068E+00
         -2   -1    0    0    0  501 -0.00000000000E+00  0.00000000000E+00  0.16865433610E+03  0.16865433610E+03  0.00000000000E+00 0.  1.
          2   -1    0    0  501    0  0.00000000000E+00 -0.00000000000E+00 -0.20304869578E+03  0.20304869578E+03  0.00000000000E+00 0. -1.
         25    2    1    2    0    0  0.55656993584E+02  0.13357316355E+03 -0.53261724326E+02  0.19855490590E+03  0.12509096060E+03 0.  0.
          5    1    3    3  502    0  0.17772894159E+02 -0.89852768428E+01  0.24423557432E+02  0.31789833664E+02  0.41800000000E+01 0.  1.
         -5    1    3    3    0  502  0.37884099424E+02  0.14255844039E+03 -0.77685281759E+02  0.16676507224E+03  0.41800000000E+01 0.  1.
        -11    1    1    2    0    0 -0.97791195368E+01 -0.62941877078E+02  0.52414158222E+02  0.82489726943E+02  0.00000000000E+00 0.  1.
         11    1    1    2    0    0 -0.45877874047E+02 -0.70631286471E+02 -0.33546793578E+02  0.90658399032E+02  0.00000000000E+00 0. -1.
</event>
<event>
 7    1  0.2693725E-009  0.1093557E+03  0.7561462E-02  0.1261768E+00
         -2   -1    0    0    0  501 -0.00000000000E+00  0.00000000000E+00  0.11006765098E+03  0.11006765098E+03  0.00000000000E+00 0.  1.
          2   -1    0    0  501    0  0.00000000000E+00 -0.00000000000E+00 -0.20354198692E+03  0.20354198692E+03  0.00000000000E+00 0. -1.
         25    2    1    2    0    0  0.23229178769E+02 -0.77940316666E+02 -0.11725652742E+03  0.18976445548E+03  0.12508863911E+03 0.  0.
          5    1    3    3  502    0 -0.15708297269E+02 -0.62005572412E+02 -0.13055566381E+03  0.14544310010E+03  0.41800000000E+01 0.  1.
         -5    1    3    3    0  502  0.38937476037E+02 -0.15934744254E+02  0.13299136393E+02  0.44321355388E+02  0.41800000000E+01 0.  1.
        -11    1    1    2    0    0  0.27962395966E+02  0.16924182542E+02  0.29452214257E+02  0.43997232499E+02  0.00000000000E+00 0.  1.
         11    1    1    2    0    0 -0.51191574735E+02  0.61016134124E+02 -0.56700227884E+01  0.79847949916E+02  0.00000000000E+00 0. -1.
</event>
<event>
 7    1  0.2693725E-009  0.1287781E+03  0.7561462E-02  0.1229280E+00
         -2   -1    0    0    0  501 -0.00000000000E+00  0.00000000000E+00  0.14048425738E+03  0.14048425738E+03  0.00000000000E+00 0.  1.
          2   -1    0    0  501    0  0.00000000000E+00 -0.00000000000E+00 -0.15236727541E+03  0.15236727541E+03  0.00000000000E+00 0. -1.
         25    2    1    2    0    0  0.92208911207E+02  0.10668389549E+02  0.23296809305E+02  0.15750145736E+03  0.12509064676E+03 0.  0.
          5    1    3    3  502    0  0.35167944018E+02 -0.38437195777E+02  0.54865929108E+02  0.75775621954E+02  0.41800000000E+01 0.  1.
         -5    1    3    3    0  502  0.57040967189E+02  0.49105585326E+02 -0.31569119803E+02  0.81725835408E+02  0.41800000000E+01 0.  1.
        -11    1    1    2    0    0  0.54436436225E+01  0.25272302504E+02 -0.13080380391E+02  0.28972726501E+02  0.00000000000E+00 0.  1.
         11    1    1    2    0    0 -0.97652554830E+02 -0.35940692053E+02 -0.22099446935E+02  0.10637734893E+03  0.00000000000E+00 0. -1.
</event>
<event>
 7    1  0.2693725E-009  0.2470791E+03  0.7561462E-02  0.1115165E+00
          2   -1    0    0  501    0  0.00000000000E+00  0.00000000000E+00  0.59925539351E+03  0.59925539351E+03  0.00000000000E+00 0. -1.
         -2   -1    0    0    0  501 -0.00000000000E+00 -0.00000000000E+00 -0.11295254773E+03  0.11295254773E+03  0.00000000000E+00 0.  1.
         25    2    1    2    0    0  0.19670093087E+03  0.12847301817E+03  0.21895737142E+03  0.34465364939E+03  0.12508890814E+03 0.  0.
          5    1    3    3  502    0  0.12782392247E+03  0.23062671190E+02  0.15834244018E+03  0.20484297088E+03  0.41800000000E+01 0.  1.
         -5    1    3    3    0  502  0.68877008400E+02  0.10541034698E+03  0.60614931235E+02  0.13981067851E+03  0.41800000000E+01 0.  1.
        -11    1    1    2    0    0 -0.19152055549E+03 -0.11408861756E+03  0.20329310529E+03  0.30170253975E+03  0.00000000000E+00 0.  1.
         11    1    1    2    0    0 -0.51803753802E+01 -0.14384400612E+02  0.64052369080E+02  0.65851752101E+02  0.00000000000E+00 0. -1.
</event>
<event>
 7    1  0.2693725E-009  0.1229814E+03  0.7561462E-02  0.1238258E+00
         -2   -1    0    0    0  501 -0.00000000000E+00  0.00000000000E+00  0.10723094284E+03  0.10723094284E+03  0.00000000000E+00 0.  1.
          2   -1    0    0  501    0  0.00000000000E+00 -0.00000000000E+00 -0.19055556350E+03  0.19055556350E+03  0.00000000000E+00 0. -1.
         25    2    1    2    0    0  0.15599100143E+02 -0.63174525585E+02  0.22962687992E+02  0.14285931460E+03  0.12508855311E+03 0.  0.
          5    1    3    3  502    0 -0.52066327342E+02 -0.29674360659E+02  0.29558309103E+02  0.66952491817E+02  0.41800000000E+01 0.  1.
         -5    1    3    3    0  502  0.67665427484E+02 -0.33500164925E+02 -0.65956211115E+01  0.75906822780E+02  0.41800000000E+01 0.  1.
        -11    1    1    2    0    0 -0.43501878442E+02  0.26034898992E+01 -0.58206073471E+02  0.72712712620E+02  0.00000000000E+00 0. -1.
         11    1    1    2    0    0  0.27902778300E+02  0.60571035686E+02 -0.48081235175E+02  0.82214479119E+02  0.00000000000E+00 0.  1.
</event>
<event>
 7    1  0.2693725E-009  0.1701016E+03  0.7561462E-02  0.1177742E+00
         -2   -1    0    0    0  501 -0.00000000000E+00  0.00000000000E+00  0.14306222970E+03  0.14306222970E+03  0.00000000000E+00 0.  1.
          2   -1    0    0  501    0  0.00000000000E+00 -0.00000000000E+00 -0.24395456766E+03  0.24395456766E+03  0.00000000000E+00 0. -1.
         25    2    1    2    0    0  0.14554410157E+03 -0.79407573700E+01 -0.96907219226E+02  0.21513833509E+03  0.12508937986E+03 0.  0.
          5    1    3    3  502    0  0.14604579622E+03 -0.34867458533E+02 -0.10872920050E+03  0.18543091894E+03  0.41800000000E+01 0. -1.
         -5    1    3    3    0  502 -0.50169464146E+00  0.26926701163E+02  0.11821981272E+02  0.29707416148E+02  0.41800000000E+01 0. -1.
        -11    1    1    2    0    0 -0.31023957101E+00  0.17208800707E+02 -0.18928796631E+02  0.25583948332E+02  0.00000000000E+00 0. -1.
         11    1    1    2    0    0 -0.14523386200E+03 -0.92680433368E+01  0.14943677893E+02  0.14629451394E+03  0.00000000000E+00 0.  1.
</event>
<event>
 7    1  0.2693725E-009  0.1157901E+03  0.7561462E-02  0.1250208E+00
         -2   -1    0    0    0  501 -0.00000000000E+00  0.00000000000E+00  0.12848975490E+03  0.12848975490E+03  0.00000000000E+00 0.  1.
          2   -1    0    0  501    0  0.00000000000E+00 -0.00000000000E+00 -0.13654732327E+03  0.13654732327E+03  0.00000000000E+00 0. -1.
         25    2    1    2    0    0 -0.33982694639E+02 -0.66755070394E+02 -0.81984198468E+01  0.14603605960E+03  0.12509298005E+03 0.  0.
          5    1    3    3  502    0 -0.53139236543E+02 -0.89485996960E+01  0.40834100272E+02  0.67740328032E+02  0.41800000000E+01 0.  1.
         -5    1    3    3    0  502  0.19156541903E+02 -0.57806470698E+02 -0.49032520119E+02  0.78295731566E+02  0.41800000000E+01 0.  1.
        -11    1    1    2    0    0  0.63382774236E+02  0.57737097578E+02 -0.10680938080E+02  0.86400410560E+02  0.00000000000E+00 0. -1.
         11    1    1    2    0    0 -0.29400079597E+02  0.90179728157E+01  0.10821789556E+02  0.32600608019E+02  0.00000000000E+00 0.  1.
</event>
<event>
 7    1  0.2693725E-009  0.1007467E+03  0.7561462E-02  0.1278734E+00
          2   -1    0    0  501    0  0.00000000000E+00  0.00000000000E+00  0.71234401154E+02  0.71234401154E+02  0.00000000000E+00 0. -1.
         -2   -1    0    0    0  501 -0.00000000000E+00 -0.00000000000E+00 -0.29910438596E+03  0.29910438596E+03  0.00000000000E+00 0.  1.
         25    2    1    2    0    0 -0.77113157411E+00 -0.93806539856E+02 -0.95610665807E+02  0.18327136795E+03  0.12508690312E+03 0.  0.
          5    1    3    3  502    0  0.13910398200E+02 -0.51364101239E+01 -0.91940151859E+02  0.93222024280E+02  0.41800000000E+01 0. -1.
         -5    1    3    3    0  502 -0.14681529775E+02 -0.88670129732E+02 -0.36705139478E+01  0.90049343672E+02  0.41800000000E+01 0. -1.
        -11    1    1    2    0    0  0.99599199879E+01  0.67858811207E+02 -0.19942039711E+02  0.71426208162E+02  0.00000000000E+00 0. -1.
         11    1    1    2    0    0 -0.91887884138E+01  0.25947728649E+02 -0.11231727929E+03  0.11564121100E+03  0.00000000000E+00 0.  1.
</event>
<event>
 7    1  0.2693725E-009  0.1084145E+03  0.7561462E-02  0.1263534E+00
         -1   -1    0    0    0  501 -0.00000000000E+00  0.00000000000E+00  0.13029084312E+03  0.13029084312E+03  0.00000000000E+00 0.  1.
          1   -1    0    0  501    0  0.00000000000E+00 -0.00000000000E+00 -0.26768220577E+03  0.26768220577E+03  0.00000000000E+00 0. -1.
         25    2    1    2    0    0  0.58986184181E+02 -0.76932556751E+02 -0.19685617499E+03  0.25258232530E+03  0.12508992450E+03 0.  0.
          5    1    3    3  502    0 -0.62601420809E+01 -0.34683784613E+02  0.53665498688E+01  0.35894659094E+02  0.41800000000E+01 0.  1.
         -5    1    3    3    0  502  0.65246326262E+02 -0.42248772137E+02 -0.20222272486E+03  0.21668766621E+03  0.41800000000E+01 0.  1.
        -11    1    1    2    0    0 -0.45928721206E+02  0.30189229170E+02 -0.14575182606E+02  0.56861875958E+02  0.00000000000E+00 0. -1.
         11    1    1    2    0    0 -0.13057462975E+02  0.46743327581E+02  0.74039994945E+02  0.88528847638E+02  0.00000000000E+00 0.  1.
</event>
<event>
 7    1  0.2693725E-009  0.1241634E+03  0.7561462E-02  0.1236383E+00
         -1   -1    0    0    0  501 -0.00000000000E+00  0.00000000000E+00  0.69766622017E+02  0.69766622017E+02  0.00000000000E+00 0.  1.
          1   -1    0    0  501    0  0.00000000000E+00 -0.00000000000E+00 -0.28877544771E+03  0.28877544771E+03  0.00000000000E+00 0. -1.
         25    2    1    2    0    0  0.57978165102E+02 -0.67106664552E+02 -0.14771711147E+03  0.21291470047E+03  0.12509017788E+03 0.  0.
          5    1    3    3  502    0  0.81438030544E+02 -0.47510464707E+02 -0.15476235645E+03  0.18126846513E+03  0.41800000000E+01 0.  1.
         -5    1    3    3    0  502 -0.23459865441E+02 -0.19596199844E+02  0.70452449803E+01  0.31646235348E+02  0.41800000000E+01 0.  1.
        -11    1    1    2    0    0 -0.79849305912E+02  0.60720857809E+02 -0.42588329639E+02  0.10898027367E+03  0.00000000000E+00 0.  1.
         11    1    1    2    0    0  0.21871140809E+02  0.63858067429E+01 -0.28703384583E+02  0.36647095582E+02  0.00000000000E+00 0. -1.
</event>
<event>
 7    1  0.2693725E-009  0.1371374E+03  0.7561462E-02  0.1217233E+00
         -1   -1    0    0    0  501 -0.00000000000E+00  0.00000000000E+00  0.11908156227E+03  0.11908156227E+03  0.00000000000E+00 0.  1.
          1   -1    0    0  501    0  0.00000000000E+00 -0.00000000000E+00 -0.16712020658E+03  0.16712020658E+03  0.00000000000E+00 0. -1.
         25    2    1    2    0    0 -0.85503243010E+02 -0.18569305626E+02 -0.13298154354E+02  0.15323017807E+03  0.12508806052E+03 0.  0.
          5    1    3    3  502    0 -0.52119075367E+02 -0.68242504857E+02 -0.29830947735E+02  0.90998875428E+02  0.41800000000E+01 0. -1.
         -5    1    3    3    0  502 -0.33384167643E+02  0.49673199232E+02  0.16532793381E+02  0.62231302639E+02  0.41800000000E+01 0. -1.
        -11    1    1    2    0    0  0.79592116290E+02  0.51533924215E+02 -0.27191836785E+02  0.98640997097E+02  0.00000000000E+00 0. -1.
         11    1    1    2    0    0  0.59111267207E+01 -0.32964618589E+02 -0.75486531725E+01  0.34330593682E+02  0.00000000000E+00 0.  1.
</event>
<event>
 7    1  0.2693725E-009  0.7346605E+02  0.7561462E-02  0.1348688E+00
          1   -1    0    0  501    0  0.00000000000E+00  0.00000000000E+00  0.15968876237E+02  0.15968876237E+02  0.00000000000E+00 0. -1.
         -1   -1    0    0    0  501 -0.00000000000E+00 -0.00000000000E+00 -0.80869895183E+03  0.80869895183E+03  0.00000000000E+00 0.  1.
         25    2    1    2    0    0  0.27499437117E+02  0.19050759477E+02 -0.50669718809E+03  0.52298038751E+03  0.12508914750E+03 0.  0.
          5    1    3    3  502    0  0.84152970467E+01  0.30391532712E+02 -0.24238119887E+02  0.39992766104E+02  0.41800000000E+01 0. -1.
         -5    1    3    3    0  502  0.19084140071E+02 -0.11340773235E+02 -0.48245906821E+03  0.48298762141E+03  0.41800000000E+01 0. -1.
        -11    1    1    2    0    0 -0.18302656886E+02 -0.53673439280E+02 -0.13427484633E+03  0.14575856643E+03  0.00000000000E+00 0. -1.
         11    1    1    2    0    0 -0.91967802312E+01  0.34622679803E+02 -0.15175804118E+03  0.15592887412E+03  0.00000000000E+00 0.  1.
</event>
<event>
 7    1  0.2693725E-009  0.1606606E+03  0.7561462E-02  0.1187953E+00
          1   -1    0    0  501    0  0.00000000000E+00  0.00000000000E+00  0.29768485447E+03  0.29768485447E+03  0.00000000000E+00 0. -1.
         -1   -1    0    0    0  501 -0.00000000000E+00 -0.00000000000E+00 -0.10044524763E+03  0.10044524763E+03  0.00000000000E+00 0.  1.
         25    2    1    2    0    0  0.73089161075E+01  0.13192590591E+03  0.13913501565E+03  0.22905288053E+03  0.12509518214E+03 0.  0.
          5    1    3    3  502    0 -0.51301279484E+02  0.69418572607E+02  0.10677127103E+03  0.13736206251E+03  0.41800000000E+01 0. -1.
         -5    1    3    3    0  502  0.58610195592E+02  0.62507333304E+02  0.32363744626E+02  0.91690818026E+02  0.41800000000E+01 0. -1.
        -11    1    1    2    0    0  0.22569085228E+02 -0.12079314439E+02 -0.10638834066E+02  0.27721079265E+02  0.00000000000E+00 0.  1.
         11    1    1    2    0    0 -0.29878001335E+02 -0.11984659147E+03  0.68743425258E+02  0.14135614231E+03  0.00000000000E+00 0. -1.
</event>
<event>
 7    1  0.2693725E-009  0.8371648E+02  0.7561462E-02  0.1318824E+00
         -1   -1    0    0    0  501 -0.00000000000E+00  0.00000000000E+00  0.14152078213E+02  0.14152078213E+02  0.00000000000E+00 0.  1.
          1   -1    0    0  501    0  0.00000000000E+00 -0.00000000000E+00 -0.11030583020E+04  0.11030583020E+04  0.00000000000E+00 0. -1.
         25    2    1    2    0    0  0.41369962427E+02 -0.16068674108E+02 -0.80447601498E+03  0.81535157480E+03  0.12508739257E+03 0.  0.
          5    1    3    3  502    0  0.28182547211E+02  0.15183406883E+02 -0.46516893984E+02  0.56622306892E+02  0.41800000000E+01 0.  1.
         -5    1    3    3    0  502  0.13187415216E+02 -0.31252080991E+02 -0.75795912099E+03  0.75872926791E+03  0.41800000000E+01 0.  1.
        -11    1    1    2    0    0 -0.43560687419E+02  0.50374121544E+02 -0.18072370302E+03  0.19260358886E+03  0.00000000000E+00 0.  1.
         11    1    1    2    0    0  0.21907249923E+01 -0.34305447436E+02 -0.10370650578E+03  0.10925521654E+03  0.00000000000E+00 0. -1.
</event>
<event>
 7    1  0.2693725E-009  0.1524596E+03  0.7561462E-02  0.1197483E+00
          1   -1    0    0  501    0  0.00000000000E+00  0.00000000000E+00  0.89468807933E+02  0.89468807933E+02  0.00000000000E+00 0. -1.
         -1   -1    0    0    0  501 -0.00000000000E+00 -0.00000000000E+00 -0.37615878028E+03  0.37615878028E+03  0.00000000000E+00 0.  1.
         25    2    1    2    0    0 -0.77017888238E+02 -0.30416052762E+02 -0.16905385340E+03  0.22601848435E+03  0.12509299958E+03 0.  0.
          5    1    3    3  502    0 -0.82972989543E+02  0.65774038602E+01 -0.41675823733E+02  0.93177926136E+02  0.41800000000E+01 0. -1.
         -5    1    3    3    0  502  0.59551013046E+01 -0.36993456622E+02 -0.12737802967E+03  0.13284055821E+03  0.41800000000E+01 0. -1.
        -11    1    1    2    0    0 -0.42917570762E+02  0.46026943927E+02 -0.98892366762E+02  0.11721816263E+03  0.00000000000E+00 0.  1.
         11    1    1    2    0    0  0.11993545900E+03 -0.15610891165E+02 -0.18743752180E+02  0.12239094123E+03  0.00000000000E+00 0. -1.
</event>
<event>
 7    1  0.2693725E-009  0.1519685E+03  0.7561462E-02  0.1198075E+00
          1   -1    0    0  501    0  0.00000000000E+00  0.00000000000E+00  0.93078527802E+03  0.93078527802E+03  0.00000000000E+00 0. -1.
         -1   -1    0    0    0  501 -0.00000000000E+00 -0.00000000000E+00 -0.34927760044E+02  0.34927760044E+02  0.00000000000E+00 0.  1.
         25    2    1    2    0    0  0.73856865062E+02  0.86933056876E+02  0.23776797593E+03  0.29187903819E+03  0.12509024607E+03 0.  0.
          5    1    3    3  502    0  0.99603185730E+01  0.94176217548E+02  0.18768043468E+03  0.21026123242E+03  0.41800000000E+01 0.  1.
         -5    1    3    3    0  502  0.63896546489E+02 -0.72431606712E+01  0.50087541252E+02  0.81617805768E+02  0.41800000000E+01 0.  1.
        -11    1    1    2    0    0 -0.10482455183E+01 -0.69925225639E+02  0.33117864387E+03  0.33848180181E+03  0.00000000000E+00 0.  1.
         11    1    1    2    0    0 -0.72808619544E+02 -0.17007831238E+02  0.32691089817E+03  0.33535219807E+03  0.00000000000E+00 0. -1.
</event>
<event>
 7    1  0.2693725E-009  0.1756392E+03  0.7561462E-02  0.1172091E+00
         -2   -1    0    0    0  501 -0.00000000000E+00  0.00000000000E+00  0.37341700249E+03  0.37341700249E+03  0.00000000000E+00 0.  1.
          2   -1    0    0  501    0  0.00000000000E+00 -0.00000000000E+00 -0.12776300907E+03  0.12776300907E+03  0.00000000000E+00 0. -1.
         25    2    1    2    0    0 -0.11597101478E+03  0.12034189080E+03  0.22982417804E+03  0.31048341323E+03  0.12509736261E+03 0.  0.
          5    1    3    3  502    0 -0.37792132859E+02  0.63311261556E+02  0.19336594591E+03  0.20698894314E+03  0.41800000000E+01 0. -1.
         -5    1    3    3    0  502 -0.78178881917E+02  0.57030629247E+02  0.36458232131E+02  0.10349447009E+03  0.41800000000E+01 0. -1.
        -11    1    1    2    0    0  0.12460631521E+03 -0.10493611711E+03 -0.55068910356E+01  0.16299892120E+03  0.00000000000E+00 0. -1.
         11    1    1    2    0    0 -0.86353004376E+01 -0.15405773695E+02  0.21336706425E+02  0.27697677120E+02  0.00000000000E+00 0.  1.
</event>
<event>
 7    1  0.2693725E-009  0.1372541E+03  0.7561462E-02  0.1217072E+00
          1   -1    0    0  501    0  0.00000000000E+00  0.00000000000E+00  0.10961891631E+03  0.10961891631E+03  0.00000000000E+00 0. -1.
         -1   -1    0    0    0  501 -0.00000000000E+00 -0.00000000000E+00 -0.20822669070E+03  0.20822669070E+03  0.00000000000E+00 0.  1.
         25    2    1    2    0    0 -0.10037405542E+03 -0.28306560334E+02 -0.67429262648E+02  0.17626906850E+03  0.12509143331E+03 0.  0.
          5    1    3    3  502    0  0.28189104080E+02 -0.10811606864E+01 -0.25680414002E-01  0.28517846285E+02  0.41800000000E+01 0. -1.
         -5    1    3    3    0  502 -0.12856315950E+03 -0.27225399648E+02 -0.67403582234E+02  0.14775122221E+03  0.41800000000E+01 0. -1.
        -11    1    1    2    0    0  0.62962270484E+02 -0.66443889752E+01 -0.56140504879E+02  0.84617679580E+02  0.00000000000E+00 0.  1.
         11    1    1    2    0    0  0.37411784936E+02  0.34950949309E+02  0.24961993134E+02  0.56958858933E+02  0.00000000000E+00 0. -1.
</event>
<event>
 7    1  0.2693725E-009  0.1157315E+03  0.7561462E-02  0.1250310E+00
          1   -1    0    0  501    0  0.00000000000E+00  0.00000000000E+00  0.48987163994E+02  0.48987163994E+02  0.00000000000E+00 0. -1.
         -1   -1    0    0    0  501 -0.00000000000E+00 -0.00000000000E+00 -0.41670537649E+03  0.41670537649E+03  0.00000000000E+00 0.  1.
         25    2    1    2    0    0  0.78786737402E+02 -0.20208891391E+02 -0.26793734462E+03  0.30668216932E+03  0.12509109902E+03 0.  0.
          5    1    3    3  502    0 -0.13639532883E+02 -0.20180261727E+02 -0.17063137237E+03  0.17241176717E+03  0.41800000000E+01 0. -1.
         -5    1    3    3    0  502  0.92426270285E+02 -0.28629664258E-01 -0.97305972245E+02  0.13427040215E+03  0.41800000000E+01 0. -1.
        -11    1    1    2    0    0  0.10982233722E+02  0.21839242129E+02 -0.51642289794E+02  0.57135698555E+02  0.00000000000E+00 0.  1.
         11    1    1    2    0    0 -0.89768971123E+02 -0.16303507378E+01 -0.48138578089E+02  0.10187467262E+03  0.00000000000E+00 0. -1.
</event>
<event>
 7    1  0.3588779E-009  0.1025225E+03  0.7561462E-02  0.1275079E+00
          2   -1    0    0  501    0  0.00000000000E+00  0.00000000000E+00  0.82895182456E+03  0.82895182456E+03  0.00000000000E+00 0. -1.
         -2   -1    0    0    0  501 -0.00000000000E+00 -0.00000000000E+00 -0.16893025397E+02  0.16893025397E+02  0.00000000000E+00 0.  1.
         25    2    1    2    0    0 -0.22654783312E+02 -0.21094553278E+02  0.33140655299E+03  0.35557880606E+03  0.12509102513E+03 0.  0.
          5    1    3    3  502    0  0.15635630503E+01  0.41293027510E+02  0.44214004734E+02  0.60662257335E+02  0.41800000000E+01 0.  1.
         -5    1    3    3    0  502 -0.24218346362E+02 -0.62387580789E+02  0.28719254826E+03  0.29491654873E+03  0.41800000000E+01 0.  1.
        -11    1    1    2    0    0  0.47906462493E+02 -0.16931890543E+02  0.23924410960E+03  0.24458017509E+03  0.00000000000E+00 0.  1.
         11    1    1    2    0    0 -0.25251679181E+02  0.38026443821E+02  0.24140813656E+03  0.24568586880E+03  0.00000000000E+00 0. -1.
</event>
<event>
 7    1  0.2693725E-009  0.1050459E+03  0.7561462E-02  0.1270029E+00
         -1   -1    0    0    0  501 -0.00000000000E+00  0.00000000000E+00  0.31516066095E+02  0.31516066095E+02  0.00000000000E+00 0.  1.
          1   -1    0    0  501    0  0.00000000000E+00 -0.00000000000E+00 -0.47362203619E+03  0.47362203619E+03  0.00000000000E+00 0. -1.
         25    2    1    2    0    0  0.35999694728E+02  0.41992522586E+02 -0.21717585523E+03  0.25665542898E+03  0.12508919680E+03 0.  0.
          5    1    3    3  502    0  0.40041564928E+02  0.81147882492E+02 -0.11057777943E+03  0.14294482662E+03  0.41800000000E+01 0. -1.
         -5    1    3    3    0  502 -0.40418701998E+01 -0.39155359906E+02 -0.10659807580E+03  0.11371060235E+03  0.41800000000E+01 0. -1.
        -11    1    1    2    0    0 -0.59282808770E+01  0.14642913563E+02 -0.13115557876E+01  0.15851801486E+02  0.00000000000E+00 0.  1.
         11    1    1    2    0    0 -0.30071413851E+02 -0.56635436149E+02 -0.22361855908E+03  0.23263087182E+03  0.00000000000E+00 0. -1.
</event>
<event>
 7    1  0.2693725E-009  0.1025982E+03  0.7561462E-02  0.1274925E+00
          2   -1    0    0  501    0  0.00000000000E+00  0.00000000000E+00  0.61735903388E+02  0.61735903388E+02  0.00000000000E+00 0. -1.
         -2   -1    0    0    0  501 -0.00000000000E+00 -0.00000000000E+00 -0.24751269739E+03  0.24751269739E+03  0.00000000000E+00 0.  1.
         25    2    1    2    0    0 -0.52239293036E+02 -0.21385463367E+01 -0.65913230189E+02  0.15074800730E+03  0.12508753205E+03 0.  0.
          5    1    3    3  502    0  0.16557782213E+02 -0.28558937591E+02  0.18935163053E+02  0.38285583030E+02  0.41800000000E+01 0. -1.
         -5    1    3    3    0  502 -0.68797075250E+02  0.26420391254E+02 -0.84848393242E+02  0.11246242427E+03  0.41800000000E+01 0. -1.
        -11    1    1    2    0    0 -0.20944503764E+02 -0.11148086104E+02 -0.54657977892E+02  0.59585624180E+02  0.00000000000E+00 0. -1.
         11    1    1    2    0    0  0.73183796800E+02  0.13286632441E+02 -0.65205585920E+02  0.98914969296E+02  0.00000000000E+00 0.  1.
</event>
<event>
 7    1  0.2693725E-009  0.8707891E+02  0.7561462E-02  0.1310084E+00
         -2   -1    0    0    0  501 -0.00000000000E+00  0.00000000000E+00  0.47366730297E+02  0.47366730297E+02  0.00000000000E+00 0.  1.
          2   -1    0    0  501    0  0.00000000000E+00 -0.00000000000E+00 -0.29354980761E+03  0.29354980761E+03  0.00000000000E+00 0. -1.
         25    2    1    2    0    0 -0.14214949852E+02  0.11222655621E+02 -0.20003432797E+03  0.23662312865E+03  0.12509500327E+03 0.  0.
          5    1    3    3  502    0 -0.52973199073E+02  0.13460379609E+02 -0.18790216254E+03  0.19573460789E+03  0.41800000000E+01 0.  1.
         -5    1    3    3    0  502  0.38758249221E+02 -0.22377239883E+01 -0.12132165434E+02  0.40888520754E+02  0.41800000000E+01 0.  1.
        -11    1    1    2    0    0  0.46681916879E+02 -0.28687954053E+01 -0.52350884646E+02  0.70200046109E+02  0.00000000000E+00 0. -1.
         11    1    1    2    0    0 -0.32466967027E+02 -0.83538602158E+01  0.62021353089E+01  0.34093363149E+02  0.00000000000E+00 0.  1.
</event>
<event>
 7    1  0.2693725E-009  0.9462775E+02  0.7561462E-02  0.1292017E+00
          3   -1    0    0  501    0  0.00000000000E+00  0.00000000000E+00  0.23091586483E+03  0.23091586483E+03  0.00000000000E+00 0. -1.
         -3   -1    0    0    0  501 -0.00000000000E+00 -0.00000000000E+00 -0.69586411845E+02  0.69586411845E+02  0.00000000000E+00 0.  1.
         25    2    1    2    0    0  0.75677427607E+01 -0.82792520227E+01  0.16380220814E+03  0.20640844824E+03  0.12508983720E+03 0.  0.
          5    1    3    3  502    0  0.53496512237E+02 -0.20067079394E+02  0.14376996149E+03  0.15476381594E+03  0.41800000000E+01 0.  1.
         -5    1    3    3    0  502 -0.45928769476E+02  0.11787827372E+02  0.20032246646E+02  0.51644632300E+02  0.41800000000E+01 0.  1.
        -11    1    1    2    0    0 -0.19635712907E+02 -0.34620015203E+02 -0.21957618179E+02  0.45455953077E+02  0.00000000000E+00 0.  1.
         11    1    1    2    0    0  0.12067970147E+02  0.42899267226E+02  0.19484863022E+02  0.48637875354E+02  0.00000000000E+00 0. -1.
</event>
<event>
 7    1  0.2693725E-009  0.8845738E+02  0.7561462E-02  0.1306631E+00
          4   -1    0    0  501    0  0.00000000000E+00  0.00000000000E+00  0.11697312677E+03  0.11697312677E+03  0.00000000000E+00 0. -1.
         -4   -1    0    0    0  501 -0.00000000000E+00 -0.00000000000E+00 -0.14176398329E+03  0.14176398329E+03  0.00000000000E+00 0.  1.
         25    2    1    2    0    0  0.23621139001E+02  0.25882677256E+02 -0.74607189827E+02  0.14979936694E+03  0.12508295796E+03 0.  0.
          5    1    3    3  502    0 -0.25736198187E+02  0.44363670322E+02  0.76429530582E+01  0.52022824539E+02  0.41800000000E+01 0.  1.
         -5    1    3    3    0  502  0.49357337189E+02 -0.18480993066E+02 -0.82250142885E+02  0.97776542400E+02  0.41800000000E+01 0.  1.
        -11    1    1    2    0    0  0.19028052801E+02 -0.22985559018E+02 -0.13330966976E+02  0.32682065377E+02  0.00000000000E+00 0.  1.
         11    1    1    2    0    0 -0.42649191803E+02 -0.28971182385E+01  0.63147300281E+02  0.76255677745E+02  0.00000000000E+00 0. -1.
</event>
<event>
 7    1  0.2693725E-009  0.9921910E+02  0.7561462E-02  0.1281947E+00
         -1   -1    0    0    0  501 -0.00000000000E+00  0.00000000000E+00  0.99319908906E+02  0.99319908906E+02  0.00000000000E+00 0.  1.
          1   -1    0    0  501    0  0.00000000000E+00 -0.00000000000E+00 -0.19224946729E+03  0.19224946729E+03  0.00000000000E+00 0. -1.
         25    2    1    2    0    0 -0.38084457203E+01 -0.81936717900E+02 -0.82934719310E+02  0.17103404713E+03  0.12508536130E+03 0.  0.
          5    1    3    3  502    0  0.34488420889E+02 -0.60553490709E+02  0.77218967335E+01  0.70237287118E+02  0.41800000000E+01 0.  1.
         -5    1    3    3    0  502 -0.38296866610E+02 -0.21383227191E+02 -0.90656616044E+02  0.10079676002E+03  0.41800000000E+01 0.  1.
        -11    1    1    2    0    0  0.78574543266E+01  0.11024632567E+02 -0.40894785548E+02  0.43077437212E+02  0.00000000000E+00 0. -1.
         11    1    1    2    0    0 -0.40490086063E+01  0.70912085334E+02  0.30899946478E+02  0.77457891847E+02  0.00000000000E+00 0.  1.
</event>
<event>
 7    1  0.2693725E-009  0.1222252E+03  0.7561462E-02  0.1239471E+00
          1   -1    0    0  501    0  0.00000000000E+00  0.00000000000E+00  0.11929680223E+03  0.11929680223E+03  0.00000000000E+00 0. -1.
         -1   -1    0    0    0  501 -0.00000000000E+00 -0.00000000000E+00 -0.23012280411E+03  0.23012280411E+03  0.00000000000E+00 0.  1.
         25    2    1    2    0    0 -0.68459699542E+02  0.10085889223E+03 -0.35996049650E+02  0.17832623843E+03  0.12508111417E+03 0.  0.
          5    1    3    3  502    0 -0.59553843848E+02  0.88235289416E+02  0.29790178729E+02  0.11062121751E+03  0.41800000000E+01 0.  1.
         -5    1    3    3    0  502 -0.89058556944E+01  0.12623602811E+02 -0.65786228378E+02  0.67705020920E+02  0.41800000000E+01 0.  1.
        -11    1    1    2    0    0  0.40385601583E+02 -0.61046881310E+02  0.93929614884E+01  0.73796654791E+02  0.00000000000E+00 0. -1.
         11    1    1    2    0    0  0.28074097959E+02 -0.39812010917E+02 -0.84222913714E+02  0.97296713120E+02  0.00000000000E+00 0.  1.
</event>
<event>
 7    1  0.2693725E-009  0.2416940E+03  0.7561462E-02  0.1118669E+00
         -1   -1    0    0    0  501 -0.00000000000E+00  0.00000000000E+00  0.19183169136E+03  0.19183169136E+03  0.00000000000E+00 0.  1.
          1   -1    0    0  501    0  0.00000000000E+00 -0.00000000000E+00 -0.33136049696E+03  0.33136049696E+03  0.00000000000E+00 0. -1.
         25    2    1    2    0    0 -0.12419377760E+03 -0.18916133022E+03 -0.91639165650E+02  0.27431980187E+03  0.12509002267E+03 0.  0.
          5    1    3    3  502    0 -0.12171499626E+02  0.15488077628E+02  0.65304208114E+01  0.21169429556E+02  0.41800000000E+01 0.  1.
         -5    1    3    3    0  502 -0.11202227798E+03 -0.20464940785E+03 -0.98169586461E+02  0.25315037232E+03  0.41800000000E+01 0.  1.
        -11    1    1    2    0    0  0.88999413583E+02  0.16418075141E+03 -0.71148057032E+02  0.19984559232E+03  0.00000000000E+00 0. -1.
         11    1    1    2    0    0  0.35194364022E+02  0.24980578817E+02  0.23258417085E+02  0.49026794125E+02  0.00000000000E+00 0.  1.
</event>
<event>
 7    1  0.2693725E-009  0.2765552E+03  0.7561462E-02  0.1097585E+00
          1   -1    0    0  501    0  0.00000000000E+00  0.00000000000E+00  0.13607019843E+04  0.13607019843E+04  0.00000000000E+00 0. -1.
         -1   -1    0    0    0  501 -0.00000000000E+00 -0.00000000000E+00 -0.60208805312E+02  0.60208805312E+02  0.00000000000E+00 0.  1.
         25    2    1    2    0    0 -0.23489975852E+03  0.12055839191E+03  0.71434613563E+03  0.77178279487E+03  0.12508420585E+03 0.  0.
          5    1    3    3  502    0 -0.52376163934E+02 -0.74333791886E+01  0.58069047631E+02  0.78663869517E+02  0.41800000000E+01 0.  1.
         -5    1    3    3    0  502 -0.18252359459E+03  0.12799177110E+03  0.65627708800E+03  0.69311892535E+03  0.41800000000E+01 0.  1.
        -11    1    1    2    0    0  0.20706821168E+03 -0.13351213668E+03  0.49455222348E+03  0.55252568870E+03  0.00000000000E+00 0. -1.
         11    1    1    2    0    0  0.27831546842E+02  0.12953744763E+02  0.91594819861E+02  0.96602306020E+02  0.00000000000E+00 0.  1.
</event>
<event>
 7    1  0.2693725E-009  0.1365818E+03  0.7561462E-02  0.1218004E+00
          1   -1    0    0  501    0  0.00000000000E+00  0.00000000000E+00  0.25953853911E+03  0.25953853911E+03  0.00000000000E+00 0. -1.
         -1   -1    0    0    0  501 -0.00000000000E+00 -0.00000000000E+00 -0.91194958459E+02  0.91194958459E+02  0.00000000000E+00 0.  1.
         25    2    1    2    0    0  0.25847239644E+02 -0.10582321855E+03  0.81360280793E+02  0.18475487262E+03  0.12509290261E+03 0.  0.
          5    1    3    3  502    0  0.37103238802E+02 -0.11266870680E+03  0.10427633846E+03  0.15799340171E+03  0.41800000000E+01 0. -1.
         -5    1    3    3    0  502 -0.11255999158E+02  0.68454882501E+01 -0.22916057664E+02  0.26761470910E+02  0.41800000000E+01 0. -1.
        -11    1    1    2    0    0 -0.17022241588E+02 -0.13049039380E+02  0.19581374245E+02  0.29042457794E+02  0.00000000000E+00 0. -1.
         11    1    1    2    0    0 -0.88249980564E+01  0.11887225794E+03  0.67401925609E+02  0.13693616715E+03  0.00000000000E+00 0.  1.
</event>
<event>
 7    1  0.2693725E-009  0.1177386E+03  0.7561462E-02  0.1246875E+00
         -1   -1    0    0    0  501 -0.00000000000E+00  0.00000000000E+00  0.36201606804E+03  0.36201606804E+03  0.00000000000E+00 0.  1.
          1   -1    0    0  501    0  0.00000000000E+00 -0.00000000000E+00 -0.50762183845E+02  0.50762183845E+02  0.00000000000E+00 0. -1.
         25    2    1    2    0    0  0.79037540168E+02  0.18431137048E+02  0.16653467644E+03  0.22353344743E+03  0.12508702608E+03 0.  0.
          5    1    3    3  502    0  0.93782431489E+02  0.25485371641E+02  0.17820085933E+03  0.20302134688E+03  0.41800000000E+01 0. -1.
         -5    1    3    3    0  502 -0.14744891321E+02 -0.70542345928E+01 -0.11666182887E+02  0.20512100549E+02  0.41800000000E+01 0. -1.
        -11    1    1    2    0    0 -0.93006927548E+02  0.59883083710E+01  0.10278126431E+03  0.13874486189E+03  0.00000000000E+00 0.  1.
         11    1    1    2    0    0  0.13969387380E+02 -0.24419445419E+02  0.41937943454E+02  0.50499942569E+02  0.00000000000E+00 0. -1.
</event>
<event>
 7    1  0.2693725E-009  0.1190893E+03  0.7561462E-02  0.1244607E+00
          1   -1    0    0  501    0  0.00000000000E+00  0.00000000000E+00  0.93486809916E+03  0.93486809916E+03  0.00000000000E+00 0. -1.
         -1   -1    0    0    0  501 -0.00000000000E+00 -0.00000000000E+00 -0.21802906990E+02  0.21802906990E+02  0.00000000000E+00 0.  1.
         25    2    1    2    0    0  0.64159582496E+02  0.61572876877E+02  0.57204855171E+03  0.59227974928E+03  0.12509230473E+03 0.  0.
          5    1    3    3  502    0  0.14439368754E+02  0.69888136270E+02  0.49483758703E+03  0.49997455625E+03  0.41800000000E+01 0. -1.
         -5    1    3    3    0  502  0.49720213742E+02 -0.83152593926E+01  0.77210964679E+02  0.92305193029E+02  0.41800000000E+01 0. -1.
        -11    1    1    2    0    0 -0.74581186212E+02 -0.25909546901E+02  0.14712053419E+03  0.16696739064E+03  0.00000000000E+00 0.  1.
         11    1    1    2    0    0  0.10421603716E+02 -0.35663329976E+02  0.19389610628E+03  0.19742386623E+03  0.00000000000E+00 0. -1.
</event>
<event>
 7    1  0.2693725E-009  0.1069013E+03  0.7561462E-02  0.1266418E+00
         -4   -1    0    0    0  501 -0.00000000000E+00  0.00000000000E+00  0.28641334263E+02  0.28641334263E+02  0.00000000000E+00 0.  1.
          4   -1    0    0  501    0  0.00000000000E+00 -0.00000000000E+00 -0.72279767161E+03  0.72279767161E+03  0.00000000000E+00 0. -1.
         25    2    1    2    0    0  0.15798555132E+02  0.83824829771E+02 -0.48095870211E+03  0.50422684909E+03  0.12508895144E+03 0.  0.
          5    1    3    3  502    0  0.45450788284E+01  0.84495349827E+02 -0.48437435017E+03  0.49172767401E+03  0.41800000000E+01 0. -1.
         -5    1    3    3    0  502  0.11253476303E+02 -0.67052005638E+00  0.34156480539E+01  0.12499175080E+02  0.41800000000E+01 0. -1.
        -11    1    1    2    0    0  0.25914236232E+02 -0.67432317961E+02 -0.17109158571E+03  0.18571751626E+03  0.00000000000E+00 0. -1.
         11    1    1    2    0    0 -0.41712791363E+02 -0.16392511810E+02 -0.42106049520E+02  0.61494640522E+02  0.00000000000E+00 0.  1.
</event>
<event>
 7    1  0.2693725E-009  0.1296464E+03  0.7561462E-02  0.1227981E+00
         -3   -1    0    0    0  501 -0.00000000000E+00  0.00000000000E+00  0.84304978848E+02  0.84304978848E+02  0.00000000000E+00 0.  1.
          3   -1    0    0  501    0  0.00000000000E+00 -0.00000000000E+00 -0.24025245751E+03  0.24025245751E+03  0.00000000000E+00 0. -1.
         25    2    1    2    0    0  0.81910493355E+02 -0.38772698790E+02 -0.11002061856E+03  0.18964703158E+03  0.12509519969E+03 0.  0.
          5    1    3    3  502    0  0.55227034996E+02 -0.82832078018E+02 -0.53632539722E+02  0.11315962292E+03  0.41800000000E+01 0.  1.
         -5    1    3    3    0  502  0.26683458360E+02  0.44059379228E+02 -0.56388078834E+02  0.76487408653E+02  0.41800000000E+01 0.  1.
        -11    1    1    2    0    0 -0.39638673168E+02 -0.12459725384E+02 -0.53852493805E+02  0.68018822808E+02  0.00000000000E+00 0. -1.
         11    1    1    2    0    0 -0.42271820187E+02  0.51232424175E+02  0.79256337021E+01  0.66891581969E+02  0.00000000000E+00 0.  1.
</event>
<event>
 7    1  0.2693725E-009  0.1129819E+03  0.7561462E-02  0.1255145E+00
         -2   -1    0    0    0  501 -0.00000000000E+00  0.00000000000E+00  0.50956066048E+02  0.50956066048E+02  0.00000000000E+00 0.  1.
          2   -1    0    0  501    0  0.00000000000E+00 -0.00000000000E+00 -0.29612014092E+03  0.29612014092E+03  0.00000000000E+00 0. -1.
         25    2    1    2    0    0  0.46307904883E+02 -0.33715561459E+02 -0.15821482552E+03  0.20966436295E+03  0.12508418340E+03 0.  0.
          5    1    3    3  502    0 -0.26608600126E+02 -0.40037026180E+02 -0.11464190949E+03  0.12438336254E+03  0.41800000000E+01 0. -1.
         -5    1    3    3    0  502  0.72916505008E+02  0.63214647217E+01 -0.43572916037E+02  0.85281000409E+02  0.41800000000E+01 0. -1.
        -11    1    1    2    0    0 -0.10296021972E+02  0.59324599869E+02 -0.63016748734E+02  0.87158056650E+02  0.00000000000E+00 0.  1.
         11    1    1    2    0    0 -0.36011882910E+02 -0.25609038410E+02 -0.23932500611E+02  0.50253787365E+02  0.00000000000E+00 0. -1.
</event>
<event>
 7    1  0.2693725E-009  0.2166807E+03  0.7561462E-02  0.1136382E+00
         -1   -1    0    0    0  501 -0.00000000000E+00  0.00000000000E+00  0.54064645265E+03  0.54064645265E+03  0.00000000000E+00 0.  1.
          1   -1    0    0  501    0  0.00000000000E+00 -0.00000000000E+00 -0.11074493751E+03  0.11074493751E+03  0.00000000000E+00 0. -1.
         25    2    1    2    0    0  0.41108850441E+01  0.20892304395E+03  0.30822499315E+03  0.39283005816E+03  0.12508825093E+03 0.  0.
          5    1    3    3  502    0 -0.19305754279E+00  0.11997321935E+03  0.71151786440E+02  0.13954805533E+03  0.41800000000E+01 0. -1.
         -5    1    3    3    0  502  0.43039425869E+01  0.88949824600E+02  0.23707320671E+03  0.25328200283E+03  0.41800000000E+01 0. -1.
        -11    1    1    2    0    0 -0.42548491107E+02 -0.10084266047E+03  0.35427400813E+02  0.11504224004E+03  0.00000000000E+00 0.  1.
         11    1    1    2    0    0  0.38437606063E+02 -0.10808038348E+03  0.86249121178E+02  0.14351909196E+03  0.00000000000E+00 0. -1.
</event>
<event>
 7    1  0.2693725E-009  0.1643019E+03  0.7561462E-02  0.1183924E+00
         -1   -1    0    0    0  501 -0.00000000000E+00  0.00000000000E+00  0.49115685127E+02  0.49115685127E+02  0.00000000000E+00 0.  1.
          1   -1    0    0  501    0  0.00000000000E+00 -0.00000000000E+00 -0.75590015704E+03  0.75590015704E+03  0.00000000000E+00 0. -1.
         25    2    1    2    0    0  0.33353027758E+02 -0.15480819888E+03 -0.38784317867E+03  0.43720804640E+03  0.12510212505E+03 0.  0.
          5    1    3    3  502    0  0.52786318230E+00 -0.51915575463E+02 -0.23446544240E+02  0.57120210538E+02  0.41800000000E+01 0.  1.
         -5    1    3    3    0  502  0.32825164576E+02 -0.10289262342E+03 -0.36439663443E+03  0.38008783586E+03  0.41800000000E+01 0.  1.
        -11    1    1    2    0    0  0.15855498264E+02  0.53634424111E+02 -0.45409125409E+02  0.72041911033E+02  0.00000000000E+00 0.  1.
         11    1    1    2    0    0 -0.49208526022E+02  0.10117377477E+03 -0.27353216783E+03  0.29576588473E+03  0.00000000000E+00 0. -1.
</event>
<event>
 7    1  0.2693725E-009  0.1121280E+03  0.7561462E-02  0.1256679E+00
         -2   -1    0    0    0  501 -0.00000000000E+00  0.00000000000E+00  0.59521262959E+02  0.59521262959E+02  0.00000000000E+00 0. -1.
          2   -1    0    0  501    0  0.00000000000E+00 -0.00000000000E+00 -0.32762469680E+03  0.32762469680E+03  0.00000000000E+00 0.  1.
         25    2    1    2    0    0 -0.79130619121E+02 -0.28929015952E+02 -0.11307262871E+03  0.18850003140E+03  0.12509316380E+03 0.  0.
          5    1    3    3  502    0 -0.19842556803E+02 -0.41704212714E+02  0.13319399210E+02  0.48247769005E+02  0.41800000000E+01 0.  1.
         -5    1    3    3    0  502 -0.59288062318E+02  0.12775196762E+02 -0.12639202792E+03  0.14025226239E+03  0.41800000000E+01 0.  1.
        -11    1    1    2    0    0  0.42507662181E+02 -0.26912539750E+02 -0.10065499585E+03  0.11252828235E+03  0.00000000000E+00 0.  1.
         11    1    1    2    0    0  0.36622956939E+02  0.55841555702E+02 -0.54375809286E+02  0.86117646007E+02  0.00000000000E+00 0. -1.
</event>
<event>
 7    1  0.2693725E-009  0.1195441E+03  0.7561462E-02  0.1243851E+00
         -1   -1    0    0    0  501 -0.00000000000E+00  0.00000000000E+00  0.14515400912E+03  0.14515400912E+03  0.00000000000E+00 0.  1.
          1   -1    0    0  501    0  0.00000000000E+00 -0.00000000000E+00 -0.14065357199E+03  0.14065357199E+03  0.00000000000E+00 0. -1.
         25    2    1    2    0    0  0.86252098399E+02 -0.82127159430E+01 -0.36210444874E+02  0.15641516027E+03  0.12509049869E+03 0.  0.
          5    1    3    3  502    0  0.11666436600E+03 -0.21521344923E+02 -0.28447985997E+02  0.12206761605E+03  0.41800000000E+01 0. -1.
         -5    1    3    3    0  502 -0.30412267601E+02  0.13308628980E+02 -0.77624588765E+01  0.34347544218E+02  0.41800000000E+01 0. -1.
        -11    1    1    2    0    0 -0.38080026268E+02  0.14795988867E+00  0.64624810927E+02  0.75009842555E+02  0.00000000000E+00 0.  1.
         11    1    1    2    0    0 -0.48172072131E+02  0.80647560544E+01 -0.23913928923E+02  0.54382578277E+02  0.00000000000E+00 0. -1.
</event>
<event>
 7    1  0.2693725E-009  0.1093531E+03  0.7561462E-02  0.1261772E+00
          1   -1    0    0  501    0  0.00000000000E+00  0.00000000000E+00  0.19125786130E+03  0.19125786130E+03  0.00000000000E+00 0. -1.
         -1   -1    0    0    0  501 -0.00000000000E+00 -0.00000000000E+00 -0.90072993541E+02  0.90072993541E+02  0.00000000000E+00 0.  1.
         25    2    1    2    0    0  0.48314486352E+02  0.43468892693E+02  0.91462917551E+02  0.16803877188E+03  0.12509088434E+03 0.  0.
          5    1    3    3  502    0  0.54268719572E+02  0.80383249913E+02  0.41703481955E+02  0.10565611008E+03  0.41800000000E+01 0. -1.
         -5    1    3    3    0  502 -0.59542332193E+01 -0.36914357220E+02  0.49759435596E+02  0.62382661798E+02  0.41800000000E+01 0. -1.
        -11    1    1    2    0    0 -0.46332406414E+02 -0.55222533882E+02 -0.25222927584E+02  0.76370257355E+02  0.00000000000E+00 0.  1.
         11    1    1    2    0    0 -0.19820799381E+01  0.11753641190E+02  0.34944877792E+02  0.36921825605E+02  0.00000000000E+00 0. -1.
</event>
<event>
 7    1  0.2693725E-009  0.1067655E+03  0.7561462E-02  0.1266680E+00
         -2   -1    0    0    0  501 -0.00000000000E+00  0.00000000000E+00  0.81244267672E+03  0.81244267672E+03  0.00000000000E+00 0.  1.
          2   -1    0    0  501    0  0.00000000000E+00 -0.00000000000E+00 -0.18288194414E+02  0.18288194414E+02  0.00000000000E+00 0. -1.
         25    2    1    2    0    0  0.49671713494E+02 -0.30523128500E+02  0.44932698512E+03  0.47004468334E+03  0.12509326236E+03 0.  0.
          5    1    3    3  502    0  0.36112786808E+02  0.29255102806E+02  0.35108880696E+03  0.35417625159E+03  0.41800000000E+01 0.  1.
         -5    1    3    3    0  502  0.13558926686E+02 -0.59778231307E+02  0.98238178153E+02  0.11586843176E+03  0.41800000000E+01 0.  1.
        -11    1    1    2    0    0 -0.31690452576E+02 -0.29178827560E+02  0.15545492994E+03  0.16131312409E+03  0.00000000000E+00 0.  1.
         11    1    1    2    0    0 -0.17981260918E+02  0.59701956060E+02  0.18937256725E+03  0.19937306370E+03  0.00000000000E+00 0. -1.
</event>
<event>
 7    1  0.2693725E-009  0.1058453E+03  0.7561462E-02  0.1268463E+00
         -1   -1    0    0    0  501 -0.00000000000E+00  0.00000000000E+00  0.18757273596E+03  0.18757273596E+03  0.00000000000E+00 0.  1.
          1   -1    0    0  501    0  0.00000000000E+00 -0.00000000000E+00 -0.86117775871E+02  0.86117775871E+02  0.00000000000E+00 0. -1.
         25    2    1    2    0    0  0.20792415973E+01 -0.63388815608E+02  0.93803635671E+02  0.16872854298E+03  0.12509090279E+03 0.  0.
          5    1    3    3  502    0 -0.22900782018E+02 -0.79783026198E+02  0.15139956565E+02  0.84477616983E+02  0.41800000000E+01 0. -1.
         -5    1    3    3    0  502  0.24980023615E+02  0.16394210590E+02  0.78663679107E+02  0.84250925997E+02  0.41800000000E+01 0. -1.
        -11    1    1    2    0    0 -0.17652491619E+02  0.76216672288E+02  0.20709394588E+02  0.80928799690E+02  0.00000000000E+00 0.  1.
         11    1    1    2    0    0  0.15573250022E+02 -0.12827856680E+02 -0.13058070172E+02  0.24033169160E+02  0.00000000000E+00 0. -1.
</event>
<event>
 7    1  0.2693725E-009  0.8007548E+02  0.7561462E-02  0.1328837E+00
         -1   -1    0    0    0  501 -0.00000000000E+00  0.00000000000E+00  0.20604051991E+03  0.20604051991E+03  0.00000000000E+00 0.  1.
          1   -1    0    0  501    0  0.00000000000E+00 -0.00000000000E+00 -0.88534339156E+02  0.88534339156E+02  0.00000000000E+00 0. -1.
         25    2    1    2    0    0  0.67211593704E+02 -0.31873032354E+02  0.93002698414E+02  0.17271367148E+03  0.12508885596E+03 0.  0.
          5    1    3    3  502    0  0.44776805522E+01 -0.10678429812E+02 -0.30293168426E+02  0.32699035761E+02  0.41800000000E+01 0.  1.
         -5    1    3    3    0  502  0.62733913152E+02 -0.21194602542E+02  0.12329586684E+03  0.14001463572E+03  0.41800000000E+01 0.  1.
        -11    1    1    2    0    0 -0.24667428684E+02 -0.50264205439E+01 -0.32912365536E+02  0.41436345719E+02  0.00000000000E+00 0. -1.
         11    1    1    2    0    0 -0.42544165020E+02  0.36899452898E+02  0.57415847871E+02  0.80424841860E+02  0.00000000000E+00 0.  1.
</event>
<event>
 7    1  0.2693725E-009  0.4482605E+02  0.7561462E-02  0.1475431E+00
          1   -1    0    0  501    0  0.00000000000E+00  0.00000000000E+00  0.78901425484E+02  0.78901425484E+02  0.00000000000E+00 0. -1.
         -1   -1    0    0    0  501 -0.00000000000E+00 -0.00000000000E+00 -0.17976809129E+03  0.17976809129E+03  0.00000000000E+00 0.  1.
         25    2    1    2    0    0  0.16171149118E+02  0.16206577014E+02 -0.10314828071E+03  0.16374046461E+03  0.12508881938E+03 0.  0.
          5    1    3    3  502    0 -0.91593704638E+01  0.74968346634E+01 -0.12700752385E+03  0.12762633001E+03  0.41800000000E+01 0. -1.
         -5    1    3    3    0  502  0.25330519582E+02  0.87097423501E+01  0.23859243142E+02  0.36114134593E+02  0.41800000000E+01 0. -1.
        -11    1    1    2    0    0 -0.28323199711E+02 -0.22621136130E+02 -0.37911524724E+02  0.52451912726E+02  0.00000000000E+00 0.  1.
         11    1    1    2    0    0  0.12152050593E+02  0.64145591169E+01  0.40193139627E+02  0.42477139444E+02  0.00000000000E+00 0. -1.
</event>
<event>
 7    1  0.2693725E-009  0.1096117E+03  0.7561462E-02  0.1261291E+00
          1   -1    0    0  501    0  0.00000000000E+00  0.00000000000E+00  0.62124182271E+03  0.62124182271E+03  0.00000000000E+00 0. -1.
         -1   -1    0    0    0  501 -0.00000000000E+00 -0.00000000000E+00 -0.25782017768E+02  0.25782017768E+02  0.00000000000E+00 0.  1.
         25    2    1    2    0    0  0.25945898462E+02 -0.16681502359E+02  0.18855033349E+03  0.22836291785E+03  0.12508769651E+03 0.  0.
          5    1    3    3  502    0  0.70458827678E+02 -0.35370439161E+02  0.13281044192E+03  0.15450436967E+03  0.41800000000E+01 0.  1.
         -5    1    3    3    0  502 -0.44512929216E+02  0.18688936802E+02  0.55739891567E+02  0.73858548172E+02  0.41800000000E+01 0.  1.
        -11    1    1    2    0    0 -0.13342170088E+02 -0.35610031980E+02  0.98303571252E+02  0.10540246677E+03  0.00000000000E+00 0.  1.
         11    1    1    2    0    0 -0.12603728374E+02  0.52291534340E+02  0.30860590020E+03  0.31325845586E+03  0.00000000000E+00 0. -1.
</event>
<event>
 7    1  0.2693725E-009  0.1282743E+03  0.7561462E-02  0.1230039E+00
          2   -1    0    0  501    0  0.00000000000E+00  0.00000000000E+00  0.75118874883E+03  0.75118874883E+03  0.00000000000E+00 0. -1.
         -2   -1    0    0    0  501 -0.00000000000E+00 -0.00000000000E+00 -0.31595051807E+02  0.31595051807E+02  0.00000000000E+00 0.  1.
         25    2    1    2    0    0  0.94997938647E+02  0.14180157412E+02  0.55588978479E+03  0.57782889552E+03  0.12508834662E+03 0.  0.
          5    1    3    3  502    0  0.62519668423E+02  0.58649318852E+02  0.45296641915E+03  0.46102548825E+03  0.41800000000E+01 0. -1.
         -5    1    3    3    0  502  0.32478270224E+02 -0.44469161440E+02  0.10292336564E+03  0.11680340727E+03  0.41800000000E+01 0. -1.
        -11    1    1    2    0    0 -0.12909796235E+02  0.22222904647E+02  0.72686398791E+02  0.77096257360E+02  0.00000000000E+00 0. -1.
         11    1    1    2    0    0 -0.82088142412E+02 -0.36403062058E+02  0.91017513451E+02  0.12785864776E+03  0.00000000000E+00 0.  1.
</event>
<event>
 7    1  0.2693725E-009  0.1712172E+03  0.7561462E-02  0.1176584E+00
          1   -1    0    0  501    0  0.00000000000E+00  0.00000000000E+00  0.12203063221E+04  0.12203063221E+04  0.00000000000E+00 0. -1.
         -1   -1    0    0    0  501 -0.00000000000E+00 -0.00000000000E+00 -0.33469217967E+02  0.33469217967E+02  0.00000000000E+00 0.  1.
         25    2    1    2    0    0 -0.14879937470E+03 -0.63079602389E+01  0.36433859127E+03  0.41300480655E+03  0.12509722968E+03 0.  0.
          5    1    3    3  502    0 -0.38185552363E+02  0.33105614837E+02  0.30698554080E+02  0.59278931887E+02  0.41800000000E+01 0.  1.
         -5    1    3    3    0  502 -0.11061382234E+03 -0.39413575076E+02  0.33364003719E+03  0.35372587467E+03  0.41800000000E+01 0.  1.
        -11    1    1    2    0    0  0.11312074678E+03  0.44863492574E+02  0.58792247439E+03  0.60038477013E+03  0.00000000000E+00 0. -1.
         11    1    1    2    0    0  0.35678627921E+02 -0.38555532335E+02  0.23457603851E+03  0.24038596341E+03  0.00000000000E+00 0.  1.
</event>
<event>
 7    1  0.2693725E-009  0.9032066E+02  0.7561462E-02  0.1302077E+00
         -2   -1    0    0    0  501 -0.00000000000E+00  0.00000000000E+00  0.17329843773E+03  0.17329843773E+03  0.00000000000E+00 0.  1.
          2   -1    0    0  501    0  0.00000000000E+00 -0.00000000000E+00 -0.18555171193E+03  0.18555171193E+03  0.00000000000E+00 0. -1.
         25    2    1    2    0    0  0.12349529800E+02 -0.74908250617E+00 -0.14843786253E+03  0.19451317827E+03  0.12509398657E+03 0.  0.
          5    1    3    3  502    0  0.61440211565E+02  0.70823763874E+01 -0.36435845755E+02  0.71903427653E+02  0.41800000000E+01 0.  1.
         -5    1    3    3    0  502 -0.49090681765E+02 -0.78314588935E+01 -0.11200201677E+03  0.12260975061E+03  0.41800000000E+01 0.  1.
        -11    1    1    2    0    0 -0.36928869206E+02 -0.14686542113E+02  0.12822286568E+03  0.13424060184E+03  0.00000000000E+00 0.  1.
         11    1    1    2    0    0  0.24579339407E+02  0.15435624619E+02  0.79617226447E+01  0.30096369557E+02  0.00000000000E+00 0. -1.
</event>
<event>
 7    1  0.2693725E-009  0.9494194E+02  0.7561462E-02  0.1291307E+00
         -2   -1    0    0    0  501 -0.00000000000E+00  0.00000000000E+00  0.55421944470E+03  0.55421944470E+03  0.00000000000E+00 0.  1.
          2   -1    0    0  501    0  0.00000000000E+00 -0.00000000000E+00 -0.27705943967E+02  0.27705943967E+02  0.00000000000E+00 0. -1.
         25    2    1    2    0    0 -0.11148797595E+02 -0.63903506423E+01  0.43416926501E+03  0.45201236123E+03  0.12508833581E+03 0.  0.
          5    1    3    3  502    0 -0.66620326008E+02 -0.43185010268E+01  0.28633872096E+03  0.29404804507E+03  0.41800000000E+01 0. -1.
         -5    1    3    3    0  502  0.55471528413E+02 -0.20718496155E+01  0.14783054405E+03  0.15796431616E+03  0.41800000000E+01 0. -1.
        -11    1    1    2    0    0  0.24448861459E+02  0.30922483719E+02  0.94027857230E+02  0.10195677889E+03  0.00000000000E+00 0.  1.
         11    1    1    2    0    0 -0.13300063865E+02 -0.24532133076E+02 -0.16836214999E+01  0.27956248558E+02  0.00000000000E+00 0. -1.
</event>
<event>
 7    1  0.2693725E-009  0.1610516E+03  0.7561462E-02  0.1187515E+00
         -2   -1    0    0    0  501 -0.00000000000E+00  0.00000000000E+00  0.64789045830E+02  0.64789045830E+02  0.00000000000E+00 0.  1.
          2   -1    0    0  501    0  0.00000000000E+00 -0.00000000000E+00 -0.57690744784E+03  0.57690744784E+03  0.00000000000E+00 0. -1.
         25    2    1    2    0    0  0.28716941720E+02 -0.14898622514E+03 -0.34438619133E+03  0.39657312463E+03  0.12508731500E+03 0.  0.
          5    1    3    3  502    0  0.11864450737E+02 -0.13682808146E+03 -0.34882906627E+03  0.37491582915E+03  0.41800000000E+01 0.  1.
         -5    1    3    3    0  502  0.16852490984E+02 -0.12158143678E+02  0.44428749354E+01  0.21657295485E+02  0.41800000000E+01 0.  1.
        -11    1    1    2    0    0 -0.41579477879E+02  0.56638480254E+02 -0.24883739156E+02  0.74538385417E+02  0.00000000000E+00 0.  1.
         11    1    1    2    0    0  0.12862536159E+02  0.92347744889E+02 -0.14284847152E+03  0.17058498362E+03  0.00000000000E+00 0. -1.
</event>
<event>
 7    1  0.2693725E-009  0.1821137E+03  0.7561462E-02  0.1165773E+00
         -2   -1    0    0    0  501 -0.00000000000E+00  0.00000000000E+00  0.11790581880E+03  0.11790581880E+03  0.00000000000E+00 0.  1.
          2   -1    0    0  501    0  0.00000000000E+00 -0.00000000000E+00 -0.44391490627E+03  0.44391490627E+03  0.00000000000E+00 0. -1.
         25    2    1    2    0    0  0.12043866532E+03  0.11492269473E+03 -0.30754477655E+03  0.37140899088E+03  0.12509256994E+03 0.  0.
          5    1    3    3  502    0  0.12467295778E+03  0.11344903506E+03 -0.19130638049E+03  0.25500908528E+03  0.41800000000E+01 0.  1.
         -5    1    3    3    0  502 -0.42342924641E+01  0.14736596698E+01 -0.11623839606E+03  0.11639990560E+03  0.41800000000E+01 0.  1.
        -11    1    1    2    0    0 -0.84221413083E+02 -0.18151934851E+02 -0.66259974303E+01  0.86409739049E+02  0.00000000000E+00 0.  1.
         11    1    1    2    0    0 -0.36217252233E+02 -0.96770759882E+02 -0.11838313481E+02  0.10400199514E+03  0.00000000000E+00 0. -1.
</event>
<event>
 7    1  0.2693725E-009  0.6515294E+02  0.7561462E-02  0.1377397E+00
         -1   -1    0    0    0  501 -0.00000000000E+00  0.00000000000E+00  0.11533138729E+04  0.11533138729E+04  0.00000000000E+00 0.  1.
          1   -1    0    0  501    0  0.00000000000E+00 -0.00000000000E+00 -0.12692718324E+02  0.12692718324E+02  0.00000000000E+00 0. -1.
         25    2    1    2    0    0 -0.13974686683E+02 -0.13698959542E+02  0.94946294525E+03  0.95786715940E+03  0.12508659919E+03 0.  0.
          5    1    3    3  502    0 -0.11374772255E+02  0.24727359906E+02  0.46274173090E+02  0.53847927230E+02  0.41800000000E+01 0. -1.
         -5    1    3    3    0  502 -0.25999144280E+01 -0.38426319447E+02  0.90318877216E+03  0.90401923217E+03  0.41800000000E+01 0. -1.
        -11    1    1    2    0    0  0.36530456171E+02  0.18529370639E+02  0.17560416153E+03  0.18031814482E+03  0.00000000000E+00 0.  1.
         11    1    1    2    0    0 -0.22555769488E+02 -0.48304110978E+01  0.15554047831E+02  0.27821287039E+02  0.00000000000E+00 0. -1.
</event>
<event>
 7    1  0.2693725E-009  0.9193779E+02  0.7561462E-02  0.1298226E+00
          1   -1    0    0  501    0  0.00000000000E+00  0.00000000000E+00  0.18982462830E+03  0.18982462830E+03  0.00000000000E+00 0. -1.
         -1   -1    0    0    0  501 -0.00000000000E+00 -0.00000000000E+00 -0.67120096508E+02  0.67120096508E+02  0.00000000000E+00 0.  1.
         25    2    1    2    0    0 -0.31044525412E+02  0.21496079307E+01  0.79102250262E+02  0.15123436878E+03  0.12508511075E+03 0.  0.
          5    1    3    3  502    0  0.12176854536E+02 -0.50113173115E+02  0.70871819277E+01  0.52223619692E+02  0.41800000000E+01 0. -1.
         -5    1    3    3    0  502 -0.43221379948E+02  0.52262781046E+02  0.72015068334E+02  0.99010749085E+02  0.41800000000E+01 0. -1.
        -11    1    1    2    0    0  0.13747579700E+02  0.26996148694E+02  0.60632958080E+02  0.67780112108E+02  0.00000000000E+00 0. -1.
         11    1    1    2    0    0  0.17296945712E+02 -0.29145756625E+02 -0.17030676550E+02  0.37930243921E+02  0.00000000000E+00 0.  1.
</event>
<event>
 7    1  0.2693725E-009  0.8508729E+02  0.7561462E-02  0.1315204E+00
         -2   -1    0    0    0  501 -0.00000000000E+00  0.00000000000E+00  0.28762196966E+03  0.28762196966E+03  0.00000000000E+00 0.  1.
          2   -1    0    0  501    0  0.00000000000E+00 -0.00000000000E+00 -0.57524167807E+02  0.57524167807E+02  0.00000000000E+00 0. -1.
         25    2    1    2    0    0 -0.37698854204E+02 -0.50510387551E+02  0.16562257289E+03  0.21691122219E+03  0.12508852386E+03 0.  0.
          5    1    3    3  502    0 -0.27638834918E+02  0.77582513931E+01  0.15374089249E+03  0.15645392320E+03  0.41800000000E+01 0.  1.
         -5    1    3    3    0  502 -0.10060019286E+02 -0.58268638944E+02  0.11881680399E+02  0.60457298993E+02  0.41800000000E+01 0.  1.
        -11    1    1    2    0    0  0.67593508427E+01  0.50496651000E+02  0.79041438397E+02  0.94038021938E+02  0.00000000000E+00 0.  1.
         11    1    1    2    0    0  0.30939503362E+02  0.13736550543E-01 -0.14566209432E+02  0.34196893341E+02  0.00000000000E+00 0. -1.
</event>
<event>
 7    1  0.2693725E-009  0.8645908E+02  0.7561462E-02  0.1311660E+00
          1   -1    0    0  501    0  0.00000000000E+00  0.00000000000E+00  0.13569196220E+03  0.13569196220E+03  0.00000000000E+00 0. -1.
         -1   -1    0    0    0  501 -0.00000000000E+00 -0.00000000000E+00 -0.12324429775E+03  0.12324429775E+03  0.00000000000E+00 0.  1.
         25    2    1    2    0    0 -0.29161470858E+01  0.71479768459E+02 -0.25151015485E+02  0.14628287775E+03  0.12509294756E+03 0.  0.
          5    1    3    3  502    0  0.13742951060E+02  0.74159236066E+02 -0.66998228870E+02  0.10096878760E+03  0.41800000000E+01 0.  1.
         -5    1    3    3    0  502 -0.16659098146E+02 -0.26794676072E+01  0.41847213385E+02  0.45314090146E+02  0.41800000000E+01 0.  1.
        -11    1    1    2    0    0 -0.14841439764E+02 -0.49847463695E+02  0.58086555428E+02  0.77968492948E+02  0.00000000000E+00 0. -1.
         11    1    1    2    0    0  0.17757586850E+02 -0.21632304764E+02 -0.20487875495E+02  0.34684889252E+02  0.00000000000E+00 0.  1.
</event>
<event>
 7    1  0.2693725E-009  0.1029960E+03  0.7561462E-02  0.1274119E+00
          1   -1    0    0  501    0  0.00000000000E+00  0.00000000000E+00  0.28970304768E+03  0.28970304768E+03  0.00000000000E+00 0. -1.
         -1   -1    0    0    0  501 -0.00000000000E+00 -0.00000000000E+00 -0.44594795318E+02  0.44594795318E+02  0.00000000000E+00 0.  1.
         25    2    1    2    0    0 -0.94804372143E+01  0.22818230840E+02  0.16915658939E+03  0.21181840308E+03  0.12507011554E+03 0.  0.
          5    1    3    3  502    0 -0.59799468141E+02 -0.16874774464E+02  0.70148431710E+02  0.93803034463E+02  0.41800000000E+01 0. -1.
         -5    1    3    3    0  502  0.50319030927E+02  0.39693005304E+02  0.99008157675E+02  0.11801536862E+03  0.41800000000E+01 0. -1.
        -11    1    1    2    0    0  0.54192945461E+00  0.27943004360E+02 -0.30888351794E+01  0.28118429597E+02  0.00000000000E+00 0.  1.
         11    1    1    2    0    0  0.89385077597E+01 -0.50761235201E+02  0.79040498159E+02  0.94361010323E+02  0.00000000000E+00 0. -1.
</event>
<event>
 7    1  0.2693725E-009  0.1020304E+03  0.7561462E-02  0.1276083E+00
          2   -1    0    0  501    0  0.00000000000E+00  0.00000000000E+00  0.40141270248E+03  0.40141270248E+03  0.00000000000E+00 0. -1.
         -2   -1    0    0    0  501 -0.00000000000E+00 -0.00000000000E+00 -0.54920071213E+02  0.54920071213E+02  0.00000000000E+00 0.  1.
         25    2    1    2    0    0  0.37860351678E+01  0.64667241387E+02  0.30925014242E+03  0.33982217296E+03  0.12508905818E+03 0.  0.
          5    1    3    3  502    0 -0.19464223762E+02 -0.57226237473E+01 -0.10714104375E+01  0.20741859838E+02  0.41800000000E+01 0. -1.
         -5    1    3    3    0  502  0.23250258929E+02  0.70389865135E+02  0.31032155285E+03  0.31908031312E+03  0.41800000000E+01 0. -1.
        -11    1    1    2    0    0  0.21487907012E+02 -0.77732186538E+02  0.19469174577E+02  0.82964279846E+02  0.00000000000E+00 0.  1.
         11    1    1    2    0    0 -0.25273942179E+02  0.13064945150E+02  0.17773314275E+02  0.33546320892E+02  0.00000000000E+00 0. -1.
</event>
<event>
 7    1  0.2693725E-009  0.1833687E+03  0.7561462E-02  0.1164582E+00
          2   -1    0    0  501    0  0.00000000000E+00  0.00000000000E+00  0.45324168597E+03  0.45324168597E+03  0.00000000000E+00 0. -1.
         -2   -1    0    0    0  501 -0.00000000000E+00 -0.00000000000E+00 -0.94587812709E+02  0.94587812709E+02  0.00000000000E+00 0.  1.
         25    2    1    2    0    0  0.67311861816E+02 -0.16011282024E+03  0.22035062791E+03  0.30719453045E+03  0.12508828232E+03 0.  0.
          5    1    3    3  502    0  0.69493972157E+02 -0.15997399857E+03  0.13214453385E+03  0.21886238282E+03  0.41800000000E+01 0. -1.
         -5    1    3    3    0  502 -0.21821103410E+01 -0.13882166680E+00  0.88206094058E+02  0.88332147636E+02  0.41800000000E+01 0. -1.
        -11    1    1    2    0    0 -0.72125492291E+01  0.10731301808E+03  0.42063826246E+02  0.11548796558E+03  0.00000000000E+00 0.  1.
         11    1    1    2    0    0 -0.60099312587E+02  0.52799802163E+02  0.96239419110E+02  0.12514700265E+03  0.00000000000E+00 0. -1.
</event>
<event>
 7    1  0.2693725E-009  0.1180933E+03  0.7561462E-02  0.1246276E+00
         -2   -1    0    0    0  501 -0.00000000000E+00  0.00000000000E+00  0.11634760229E+03  0.11634760229E+03  0.00000000000E+00 0.  1.
          2   -1    0    0  501    0  0.00000000000E+00 -0.00000000000E+00 -0.14576072645E+03  0.14576072645E+03  0.00000000000E+00 0. -1.
         25    2    1    2    0    0 -0.55528656383E+02  0.47913676141E+02 -0.17507821132E+02  0.14605981315E+03  0.12509113948E+03 0.  0.
          5    1    3    3  502    0  0.26308331404E+02  0.47356498739E+02 -0.31683159156E+02  0.62897227667E+02  0.41800000000E+01 0.  1.
         -5    1    3    3    0  502 -0.81836987787E+02  0.55717740174E+00  0.14175338024E+02  0.83162585486E+02  0.41800000000E+01 0.  1.
        -11    1    1    2    0    0  0.52690270638E+02 -0.64382580874E+02 -0.32682745032E+02  0.89384244488E+02  0.00000000000E+00 0. -1.
         11    1    1    2    0    0  0.28383857444E+01  0.16468904733E+02  0.20777442003E+02  0.26664271093E+02  0.00000000000E+00 0.  1.
</event>
<event>
 7    1  0.2693725E-009  0.8678717E+02  0.7561462E-02  0.1310824E+00
          2   -1    0    0  501    0  0.00000000000E+00  0.00000000000E+00  0.72268817630E+03  0.72268817630E+03  0.00000000000E+00 0. -1.
         -2   -1    0    0    0  501 -0.00000000000E+00 -0.00000000000E+00 -0.18513846636E+02  0.18513846636E+02  0.00000000000E+00 0.  1.
         25    2    1    2    0    0  0.19721567479E+02  0.28657243731E+02  0.44030035843E+03  0.45904396879E+03  0.12508709686E+03 0.  0.
          5    1    3    3  502    0  0.42269329257E+02  0.28747596448E+02  0.43141111046E+03  0.43444923654E+03  0.41800000000E+01 0.  1.
         -5    1    3    3    0  502 -0.22547761778E+02 -0.90352716662E-01  0.88892479671E+01  0.24594732246E+02  0.41800000000E+01 0.  1.
        -11    1    1    2    0    0 -0.56557035126E+02 -0.79985581529E+01  0.16630441066E+03  0.17584035987E+03  0.00000000000E+00 0.  1.
         11    1    1    2    0    0  0.36835467647E+02 -0.20658685578E+02  0.97569560568E+02  0.10631769428E+03  0.00000000000E+00 0. -1.
</event>
<event>
 7    1  0.2693725E-009  0.1240457E+03  0.7561462E-02  0.1236568E+00
          3   -1    0    0  501    0  0.00000000000E+00  0.00000000000E+00  0.33082511333E+02  0.33082511333E+02  0.00000000000E+00 0. -1.
         -3   -1    0    0    0  501 -0.00000000000E+00 -0.00000000000E+00 -0.48663717364E+03  0.48663717364E+03  0.00000000000E+00 0.  1.
         25    2    1    2    0    0  0.45685807680E+02 -0.60534817528E+02 -0.21992622351E+03  0.26413412094E+03  0.12509049883E+03 0.  0.
          5    1    3    3  502    0  0.24384909289E+02  0.37338524783E+02 -0.52736252541E+02  0.69190851751E+02  0.41800000000E+01 0.  1.
         -5    1    3    3    0  502  0.21300898391E+02 -0.97873342311E+02 -0.16718997097E+03  0.19494326919E+03  0.41800000000E+01 0.  1.
        -11    1    1    2    0    0 -0.48343602784E+02  0.63043641324E+01 -0.96961973388E+02  0.10852867465E+03  0.00000000000E+00 0. -1.
         11    1    1    2    0    0  0.26577951039E+01  0.54230453396E+02 -0.13666646540E+03  0.14705688939E+03  0.00000000000E+00 0.  1.
</event>
<event>
 7    1  0.2693725E-009  0.1840010E+03  0.7561462E-02  0.1163986E+00
          2   -1    0    0  501    0  0.00000000000E+00  0.00000000000E+00  0.72944206182E+02  0.72944206182E+02  0.00000000000E+00 0. -1.
         -2   -1    0    0    0  501 -0.00000000000E+00 -0.00000000000E+00 -0.66843718030E+03  0.66843718030E+03  0.00000000000E+00 0.  1.
         25    2    1    2    0    0  0.15715350344E+03 -0.82145465801E+02 -0.43279504771E+03  0.48415254744E+03  0.12508810765E+03 0.  0.
          5    1    3    3  502    0  0.11457807322E+03 -0.42338906188E+02 -0.39754378290E+03  0.41590774165E+03  0.41800000000E+01 0. -1.
         -5    1    3    3    0  502  0.42575430219E+02 -0.39806559613E+02 -0.35251264803E+02  0.68244805786E+02  0.41800000000E+01 0. -1.
        -11    1    1    2    0    0 -0.97591155956E+02  0.16975464412E+02 -0.12919170002E+03  0.16279648481E+03  0.00000000000E+00 0.  1.
         11    1    1    2    0    0 -0.59562347486E+02  0.65170001389E+02 -0.33506226392E+02  0.94432354234E+02  0.00000000000E+00 0. -1.
</event>
<event>
 7    1  0.2693725E-009  0.3251124E+03  0.7561462E-02  0.1073320E+00
          1   -1    0    0  501    0  0.00000000000E+00  0.00000000000E+00  0.25873035834E+03  0.25873035834E+03  0.00000000000E+00 0. -1.
         -1   -1    0    0    0  501 -0.00000000000E+00 -0.00000000000E+00 -0.45608557062E+03  0.45608557062E+03  0.00000000000E+00 0.  1.
         25    2    1    2    0    0 -0.27085415385E+03  0.14672690455E+03  0.97943415214E+01  0.33261614120E+03  0.12508721390E+03 0.  0.
          5    1    3    3  502    0 -0.18885310662E+03  0.15901055981E+03  0.25127186551E+02  0.24819085784E+03  0.41800000000E+01 0.  1.
         -5    1    3    3    0  502 -0.82001047238E+02 -0.12283655255E+02 -0.15332845030E+02  0.84425283365E+02  0.41800000000E+01 0.  1.
        -11    1    1    2    0    0  0.14732569850E+03 -0.12836307745E+03 -0.14024509818E+03  0.24052157628E+03  0.00000000000E+00 0.  1.
         11    1    1    2    0    0  0.12352845536E+03 -0.18363827108E+02 -0.66904455622E+02  0.14167821149E+03  0.00000000000E+00 0. -1.
</event>
<event>
 7    1  0.2693725E-009  0.1845759E+03  0.7561462E-02  0.1163446E+00
         -2   -1    0    0    0  501 -0.00000000000E+00  0.00000000000E+00  0.12597689672E+04  0.12597689672E+04  0.00000000000E+00 0.  1.
          2   -1    0    0  501    0  0.00000000000E+00 -0.00000000000E+00 -0.35626824135E+02  0.35626824135E+02  0.00000000000E+00 0. -1.
         25    2    1    2    0    0  0.15576274424E+03  0.93325980989E+02  0.63610617293E+03  0.67323880181E+03  0.12509056640E+03 0.  0.
          5    1    3    3  502    0  0.93834857458E+01 -0.41003847363E+01 -0.20836064083E+01  0.11255077760E+02  0.41800000000E+01 0.  1.
         -5    1    3    3    0  502  0.14637925849E+03  0.97426365725E+02  0.63818977934E+03  0.66198372405E+03  0.41800000000E+01 0.  1.
        -11    1    1    2    0    0 -0.30811927851E+02 -0.11721119431E+02  0.30216755469E+02  0.44719255916E+02  0.00000000000E+00 0. -1.
         11    1    1    2    0    0 -0.12495081638E+03 -0.81604861558E+02  0.55781921465E+03  0.57743773359E+03  0.00000000000E+00 0.  1.
</event>
<event>
 7    1  0.2693725E-009  0.1248386E+03  0.7561462E-02  0.1235322E+00
          1   -1    0    0  501    0  0.00000000000E+00  0.00000000000E+00  0.13002662335E+03  0.13002662335E+03  0.00000000000E+00 0. -1.
         -1   -1    0    0    0  501 -0.00000000000E+00 -0.00000000000E+00 -0.12331572972E+03  0.12331572972E+03  0.00000000000E+00 0.  1.
         25    2    1    2    0    0  0.56074509816E+02  0.30881636509E+02 -0.28122068042E+01  0.14054843794E+03  0.12509168148E+03 0.  0.
          5    1    3    3  502    0 -0.22484941144E+02  0.51165592159E+02 -0.15903382513E+02  0.58257019960E+02  0.41800000000E+01 0.  1.
         -5    1    3    3    0  502  0.78559450961E+02 -0.20283955651E+02  0.13091175709E+02  0.82291417982E+02  0.41800000000E+01 0.  1.
        -11    1    1    2    0    0 -0.55385623332E+02  0.21932950562E+02  0.47294342657E+01  0.59757753812E+02  0.00000000000E+00 0. -1.
         11    1    1    2    0    0 -0.68888648452E+00 -0.52814587071E+02  0.47936661708E+01  0.53036161318E+02  0.00000000000E+00 0.  1.
</event>
<event>
 7    1  0.2693725E-009  0.5422785E+02  0.7561462E-02  0.1423786E+00
         -1   -1    0    0    0  501 -0.00000000000E+00  0.00000000000E+00  0.15085257110E+03  0.15085257110E+03  0.00000000000E+00 0.  1.
          1   -1    0    0  501    0  0.00000000000E+00 -0.00000000000E+00 -0.95602244219E+02  0.95602244219E+02  0.00000000000E+00 0. -1.
         25    2    1    2    0    0 -0.37540425725E+02 -0.36106369004E+02  0.29162371168E+02  0.13860322922E+03  0.12508979899E+03 0.  0.
          5    1    3    3  502    0 -0.33024168367E+02 -0.21705301392E+02 -0.46597600498E+02  0.61241526573E+02  0.41800000000E+01 0. -1.
         -5    1    3    3    0  502 -0.45162573578E+01 -0.14401067613E+02  0.75759971666E+02  0.77361702643E+02  0.41800000000E+01 0. -1.
        -11    1    1    2    0    0  0.11069823573E+02  0.48194582409E+01  0.55889784919E+02  0.57178984163E+02  0.00000000000E+00 0.  1.
         11    1    1    2    0    0  0.26470602152E+02  0.31286910764E+02 -0.29801829206E+02  0.50672601940E+02  0.00000000000E+00 0. -1.
</event>
<event>
 7    1  0.2693725E-009  0.1101312E+03  0.7561462E-02  0.1260327E+00
         -4   -1    0    0    0  501 -0.00000000000E+00  0.00000000000E+00  0.18019010488E+03  0.18019010488E+03  0.00000000000E+00 0. -1.
          4   -1    0    0  501    0  0.00000000000E+00 -0.00000000000E+00 -0.70225842142E+02  0.70225842142E+02  0.00000000000E+00 0.  1.
         25    2    1    2    0    0 -0.20178358657E+02  0.24860929445E+02  0.82929253299E+02  0.15345938488E+03  0.12508912736E+03 0.  0.
          5    1    3    3  502    0  0.16486541242E+02  0.68905173103E+02  0.53651184434E+02  0.88969943878E+02  0.41800000000E+01 0. -1.
         -5    1    3    3    0  502 -0.36664899899E+02 -0.44044243658E+02  0.29278068865E+02  0.64489441000E+02  0.41800000000E+01 0. -1.
        -11    1    1    2    0    0  0.79652105179E+01 -0.56944718902E+02  0.24600460898E+02  0.62540612931E+02  0.00000000000E+00 0.  1.
         11    1    1    2    0    0  0.12213148139E+02  0.32083789457E+02  0.24345485380E+01  0.34415949209E+02  0.00000000000E+00 0. -1.
</event>
<event>
 7    1  0.2693725E-009  0.1314011E+03  0.7561462E-02  0.1225391E+00
          1   -1    0    0  501    0  0.00000000000E+00  0.00000000000E+00  0.24205112188E+03  0.24205112188E+03  0.00000000000E+00 0. -1.
         -1   -1    0    0    0  501 -0.00000000000E+00 -0.00000000000E+00 -0.11037125186E+03  0.11037125186E+03  0.00000000000E+00 0.  1.
         25    2    1    2    0    0  0.97753404674E+02 -0.23562249096E+02 -0.47428153399E+01  0.16056466859E+03  0.12509041048E+03 0.  0.
          5    1    3    3  502    0  0.92461086748E+02  0.14630926751E+02 -0.45616923017E+02  0.10421848514E+03  0.41800000000E+01 0. -1.
         -5    1    3    3    0  502  0.52923179263E+01 -0.38193175848E+02  0.40874107677E+02  0.56346183445E+02  0.41800000000E+01 0. -1.
        -11    1    1    2    0    0 -0.16700089023E+01  0.33659563454E+02  0.15541254558E+02  0.37111800480E+02  0.00000000000E+00 0.  1.
         11    1    1    2    0    0 -0.96083395772E+02 -0.10097314358E+02  0.12088143080E+03  0.15474590467E+03  0.00000000000E+00 0. -1.
</event>
<event>
 7    1  0.2693725E-009  0.1632101E+03  0.7561462E-02  0.1185119E+00
          1   -1    0    0  501    0  0.00000000000E+00  0.00000000000E+00  0.31668252290E+03  0.31668252290E+03  0.00000000000E+00 0. -1.
         -1   -1    0    0    0  501 -0.00000000000E+00 -0.00000000000E+00 -0.89359497242E+02  0.89359497242E+02  0.00000000000E+00 0.  1.
         25    2    1    2    0    0 -0.87249554627E+02  0.10842440817E+03  0.10259239452E+03  0.21340301234E+03  0.12508920494E+03 0.  0.
          5    1    3    3  502    0 -0.18506122360E+02  0.11537499349E+03  0.74850078183E+02  0.13883037237E+03  0.41800000000E+01 0.  1.
         -5    1    3    3    0  502 -0.68743432267E+02 -0.69505853235E+01  0.27742316335E+02  0.74572639968E+02  0.41800000000E+01 0.  1.
        -11    1    1    2    0    0  0.44975651194E+02 -0.69669129124E+02  0.10072089176E+03  0.13046568434E+03  0.00000000000E+00 0. -1.
         11    1    1    2    0    0  0.42273903433E+02 -0.38755279047E+02  0.24009739382E+02  0.62173323465E+02  0.00000000000E+00 0.  1.
</event>
<event>
 7    1  0.2693725E-009  0.1264674E+03  0.7561462E-02  0.1232794E+00
         -2   -1    0    0    0  501 -0.00000000000E+00  0.00000000000E+00  0.89865978112E+02  0.89865978112E+02  0.00000000000E+00 0. -1.
          2   -1    0    0  501    0  0.00000000000E+00 -0.00000000000E+00 -0.24841848069E+03  0.24841848069E+03  0.00000000000E+00 0.  1.
         25    2    1    2    0    0 -0.99508930260E+02  0.13346170337E+02 -0.63718561703E+02  0.17259350265E+03  0.12509322359E+03 0.  0.
          5    1    3    3  502    0 -0.10371012152E+03  0.37508498247E+02 -0.69143143035E+01  0.11058009264E+03  0.41800000000E+01 0.  1.
         -5    1    3    3    0  502  0.42011912624E+01 -0.24162327910E+02 -0.56804247399E+02  0.62013410007E+02  0.41800000000E+01 0.  1.
        -11    1    1    2    0    0  0.42502495999E+02  0.24697738706E+02 -0.58852377104E+00  0.49160826107E+02  0.00000000000E+00 0. -1.
         11    1    1    2    0    0  0.57006434262E+02 -0.38043909044E+02 -0.94245417101E+02  0.11653013004E+03  0.00000000000E+00 0.  1.
</event>
<event>
 7    1  0.2693725E-009  0.2219816E+03  0.7561462E-02  0.1132414E+00
          1   -1    0    0  501    0  0.00000000000E+00  0.00000000000E+00  0.16758902512E+04  0.16758902512E+04  0.00000000000E+00 0. -1.
         -1   -1    0    0    0  501 -0.00000000000E+00 -0.00000000000E+00 -0.30479953690E+02  0.30479953690E+02  0.00000000000E+00 0.  1.
         25    2    1    2    0    0 -0.17806898545E+03 -0.85242494956E+02  0.80875269723E+03  0.84184520244E+03  0.12509025970E+03 0.  0.
          5    1    3    3  502    0 -0.14156440482E+03 -0.80232664850E+01  0.59375471821E+03  0.61046457008E+03  0.41800000000E+01 0. -1.
         -5    1    3    3    0  502 -0.36504580623E+02 -0.77219228471E+02  0.21499797901E+03  0.23138063236E+03  0.41800000000E+01 0. -1.
        -11    1    1    2    0    0  0.14348256706E+03  0.10403722184E+03  0.64766740583E+03  0.67147900872E+03  0.00000000000E+00 0.  1.
         11    1    1    2    0    0  0.34586418386E+02 -0.18794726885E+02  0.18899019444E+03  0.19304599371E+03  0.00000000000E+00 0. -1.
</event>
<event>
 7    1  0.2693725E-009  0.1044730E+03  0.7561462E-02  0.1271161E+00
          1   -1    0    0  501    0  0.00000000000E+00  0.00000000000E+00  0.29961256822E+03  0.29961256822E+03  0.00000000000E+00 0. -1.
         -1   -1    0    0    0  501 -0.00000000000E+00 -0.00000000000E+00 -0.68474056047E+02  0.68474056047E+02  0.00000000000E+00 0.  1.
         25    2    1    2    0    0 -0.77396338089E+01  0.49630500042E+02  0.22064412243E+02  0.13659247794E+03  0.12509028051E+03 0.  0.
          5    1    3    3  502    0  0.46040245989E+02 -0.23765489992E+01  0.38114640406E+02  0.59962908945E+02  0.41800000000E+01 0. -1.
         -5    1    3    3    0  502 -0.53779879798E+02  0.52007049041E+02 -0.16050228162E+02  0.76629569000E+02  0.41800000000E+01 0. -1.
        -11    1    1    2    0    0 -0.32281120141E+02 -0.20809008453E+02  0.40336056177E+02  0.55696346185E+02  0.00000000000E+00 0.  1.
         11    1    1    2    0    0  0.40020753950E+02 -0.28821491588E+02  0.16873804376E+03  0.17579780014E+03  0.00000000000E+00 0. -1.
</event>
<event>
 7    1  0.2693725E-009  0.2875205E+03  0.7561462E-02  0.1091651E+00
         -2   -1    0    0    0  501 -0.00000000000E+00  0.00000000000E+00  0.12997507627E+03  0.12997507627E+03  0.00000000000E+00 0.  1.
          2   -1    0    0  501    0  0.00000000000E+00 -0.00000000000E+00 -0.67535371356E+03  0.67535371356E+03  0.00000000000E+00 0. -1.
         25    2    1    2    0    0 -0.98321682470E+02 -0.25464825804E+03 -0.32755908648E+03  0.44436075310E+03  0.12509450509E+03 0.  0.
          5    1    3    3  502    0 -0.14247695926E+01 -0.16539012046E+03 -0.21313470272E+03  0.26981437289E+03  0.41800000000E+01 0.  1.
         -5    1    3    3    0  502 -0.96896912877E+02 -0.89258137577E+02 -0.11442438376E+03  0.17454638022E+03  0.41800000000E+01 0.  1.
        -11    1    1    2    0    0 -0.57774428701E+01  0.24741585896E+02  0.30531324549E+01  0.25589969452E+02  0.00000000000E+00 0.  1.
         11    1    1    2    0    0  0.10409912534E+03  0.22990667214E+03 -0.22087268327E+03  0.33537806727E+03  0.00000000000E+00 0. -1.
</event>
<event>
 7    1  0.2693725E-009  0.1145354E+03  0.7561462E-02  0.1252394E+00
         -1   -1    0    0    0  501 -0.00000000000E+00  0.00000000000E+00  0.14151046836E+03  0.14151046836E+03  0.00000000000E+00 0.  1.
          1   -1    0    0  501    0  0.00000000000E+00 -0.00000000000E+00 -0.15123858851E+03  0.15123858851E+03  0.00000000000E+00 0. -1.
         25    2    1    2    0    0 -0.90806409945E+02 -0.23934614988E+02 -0.33323382427E+02  0.15993024374E+03  0.12509422514E+03 0.  0.
          5    1    3    3  502    0 -0.10969774247E+03 -0.97573902404E+01 -0.58819930014E+02  0.12492420876E+03  0.41800000000E+01 0. -1.
         -5    1    3    3    0  502  0.18891332524E+02 -0.14177224748E+02  0.25496547587E+02  0.35006034979E+02  0.41800000000E+01 0. -1.
        -11    1    1    2    0    0  0.28848881271E+02  0.14208377269E+02 -0.34617752683E+02  0.47249600380E+02  0.00000000000E+00 0. -1.
         11    1    1    2    0    0  0.61957528674E+02  0.97262377197E+01  0.58213014961E+02  0.85569212748E+02  0.00000000000E+00 0.  1.
</event>
<event>
 7    1  0.2693725E-009  0.3589002E+03  0.7561462E-02  0.1059020E+00
          1   -1    0    0  501    0  0.00000000000E+00  0.00000000000E+00  0.14994378516E+04  0.14994378516E+04  0.00000000000E+00 0. -1.
         -1   -1    0    0    0  501 -0.00000000000E+00 -0.00000000000E+00 -0.10392515582E+03  0.10392515582E+03  0.00000000000E+00 0.  1.
         25    2    1    2    0    0 -0.35111482998E+02  0.35332330615E+03  0.43534455343E+03  0.57553663803E+03  0.12508943446E+03 0.  0.
          5    1    3    3  502    0 -0.31921468588E+02  0.32032726225E+03  0.31413997601E+03  0.44981099590E+03  0.41800000000E+01 0.  1.
         -5    1    3    3    0  502 -0.31900144102E+01  0.32996043894E+02  0.12120457741E+03  0.12572564214E+03  0.41800000000E+01 0.  1.
        -11    1    1    2    0    0  0.50614135999E+02 -0.14561051138E+03  0.33243575833E+03  0.36643927902E+03  0.00000000000E+00 0.  1.
         11    1    1    2    0    0 -0.15502653000E+02 -0.20771279477E+03  0.62773238403E+03  0.66138709037E+03  0.00000000000E+00 0. -1.
</event>
<event>
 7    1  0.2693725E-009  0.8260440E+02  0.7561462E-02  0.1321819E+00
         -1   -1    0    0    0  501 -0.00000000000E+00  0.00000000000E+00  0.15432382838E+03  0.15432382838E+03  0.00000000000E+00 0.  1.
          1   -1    0    0  501    0  0.00000000000E+00 -0.00000000000E+00 -0.80895834404E+02  0.80895834404E+02  0.00000000000E+00 0. -1.
         25    2    1    2    0    0 -0.34548500079E+01 -0.60101638054E+01  0.75058868992E+02  0.14604808753E+03  0.12509257371E+03 0.  0.
          5    1    3    3  502    0 -0.63273222201E+01  0.51096420803E+02  0.72028546506E+02  0.88636691822E+02  0.41800000000E+01 0.  1.
         -5    1    3    3    0  502  0.28724722121E+01 -0.57106584609E+02  0.30303224862E+01  0.57411395704E+02  0.41800000000E+01 0.  1.
        -11    1    1    2    0    0  0.29569619133E+01  0.31043025980E+02  0.33670535496E+02  0.45892461759E+02  0.00000000000E+00 0.  1.
         11    1    1    2    0    0  0.49788809463E+00 -0.25032862174E+02 -0.35301410512E+02  0.43279113499E+02  0.00000000000E+00 0. -1.
</event>
<event>
 7    1  0.2693725E-009  0.1272941E+03  0.7561462E-02  0.1231527E+00
         -1   -1    0    0    0  501 -0.00000000000E+00  0.00000000000E+00  0.19097818193E+02  0.19097818193E+02  0.00000000000E+00 0.  1.
          1   -1    0    0  501    0  0.00000000000E+00 -0.00000000000E+00 -0.93261708487E+03  0.93261708487E+03  0.00000000000E+00 0. -1.
         25    2    1    2    0    0 -0.69861087459E+02  0.16435560955E+02 -0.60970558566E+03  0.62652921841E+03  0.12508901283E+03 0.  0.
          5    1    3    3  502    0 -0.57327589521E+02  0.69089094910E+02 -0.37161406808E+03  0.38232740361E+03  0.41800000000E+01 0. -1.
         -5    1    3    3    0  502 -0.12533497937E+02 -0.52653533955E+02 -0.23809151757E+03  0.24420181479E+03  0.41800000000E+01 0. -1.
        -11    1    1    2    0    0 -0.94762846962E+01  0.20748496001E+02 -0.29949321245E+02  0.37646539031E+02  0.00000000000E+00 0.  1.
         11    1    1    2    0    0  0.79337372155E+02 -0.37184056956E+02 -0.27386435977E+03  0.28753914562E+03  0.00000000000E+00 0. -1.
</event>
<event>
 7    1  0.2693725E-009  0.9896585E+02  0.7561462E-02  0.1282486E+00
         -1   -1    0    0    0  501 -0.00000000000E+00  0.00000000000E+00  0.19375541916E+03  0.19375541916E+03  0.00000000000E+00 0.  1.
          1   -1    0    0  501    0  0.00000000000E+00 -0.00000000000E+00 -0.80245259822E+02  0.80245259822E+02  0.00000000000E+00 0. -1.
         25    2    1    2    0    0  0.15288499643E+02 -0.39940741141E+02  0.15119986023E+02  0.13306086884E+03  0.12509028665E+03 0.  0.
          5    1    3    3  502    0  0.57319770606E+02  0.27561065079E+00 -0.24580953066E+02  0.62508621143E+02  0.41800000000E+01 0. -1.
         -5    1    3    3    0  502 -0.42031270963E+02 -0.40216351792E+02  0.39700939088E+02  0.70552247695E+02  0.41800000000E+01 0. -1.
        -11    1    1    2    0    0 -0.43501112953E+02  0.25838958360E+02  0.96959179048E+02  0.10936672711E+03  0.00000000000E+00 0.  1.
         11    1    1    2    0    0  0.28212613310E+02  0.14101782782E+02  0.14309942636E+01  0.31573083030E+02  0.00000000000E+00 0. -1.
</event>
<event>
 7    1  0.2693725E-009  0.1526781E+03  0.7561462E-02  0.1197220E+00
         -1   -1    0    0    0  501 -0.00000000000E+00  0.00000000000E+00  0.14719078406E+03  0.14719078406E+03  0.00000000000E+00 0.  1.
          1   -1    0    0  501    0  0.00000000000E+00 -0.00000000000E+00 -0.17253318330E+03  0.17253318330E+03  0.00000000000E+00 0. -1.
         25    2    1    2    0    0  0.10864110509E+03  0.18079735844E+02 -0.37672359614E+02  0.17086826003E+03  0.12508792526E+03 0.  0.
          5    1    3    3  502    0  0.13476970662E+03  0.28018844333E+02 -0.25329370119E+02  0.14002492225E+03  0.41800000000E+01 0. -1.
         -5    1    3    3    0  502 -0.26128601537E+02 -0.99391084886E+01 -0.12342989495E+02  0.30843337781E+02  0.41800000000E+01 0. -1.
        -11    1    1    2    0    0 -0.58066927160E+02 -0.52433249710E+02  0.32149636595E+02  0.84584944512E+02  0.00000000000E+00 0.  1.
         11    1    1    2    0    0 -0.50574177926E+02  0.34353513865E+02 -0.19819676217E+02  0.64270762817E+02  0.00000000000E+00 0. -1.
</event>
<event>
 7    1  0.2693725E-009  0.1059101E+03  0.7561462E-02  0.1268337E+00
         -1   -1    0    0    0  501 -0.00000000000E+00  0.00000000000E+00  0.26397128006E+03  0.26397128006E+03  0.00000000000E+00 0.  1.
          1   -1    0    0  501    0  0.00000000000E+00 -0.00000000000E+00 -0.64051798119E+02  0.64051798119E+02  0.00000000000E+00 0. -1.
         25    2    1    2    0    0 -0.44513024547E+02  0.46928900060E+02  0.13826580335E+03  0.19735449849E+03  0.12509050596E+03 0.  0.
          5    1    3    3  502    0 -0.21033038771E+02  0.73362446990E+02  0.14229676640E+03  0.16152485715E+03  0.41800000000E+01 0. -1.
         -5    1    3    3    0  502 -0.23479985777E+02 -0.26433546930E+02 -0.40309630463E+01  0.35829641339E+02  0.41800000000E+01 0. -1.
        -11    1    1    2    0    0  0.62424785721E+02 -0.51916632036E+02  0.72748915768E+02  0.10901649095E+03  0.00000000000E+00 0.  1.
         11    1    1    2    0    0 -0.17911761174E+02  0.49877319768E+01 -0.11095237182E+02  0.21652088739E+02  0.00000000000E+00 0. -1.
</event>
<event>
 7    1  0.2693725E-009  0.1070149E+03  0.7561462E-02  0.1266200E+00
          1   -1    0    0  501    0  0.00000000000E+00  0.00000000000E+00  0.21423784452E+03  0.21423784452E+03  0.00000000000E+00 0. -1.
         -1   -1    0    0    0  501 -0.00000000000E+00 -0.00000000000E+00 -0.57021501342E+02  0.57021501342E+02  0.00000000000E+00 0.  1.
         25    2    1    2    0    0  0.29507977482E+01  0.15567108756E+02  0.69729523696E+02  0.14408582481E+03  0.12508987311E+03 0.  0.
          5    1    3    3  502    0 -0.58727859550E+02  0.10003221298E+02  0.15588437965E+02  0.61721128651E+02  0.41800000000E+01 0.  1.
         -5    1    3    3    0  502  0.61678657299E+02  0.55638874588E+01  0.54141085730E+02  0.82364696162E+02  0.41800000000E+01 0.  1.
        -11    1    1    2    0    0  0.36259908321E+02  0.18129108296E+02  0.40725958969E+02  0.57463460155E+02  0.00000000000E+00 0.  1.
         11    1    1    2    0    0 -0.39210706069E+02 -0.33696217052E+02  0.46760860516E+02  0.69710060897E+02  0.00000000000E+00 0. -1.
</event>
<event>
 7    1  0.2693725E-009  0.1540771E+03  0.7561462E-02  0.1195551E+00
         -1   -1    0    0    0  501 -0.00000000000E+00  0.00000000000E+00  0.85719689134E+02  0.85719689134E+02  0.00000000000E+00 0.  1.
          1   -1    0    0  501    0  0.00000000000E+00 -0.00000000000E+00 -0.35362342178E+03  0.35362342178E+03  0.00000000000E+00 0. -1.
         25    2    1    2    0    0 -0.23941344949E+02 -0.11995054654E+03 -0.67902781679E+02  0.18766774341E+03  0.12508825902E+03 0.  0.
          5    1    3    3  502    0  0.46649820753E+02 -0.80266558870E+02 -0.26589871355E+02  0.96661367194E+02  0.41800000000E+01 0.  1.
         -5    1    3    3    0  502 -0.70591165702E+02 -0.39683987669E+02 -0.41312910324E+02  0.91006376216E+02  0.41800000000E+01 0.  1.
        -11    1    1    2    0    0  0.41928117207E+02  0.80048943110E+02 -0.69411150925E+02  0.11394607575E+03  0.00000000000E+00 0.  1.
         11    1    1    2    0    0 -0.17986772258E+02  0.39901603429E+02 -0.13058980004E+03  0.13772929175E+03  0.00000000000E+00 0. -1.
</event>
<event>
 7    1  0.2693725E-009  0.1155009E+03  0.7561462E-02  0.1250709E+00
          2   -1    0    0  501    0  0.00000000000E+00  0.00000000000E+00  0.36313471410E+03  0.36313471410E+03  0.00000000000E+00 0. -1.
         -2   -1    0    0    0  501 -0.00000000000E+00 -0.00000000000E+00 -0.48543579057E+02  0.48543579057E+02  0.00000000000E+00 0.  1.
         25    2    1    2    0    0  0.65567809573E+02 -0.33191809096E+02  0.20452794695E+03  0.25075675943E+03  0.12508572049E+03 0.  0.
          5    1    3    3  502    0  0.86383795639E+02 -0.20253194042E+02  0.67686572942E+02  0.11167495948E+03  0.41800000000E+01 0.  1.
         -5    1    3    3    0  502 -0.20815986066E+02 -0.12938615054E+02  0.13684137401E+03  0.13908179995E+03  0.41800000000E+01 0.  1.
        -11    1    1    2    0    0 -0.53249023177E+02 -0.24289524539E+02  0.51898337077E+02  0.78223250144E+02  0.00000000000E+00 0. -1.
         11    1    1    2    0    0 -0.12318786396E+02  0.57481333635E+02  0.58164851008E+02  0.82698283583E+02  0.00000000000E+00 0.  1.
</event>
<event>
 7    1  0.2693725E-009  0.1207025E+03  0.7561462E-02  0.1241943E+00
          2   -1    0    0  501    0  0.00000000000E+00  0.00000000000E+00  0.45317261271E+03  0.45317261271E+03  0.00000000000E+00 0. -1.
         -2   -1    0    0    0  501 -0.00000000000E+00 -0.00000000000E+00 -0.71444035497E+02  0.71444035497E+02  0.00000000000E+00 0.  1.
         25    2    1    2    0    0  0.57734545581E+02  0.25379011791E+02  0.14310474070E+02  0.14081745421E+03  0.12508954292E+03 0.  0.
          5    1    3    3  502    0  0.50862783164E+02 -0.40073625886E+02 -0.18062861196E+02  0.67354714441E+02  0.41800000000E+01 0. -1.
         -5    1    3    3    0  502  0.68717624171E+01  0.65452637677E+02  0.32373335266E+02  0.73462739765E+02  0.41800000000E+01 0. -1.
        -11    1    1    2    0    0 -0.82669525276E+02 -0.20301682747E+02  0.29522211974E+03  0.30724991248E+03  0.00000000000E+00 0. -1.
         11    1    1    2    0    0  0.24934979695E+02 -0.50773290442E+01  0.72195983393E+02  0.76549281516E+02  0.00000000000E+00 0.  1.
</event>
<event>
 7    1  0.2693725E-009  0.1647369E+03  0.7561462E-02  0.1183450E+00
         -4   -1    0    0    0  501 -0.00000000000E+00  0.00000000000E+00  0.25253612595E+03  0.25253612595E+03  0.00000000000E+00 0.  1.
          4   -1    0    0  501    0  0.00000000000E+00 -0.00000000000E+00 -0.11735209486E+03  0.11735209486E+03  0.00000000000E+00 0. -1.
         25    2    1    2    0    0 -0.12645094643E+03  0.14407558786E+02  0.12422131074E+03  0.21742867156E+03  0.12508746368E+03 0.  0.
          5    1    3    3  502    0 -0.43958229105E+02  0.67085683307E+02  0.60681359165E+02  0.10066039222E+03  0.41800000000E+01 0. -1.
         -5    1    3    3    0  502 -0.82492717324E+02 -0.52678124521E+02  0.63539951579E+02  0.11676827935E+03  0.41800000000E+01 0. -1.
        -11    1    1    2    0    0  0.38327010403E+02  0.33486743439E+02  0.11419079955E+02  0.52160493667E+02  0.00000000000E+00 0.  1.
         11    1    1    2    0    0  0.88123936027E+02 -0.47894302225E+02 -0.45635960727E+00  0.10029905558E+03  0.00000000000E+00 0. -1.
</event>
<event>
 7    1  0.2693725E-009  0.1120397E+03  0.7561462E-02  0.1256839E+00
         -1   -1    0    0    0  501 -0.00000000000E+00  0.00000000000E+00  0.66408170679E+03  0.66408170679E+03  0.00000000000E+00 0.  1.
          1   -1    0    0  501    0  0.00000000000E+00 -0.00000000000E+00 -0.20676682103E+02  0.20676682103E+02  0.00000000000E+00 0. -1.
         25    2    1    2    0    0 -0.17524288678E+02 -0.27236636326E+02  0.27794942645E+03  0.30652069956E+03  0.12510044183E+03 0.  0.
          5    1    3    3  502    0  0.26120638237E+02  0.40286853044E+02  0.91063194352E+02  0.10303055875E+03  0.41800000000E+01 0.  1.
         -5    1    3    3    0  502 -0.43644926914E+02 -0.67523489371E+02  0.18688623210E+03  0.20349014082E+03  0.41800000000E+01 0.  1.
        -11    1    1    2    0    0  0.40959279011E+02 -0.17757687695E+02  0.13238259275E+03  0.13970736871E+03  0.00000000000E+00 0.  1.
         11    1    1    2    0    0 -0.23434990333E+02  0.44994324022E+02  0.23307300548E+03  0.23853032061E+03  0.00000000000E+00 0. -1.
</event>
<event>
 7    1  0.2693725E-009  0.1014950E+03  0.7561462E-02  0.1277183E+00
         -1   -1    0    0    0  501 -0.00000000000E+00  0.00000000000E+00  0.21416425482E+02  0.21416425482E+02  0.00000000000E+00 0.  1.
          1   -1    0    0  501    0  0.00000000000E+00 -0.00000000000E+00 -0.64815296085E+03  0.64815296085E+03  0.00000000000E+00 0. -1.
         25    2    1    2    0    0 -0.46204281759E+01 -0.35385181185E+02 -0.42523718337E+03  0.44468806421E+03  0.12508937977E+03 0.  0.
          5    1    3    3  502    0 -0.56224648605E+02 -0.25224379493E+02 -0.12039879001E+03  0.13531748397E+03  0.41800000000E+01 0. -1.
         -5    1    3    3    0  502  0.51604220429E+02 -0.10160801692E+02 -0.30483839336E+03  0.30937058025E+03  0.41800000000E+01 0. -1.
        -11    1    1    2    0    0  0.16963562919E+02 -0.23117174776E+02 -0.12247554116E+03  0.12578721882E+03  0.00000000000E+00 0. -1.
         11    1    1    2    0    0 -0.12343134743E+02  0.58502355961E+02 -0.79023810845E+02  0.99094103300E+02  0.00000000000E+00 0.  1.
</event>
<event>
 7    1  0.2693725E-009  0.2031294E+03  0.7561462E-02  0.1147125E+00
          2   -1    0    0  501    0  0.00000000000E+00  0.00000000000E+00  0.69412039016E+03  0.69412039016E+03  0.00000000000E+00 0. -1.
         -2   -1    0    0    0  501 -0.00000000000E+00 -0.00000000000E+00 -0.67782880287E+02  0.67782880287E+02  0.00000000000E+00 0.  1.
         25    2    1    2    0    0  0.12788828442E+03 -0.11812294387E+03  0.20799752456E+03  0.29869554659E+03  0.12509043197E+03 0.  0.
          5    1    3    3  502    0  0.46899025141E+02 -0.12321810592E+03  0.14382164995E+03  0.19515214470E+03  0.41800000000E+01 0. -1.
         -5    1    3    3    0  502  0.80989259276E+02  0.50951620466E+01  0.64175874612E+02  0.10354340190E+03  0.41800000000E+01 0. -1.
        -11    1    1    2    0    0 -0.62657348195E+02  0.54413514582E+01  0.88254310660E+02  0.10837146736E+03  0.00000000000E+00 0.  1.
         11    1    1    2    0    0 -0.65230936222E+02  0.11268159241E+03  0.33008567465E+03  0.35483625649E+03  0.00000000000E+00 0. -1.
</event>
<event>
 7    1  0.2693725E-009  0.1216819E+03  0.7561462E-02  0.1240348E+00
          2   -1    0    0  501    0  0.00000000000E+00  0.00000000000E+00  0.59147598395E+03  0.59147598395E+03  0.00000000000E+00 0. -1.
         -2   -1    0    0    0  501 -0.00000000000E+00 -0.00000000000E+00 -0.26905902809E+02  0.26905902809E+02  0.00000000000E+00 0.  1.
         25    2    1    2    0    0  0.63709834572E+02  0.88939507434E+01  0.33164059017E+03  0.36023705873E+03  0.12508881666E+03 0.  0.
          5    1    3    3  502    0  0.53158440691E+02 -0.54429749055E+02  0.17204905619E+03  0.18816686088E+03  0.41800000000E+01 0.  1.
         -5    1    3    3    0  502  0.10551393881E+02  0.63323699798E+02  0.15959153398E+03  0.17207019785E+03  0.41800000000E+01 0.  1.
        -11    1    1    2    0    0 -0.82861776286E+02 -0.34914247177E+01  0.13679413045E+03  0.15997155416E+03  0.00000000000E+00 0.  1.
         11    1    1    2    0    0  0.19151941714E+02 -0.54025260257E+01  0.96135360520E+02  0.98173273864E+02  0.00000000000E+00 0. -1.
</event>
<event>
 7    1  0.2693725E-009  0.1408569E+03  0.7561462E-02  0.1212181E+00
         -2   -1    0    0    0  501 -0.00000000000E+00  0.00000000000E+00  0.64898402148E+02  0.64898402148E+02  0.00000000000E+00 0.  1.
          2   -1    0    0  501    0  0.00000000000E+00 -0.00000000000E+00 -0.40776798468E+03  0.40776798468E+03  0.00000000000E+00 0. -1.
         25    2    1    2    0    0 -0.64259702929E+02 -0.75725839513E+02 -0.86845328108E+02  0.18180384886E+03  0.12508723459E+03 0.  0.
          5    1    3    3  502    0 -0.76797886132E+02  0.46231884881E+01 -0.30936170820E+02  0.83028960316E+02  0.41800000000E+01 0. -1.
         -5    1    3    3    0  502  0.12538183203E+02 -0.80349028001E+02 -0.55909157288E+02  0.98774888547E+02  0.41800000000E+01 0. -1.
        -11    1    1    2    0    0  0.42005463796E+02  0.88222252987E+02 -0.24362045170E+03  0.26248533177E+03  0.00000000000E+00 0. -1.
         11    1    1    2    0    0  0.22254239133E+02 -0.12496413474E+02 -0.12403802724E+02  0.28377206189E+02  0.00000000000E+00 0.  1.
</event>
<event>
 7    1  0.2693725E-009  0.8985953E+02  0.7561462E-02  0.1303192E+00
         -1   -1    0    0    0  501 -0.00000000000E+00  0.00000000000E+00  0.22074743058E+03  0.22074743058E+03  0.00000000000E+00 0.  1.
          1   -1    0    0  501    0  0.00000000000E+00 -0.00000000000E+00 -0.56576580704E+02  0.56576580704E+02  0.00000000000E+00 0. -1.
         25    2    1    2    0    0 -0.19047496278E+02  0.17670496986E+02  0.10024777084E+03  0.16239446875E+03  0.12508914559E+03 0.  0.
          5    1    3    3  502    0  0.48706330705E+02 -0.16591312400E+02  0.43638988962E+02  0.67597426397E+02  0.41800000000E+01 0. -1.
         -5    1    3    3    0  502 -0.67753826984E+02  0.34261809386E+02  0.56608781881E+02  0.94797042356E+02  0.41800000000E+01 0. -1.
        -11    1    1    2    0    0  0.33226964341E+02 -0.18164435297E+02  0.82955962670E+02  0.91190293407E+02  0.00000000000E+00 0.  1.
         11    1    1    2    0    0 -0.14179468063E+02  0.49393831106E+00 -0.19032883635E+02  0.23739249126E+02  0.00000000000E+00 0. -1.
</event>
<event>
 7    1  0.2693725E-009  0.1130448E+03  0.7561462E-02  0.1255033E+00
         -1   -1    0    0    0  501 -0.00000000000E+00  0.00000000000E+00  0.24126418712E+03  0.24126418712E+03  0.00000000000E+00 0.  1.
          1   -1    0    0  501    0  0.00000000000E+00 -0.00000000000E+00 -0.62814503940E+02  0.62814503940E+02  0.00000000000E+00 0. -1.
         25    2    1    2    0    0  0.48172131584E+02  0.27474136930E+02  0.11217075995E+03  0.17693073501E+03  0.12508726210E+03 0.  0.
          5    1    3    3  502    0 -0.25773676952E+01  0.67315615429E+02  0.80141426219E+02  0.10477669350E+03  0.41800000000E+01 0. -1.
         -5    1    3    3    0  502  0.50749499279E+02 -0.39841478499E+02  0.32029333735E+02  0.72154041505E+02  0.41800000000E+01 0. -1.
        -11    1    1    2    0    0 -0.14235431664E+02 -0.50801844183E+02  0.45650915280E+01  0.52955782949E+02  0.00000000000E+00 0. -1.
         11    1    1    2    0    0 -0.33936699920E+02  0.23327707253E+02  0.61713831699E+02  0.74192173106E+02  0.00000000000E+00 0.  1.
</event>
<event>
 7    1  0.2693725E-009  0.1238425E+03  0.7561462E-02  0.1236889E+00
          2   -1    0    0  501    0  0.00000000000E+00  0.00000000000E+00  0.20308956149E+04  0.20308956149E+04  0.00000000000E+00 0. -1.
         -2   -1    0    0    0  501 -0.00000000000E+00 -0.00000000000E+00 -0.11649466011E+02  0.11649466011E+02  0.00000000000E+00 0.  1.
         25    2    1    2    0    0 -0.64162745168E+02  0.82929061812E+02  0.13103353768E+04  0.13204621222E+04  0.12508928474E+03 0.  0.
          5    1    3    3  502    0 -0.43819493141E+02  0.25550775097E+02  0.14764203173E+03  0.15616860127E+03  0.41800000000E+01 0. -1.
         -5    1    3    3    0  502 -0.20343252027E+02  0.57378286715E+02  0.11626933451E+04  0.11642935209E+04  0.41800000000E+01 0. -1.
        -11    1    1    2    0    0 -0.18902553597E+02 -0.35230058422E+02  0.16294091842E+03  0.16777427230E+03  0.00000000000E+00 0. -1.
         11    1    1    2    0    0  0.83065298765E+02 -0.47699003390E+02  0.54596985362E+03  0.55430868642E+03  0.00000000000E+00 0.  1.
</event>
<event>
 7    1  0.2693725E-009  0.8035530E+02  0.7561462E-02  0.1328046E+00
          2   -1    0    0  501    0  0.00000000000E+00  0.00000000000E+00  0.45486748435E+03  0.45486748435E+03  0.00000000000E+00 0. -1.
         -2   -1    0    0    0  501 -0.00000000000E+00 -0.00000000000E+00 -0.29852660651E+02  0.29852660651E+02  0.00000000000E+00 0.  1.
         25    2    1    2    0    0 -0.47676113570E+01  0.33128189750E+02  0.29423211340E+03  0.32146423480E+03  0.12508601290E+03 0.  0.
          5    1    3    3  502    0  0.17669738152E+02  0.58379287354E+02  0.27631782148E+03  0.28300065673E+03  0.41800000000E+01 0. -1.
         -5    1    3    3    0  502 -0.22437349509E+02 -0.25251097604E+02  0.17914291920E+02  0.38463578073E+02  0.41800000000E+01 0. -1.
        -11    1    1    2    0    0  0.22740478662E+02  0.50892562076E+01 -0.25051534165E+01  0.23437271431E+02  0.00000000000E+00 0.  1.
         11    1    1    2    0    0 -0.17972867305E+02 -0.38217445958E+02  0.13328786371E+03  0.13981863877E+03  0.00000000000E+00 0. -1.
</event>
<event>
 7    1  0.2693725E-009  0.1405651E+03  0.7561462E-02  0.1212571E+00
         -2   -1    0    0    0  501 -0.00000000000E+00  0.00000000000E+00  0.27929057537E+02  0.27929057537E+02  0.00000000000E+00 0.  1.
          2   -1    0    0  501    0  0.00000000000E+00 -0.00000000000E+00 -0.85080552255E+03  0.85080552255E+03  0.00000000000E+00 0. -1.
         25    2    1    2    0    0 -0.47029246150E+02 -0.79268203055E+02 -0.60690278528E+03  0.62647716254E+03  0.12508975331E+03 0.  0.
          5    1    3    3  502    0 -0.89699263811E+02 -0.59958876022E+02 -0.40198767094E+03  0.41623621266E+03  0.41800000000E+01 0.  1.
         -5    1    3    3    0  502  0.42670017660E+02 -0.19309327033E+02 -0.20491511435E+03  0.21024094988E+03  0.41800000000E+01 0.  1.
        -11    1    1    2    0    0  0.62696496081E+02  0.21502743043E+02 -0.81387069233E+02  0.10496224853E+03  0.00000000000E+00 0.  1.
         11    1    1    2    0    0 -0.15667249930E+02  0.57765460012E+02 -0.13458661050E+03  0.14729516902E+03  0.00000000000E+00 0. -1.
</event>
<event>
 7    1  0.2693725E-009  0.9828438E+02  0.7561462E-02  0.1283946E+00
          4   -1    0    0  501    0  0.00000000000E+00  0.00000000000E+00  0.21795085191E+03  0.21795085191E+03  0.00000000000E+00 0.  1.
         -4   -1    0    0    0  501 -0.00000000000E+00 -0.00000000000E+00 -0.59044282783E+02  0.59044282783E+02  0.00000000000E+00 0. -1.
         25    2    1    2    0    0 -0.19544352093E+02 -0.10301724020E+02  0.12091937303E+03  0.17537715371E+03  0.12509014372E+03 0.  0.
          5    1    3    3  502    0 -0.70755048837E+02  0.95272314216E+01  0.75455320742E+02  0.10396164150E+03  0.41800000000E+01 0. -1.
         -5    1    3    3    0  502  0.51210696744E+02 -0.19828955442E+02  0.45464052286E+02  0.71415512217E+02  0.41800000000E+01 0. -1.
        -11    1    1    2    0    0 -0.18207604666E+02 -0.15779183386E+02 -0.17380504435E+02  0.29708272088E+02  0.00000000000E+00 0. -1.
         11    1    1    2    0    0  0.37751956760E+02  0.26080907407E+02  0.55367700534E+02  0.71909708891E+02  0.00000000000E+00 0.  1.
</event>
<event>
 7    1  0.2693725E-009  0.9931541E+02  0.7561462E-02  0.1281742E+00
         -1   -1    0    0    0  501 -0.00000000000E+00  0.00000000000E+00  0.47813755524E+02  0.47813755524E+02  0.00000000000E+00 0.  1.
          1   -1    0    0  501    0  0.00000000000E+00 -0.00000000000E+00 -0.29012810280E+03  0.29012810280E+03  0.00000000000E+00 0. -1.
         25    2    1    2    0    0 -0.10938642755E+02  0.45562932415E+02 -0.13845145708E+03  0.19238504632E+03  0.12509022888E+03 0.  0.
          5    1    3    3  502    0  0.31356909554E+02  0.64363658798E+02 -0.12481409407E+03  0.14395126546E+03  0.41800000000E+01 0. -1.
         -5    1    3    3    0  502 -0.42295552308E+02 -0.18800726383E+02 -0.13637363014E+02  0.48433780851E+02  0.41800000000E+01 0. -1.
        -11    1    1    2    0    0 -0.14466863791E+02 -0.52210914681E+02 -0.20120952727E+02  0.57793792906E+02  0.00000000000E+00 0.  1.
         11    1    1    2    0    0  0.25405506546E+02  0.66479822664E+01 -0.83741937468E+02  0.87763019102E+02  0.00000000000E+00 0. -1.
</event>
<event>
 7    1  0.2693725E-009  0.2321121E+03  0.7561462E-02  0.1125162E+00
         -1   -1    0    0    0  501 -0.00000000000E+00  0.00000000000E+00  0.35642575350E+03  0.35642575350E+03  0.00000000000E+00 0.  1.
          1   -1    0    0  501    0  0.00000000000E+00 -0.00000000000E+00 -0.15348927108E+03  0.15348927108E+03  0.00000000000E+00 0. -1.
         25    2    1    2    0    0 -0.15446403485E+03  0.13720916304E+03  0.92257931705E+02  0.25854511618E+03  0.12509419912E+03 0.  0.
          5    1    3    3  502    0 -0.17090021389E+03  0.95736214666E+02  0.66776506903E+02  0.20699971058E+03  0.41800000000E+01 0. -1.
         -5    1    3    3    0  502  0.16436179039E+02  0.41472948378E+02  0.25481424802E+02  0.51545405600E+02  0.41800000000E+01 0. -1.
        -11    1    1    2    0    0  0.34639175051E+00 -0.42690385789E+02  0.79377037026E+01  0.43423451799E+02  0.00000000000E+00 0.  1.
         11    1    1    2    0    0  0.15411764310E+03 -0.94518777255E+02  0.10274084701E+03  0.20794645660E+03  0.00000000000E+00 0. -1.
</event>
<event>
 7    1  0.2693725E-009  0.1092888E+03  0.7561462E-02  0.1261893E+00
          1   -1    0    0  501    0  0.00000000000E+00  0.00000000000E+00  0.12812320231E+03  0.12812320231E+03  0.00000000000E+00 0. -1.
         -1   -1    0    0    0  501 -0.00000000000E+00 -0.00000000000E+00 -0.14913925676E+03  0.14913925676E+03  0.00000000000E+00 0.  1.
         25    2    1    2    0    0  0.36783275533E+02 -0.34238690848E+02 -0.81303904228E+02  0.15742729860E+03  0.12509089573E+03 0.  0.
          5    1    3    3  502    0  0.79616078642E+02 -0.98359800168E+01 -0.28928997611E+02  0.85380476598E+02  0.41800000000E+01 0.  1.
         -5    1    3    3    0  502 -0.42832803110E+02 -0.24402710831E+02 -0.52374906617E+02  0.72046822007E+02  0.41800000000E+01 0.  1.
        -11    1    1    2    0    0 -0.31705343321E+02  0.57123576270E+02  0.12373439938E+02  0.66493862701E+02  0.00000000000E+00 0.  1.
         11    1    1    2    0    0 -0.50779322117E+01 -0.22884885422E+02  0.47914409841E+02  0.53341297760E+02  0.00000000000E+00 0. -1.
</event>
<event>
 7    1  0.2693725E-009  0.1037237E+03  0.7561462E-02  0.1272655E+00
         -1   -1    0    0    0  501 -0.00000000000E+00  0.00000000000E+00  0.26220556248E+03  0.26220556248E+03  0.00000000000E+00 0.  1.
          1   -1    0    0  501    0  0.00000000000E+00 -0.00000000000E+00 -0.56426927911E+02  0.56426927911E+02  0.00000000000E+00 0. -1.
         25    2    1    2    0    0  0.35420552113E+02  0.40528539970E+02  0.14050478622E+03  0.19566578321E+03  0.12508527373E+03 0.  0.
          5    1    3    3  502    0  0.30937130666E+02 -0.24227727178E+02  0.12170218085E+03  0.12795695386E+03  0.41800000000E+01 0.  1.
         -5    1    3    3    0  502  0.44834214466E+01  0.64756267148E+02  0.18802605368E+02  0.67708829346E+02  0.41800000000E+01 0.  1.
        -11    1    1    2    0    0  0.24049360751E+02  0.88108021820E+01  0.25158128302E+02  0.35901718723E+02  0.00000000000E+00 0.  1.
         11    1    1    2    0    0 -0.59469912864E+02 -0.49339342152E+02  0.40115720045E+02  0.87064988456E+02  0.00000000000E+00 0. -1.
</event>
<event>
 7    1  0.2693725E-009  0.1271124E+03  0.7561462E-02  0.1231804E+00
         -2   -1    0    0    0  501 -0.00000000000E+00  0.00000000000E+00  0.15581994044E+03  0.15581994044E+03  0.00000000000E+00 0.  1.
          2   -1    0    0  501    0  0.00000000000E+00 -0.00000000000E+00 -0.11438800316E+03  0.11438800316E+03  0.00000000000E+00 0. -1.
         25    2    1    2    0    0  0.68084981498E+02 -0.79781867714E+01  0.60422697792E+02  0.15491213657E+03  0.12509057310E+03 0.  0.
          5    1    3    3  502    0  0.92152599768E+02 -0.40957563439E+02  0.49643502844E+02  0.11247921329E+03  0.41800000000E+01 0.  1.
         -5    1    3    3    0  502 -0.24067618270E+02  0.32979376668E+02  0.10779194948E+02  0.42432923282E+02  0.41800000000E+01 0.  1.
        -11    1    1    2    0    0 -0.83765586849E+02 -0.14332438996E+02 -0.62957762480E+01  0.85215779914E+02  0.00000000000E+00 0.  1.
         11    1    1    2    0    0  0.15680605351E+02  0.22310625767E+02 -0.12694984265E+02  0.30080027124E+02  0.00000000000E+00 0. -1.
</event>
<event>
 7    1  0.2693725E-009  0.1051993E+03  0.7561462E-02  0.1269727E+00
         -2   -1    0    0    0  501 -0.00000000000E+00  0.00000000000E+00  0.24553496202E+02  0.24553496202E+02  0.00000000000E+00 0.  1.
          2   -1    0    0  501    0  0.00000000000E+00 -0.00000000000E+00 -0.86080083385E+03  0.86080083385E+03  0.00000000000E+00 0. -1.
         25    2    1    2    0    0 -0.44015970306E+02  0.84158818825E+01 -0.71413840468E+03  0.72639439766E+03  0.12508767806E+03 0.  0.
          5    1    3    3  502    0 -0.65871084783E+02 -0.38159406760E+02 -0.32361535852E+03  0.33247483033E+03  0.41800000000E+01 0. -1.
         -5    1    3    3    0  502  0.21855114478E+02  0.46575288642E+02 -0.39052304616E+03  0.39391956733E+03  0.41800000000E+01 0. -1.
        -11    1    1    2    0    0  0.57767802481E+02  0.10942200794E+02 -0.34455604277E+02  0.68147189434E+02  0.00000000000E+00 0.  1.
         11    1    1    2    0    0 -0.13751832175E+02 -0.19358082676E+02 -0.87653328696E+02  0.90812742963E+02  0.00000000000E+00 0. -1.
</event>
<event>
 7    1  0.2693725E-009  0.2199903E+03  0.7561462E-02  0.1133890E+00
         -1   -1    0    0    0  501 -0.00000000000E+00  0.00000000000E+00  0.48386729669E+02  0.48386729669E+02  0.00000000000E+00 0.  1.
          1   -1    0    0  501    0  0.00000000000E+00 -0.00000000000E+00 -0.11276248496E+04  0.11276248496E+04  0.00000000000E+00 0. -1.
         25    2    1    2    0    0 -0.18954084715E+03 -0.51409824900E+02 -0.39433623990E+03  0.45794913574E+03  0.12509051922E+03 0.  0.
          5    1    3    3  502    0 -0.12371843803E+03  0.26308057450E+02 -0.26147475283E+03  0.29049076502E+03  0.41800000000E+01 0.  1.
         -5    1    3    3    0  502 -0.65822409118E+02 -0.77717882349E+02 -0.13286148707E+03  0.16745837072E+03  0.41800000000E+01 0.  1.
        -11    1    1    2    0    0  0.64179685734E+02 -0.19997406578E+02 -0.15666939640E+03  0.17048233955E+03  0.00000000000E+00 0.  1.
         11    1    1    2    0    0  0.12536116142E+03  0.71407231478E+02 -0.52823248361E+03  0.54758010395E+03  0.00000000000E+00 0. -1.
</event>
<event>
 7    1  0.2693725E-009  0.9419063E+02  0.7561462E-02  0.1293009E+00
          2   -1    0    0  501    0  0.00000000000E+00  0.00000000000E+00  0.30349678377E+03  0.30349678377E+03  0.00000000000E+00 0. -1.
         -2   -1    0    0    0  501 -0.00000000000E+00 -0.00000000000E+00 -0.36452147202E+02  0.36452147202E+02  0.00000000000E+00 0.  1.
         25    2    1    2    0    0 -0.14610168230E+01  0.26712296918E+02  0.17219660312E+03  0.21450739881E+03  0.12508426217E+03 0.  0.
          5    1    3    3  502    0  0.48594971887E+02 -0.25504947531E+02  0.82995345272E+02  0.99587516176E+02  0.41800000000E+01 0. -1.
         -5    1    3    3    0  502 -0.50055988710E+02  0.52217244449E+02  0.89201257845E+02  0.11491988263E+03  0.41800000000E+01 0. -1.
        -11    1    1    2    0    0  0.20810697024E+02  0.70495477677E+01  0.81331545207E+02  0.84247263933E+02  0.00000000000E+00 0. -1.
         11    1    1    2    0    0 -0.19349680201E+02 -0.33761844686E+02  0.13516488244E+02  0.41194268229E+02  0.00000000000E+00 0.  1.
</event>
<event>
 7    1  0.2693725E-009  0.1357241E+03  0.7561462E-02  0.1219201E+00
         -2   -1    0    0    0  501 -0.00000000000E+00  0.00000000000E+00  0.78005712909E+02  0.78005712909E+02  0.00000000000E+00 0.  1.
          2   -1    0    0  501    0  0.00000000000E+00 -0.00000000000E+00 -0.33314930270E+03  0.33314930270E+03  0.00000000000E+00 0. -1.
         25    2    1    2    0    0 -0.10858151011E+03  0.46530116647E+02 -0.15583600891E+03  0.23213983790E+03  0.12509614932E+03 0.  0.
          5    1    3    3  502    0 -0.85318477936E+02  0.68473813026E+02 -0.16553435375E+03  0.19846158424E+03  0.41800000000E+01 0.  1.
         -5    1    3    3    0  502 -0.23263032171E+02 -0.21943696379E+02  0.96983448434E+01  0.33678253655E+02  0.41800000000E+01 0.  1.
        -11    1    1    2    0    0  0.85375875754E+02 -0.93435671401E+01 -0.10405992716E+03  0.13492520465E+03  0.00000000000E+00 0. -1.
         11    1    1    2    0    0  0.23205634353E+02 -0.37186549507E+02  0.47523462792E+01  0.44089973068E+02  0.00000000000E+00 0.  1.
</event>
<event>
 7    1  0.2693725E-009  0.1723518E+03  0.7561462E-02  0.1175417E+00
         -1   -1    0    0    0  501 -0.00000000000E+00  0.00000000000E+00  0.11610480598E+03  0.11610480598E+03  0.00000000000E+00 0.  1.
          1   -1    0    0  501    0  0.00000000000E+00 -0.00000000000E+00 -0.50633138025E+03  0.50633138025E+03  0.00000000000E+00 0. -1.
         25    2    1    2    0    0 -0.91927543743E+02  0.13439376940E+03 -0.13988072718E+02  0.20580560900E+03  0.12509166225E+03 0.  0.
          5    1    3    3  502    0 -0.14398130821E+02  0.60245991697E+01 -0.49132403308E+02  0.51721053944E+02  0.41800000000E+01 0.  1.
         -5    1    3    3    0  502 -0.77529412922E+02  0.12836917023E+03  0.35144330590E+02  0.15408455506E+03  0.41800000000E+01 0.  1.
        -11    1    1    2    0    0  0.26485884282E+02 -0.10222795879E+03 -0.23665286233E+03  0.25914597214E+03  0.00000000000E+00 0.  1.
         11    1    1    2    0    0  0.65441659461E+02 -0.32165810614E+02 -0.13958563921E+03  0.15748460509E+03  0.00000000000E+00 0. -1.
</event>
<event>
 7    1  0.3848689E-009  0.1227425E+03  0.7561462E-02  0.1238640E+00
         -2   -1    0    0    0  501 -0.00000000000E+00  0.00000000000E+00  0.25363194447E+02  0.25363194447E+02  0.00000000000E+00 0.  1.
          2   -1    0    0  501    0  0.00000000000E+00 -0.00000000000E+00 -0.72873595265E+03  0.72873595265E+03  0.00000000000E+00 0. -1.
         25    2    1    2    0    0 -0.44010472734E+02  0.53811335546E+02 -0.26861317020E+03  0.30435733921E+03  0.12509105955E+03 0.  0.
          5    1    3    3  502    0 -0.74272713509E+02  0.71132659409E+01 -0.21234256068E+03  0.22510857380E+03  0.41800000000E+01 0.  1.
         -5    1    3    3    0  502  0.30262240774E+02  0.46698069605E+02 -0.56270609526E+02  0.79248765403E+02  0.41800000000E+01 0.  1.
        -11    1    1    2    0    0  0.28049673140E+02  0.23140350339E+02 -0.12659066231E+03  0.13170974057E+03  0.00000000000E+00 0. -1.
         11    1    1    2    0    0  0.15960799595E+02 -0.76951685885E+02 -0.30816892569E+03  0.31803206732E+03  0.00000000000E+00 0.  1.
</event>
<event>
 7    1  0.2693725E-009  0.1225004E+03  0.7561462E-02  0.1239028E+00
          3   -1    0    0  501    0  0.00000000000E+00  0.00000000000E+00  0.45976668663E+02  0.45976668663E+02  0.00000000000E+00 0. -1.
         -3   -1    0    0    0  501 -0.00000000000E+00 -0.00000000000E+00 -0.48519362437E+03  0.48519362437E+03  0.00000000000E+00 0.  1.
         25    2    1    2    0    0  0.95849185706E+02 -0.16858078721E+02 -0.29627386855E+03  0.33600100323E+03  0.12508879952E+03 0.  0.
          5    1    3    3  502    0  0.79920157468E-01 -0.37115962088E+02 -0.18054165929E+03  0.18436475848E+03  0.41800000000E+01 0. -1.
         -5    1    3    3    0  502  0.95769265549E+02  0.20257883367E+02 -0.11573220926E+03  0.15163624475E+03  0.41800000000E+01 0. -1.
        -11    1    1    2    0    0 -0.49705852228E+02  0.34246699157E+02 -0.21465124135E+02  0.64064496432E+02  0.00000000000E+00 0. -1.
         11    1    1    2    0    0 -0.46143333478E+02 -0.17388620436E+02 -0.12147796302E+03  0.13110479337E+03  0.00000000000E+00 0.  1.
</event>
<event>
 7    1  0.2693725E-009  0.1345514E+03  0.7561462E-02  0.1220854E+00
          1   -1    0    0  501    0  0.00000000000E+00  0.00000000000E+00  0.13844568581E+04  0.13844568581E+04  0.00000000000E+00 0. -1.
         -1   -1    0    0    0  501 -0.00000000000E+00 -0.00000000000E+00 -0.17468056823E+02  0.17468056823E+02  0.00000000000E+00 0.  1.
         25    2    1    2    0    0  0.59855310645E+01  0.10493298119E+03  0.91063994664E+03  0.92518060191E+03  0.12508907476E+03 0.  0.
          5    1    3    3  502    0  0.42975552678E+02  0.62385429984E+02  0.76811412327E+03  0.77185207053E+03  0.41800000000E+01 0. -1.
         -5    1    3    3    0  502 -0.36990021614E+02  0.42547551202E+02  0.14252582336E+03  0.15332853139E+03  0.41800000000E+01 0. -1.
        -11    1    1    2    0    0 -0.46286234549E+02 -0.66404234557E+02  0.23793757324E+03  0.25132892121E+03  0.00000000000E+00 0.  1.
         11    1    1    2    0    0  0.40300703485E+02 -0.38528746630E+02  0.21841128139E+03  0.22541539180E+03  0.00000000000E+00 0. -1.
</event>
<event>
 7    1  0.2693725E-009  0.7762359E+02  0.7561462E-02  0.1335934E+00
          1   -1    0    0  501    0  0.00000000000E+00  0.00000000000E+00  0.72708497947E+02  0.72708497947E+02  0.00000000000E+00 0. -1.
         -1   -1    0    0    0  501 -0.00000000000E+00 -0.00000000000E+00 -0.20739430757E+03  0.20739430757E+03  0.00000000000E+00 0.  1.
         25    2    1    2    0    0 -0.31725110696E+01 -0.24945027644E+02 -0.12810749001E+03  0.18081118096E+03  0.12509530340E+03 0.  0.
          5    1    3    3  502    0  0.41710672138E+02  0.20987755293E+02 -0.12533005048E+02  0.48526432570E+02  0.41800000000E+01 0.  1.
         -5    1    3    3    0  502 -0.44883183207E+02 -0.45932782937E+02 -0.11557448496E+03  0.13228474839E+03  0.41800000000E+01 0.  1.
        -11    1    1    2    0    0 -0.13696074575E+02 -0.23989167383E+00 -0.46892858689E+02  0.48852637624E+02  0.00000000000E+00 0.  1.
         11    1    1    2    0    0  0.16868585645E+02  0.25184919318E+02  0.40314539070E+02  0.50438986936E+02  0.00000000000E+00 0. -1.
</event>
<event>
 7    1  0.2693725E-009  0.1202937E+03  0.7561462E-02  0.1242613E+00
         -1   -1    0    0    0  501 -0.00000000000E+00  0.00000000000E+00  0.35885581656E+02  0.35885581656E+02  0.00000000000E+00 0.  1.
          1   -1    0    0  501    0  0.00000000000E+00 -0.00000000000E+00 -0.49613503111E+03  0.49613503111E+03  0.00000000000E+00 0. -1.
         25    2    1    2    0    0 -0.48967479652E+02 -0.46706370793E+02 -0.31980245192E+03  0.35000182900E+03  0.12509345670E+03 0.  0.
          5    1    3    3  502    0 -0.52493543134E+00 -0.77889275241E+02 -0.13001862787E+03  0.15162232932E+03  0.41800000000E+01 0.  1.
         -5    1    3    3    0  502 -0.48442544220E+02  0.31182904448E+02 -0.18978382405E+03  0.19837949968E+03  0.41800000000E+01 0.  1.
        -11    1    1    2    0    0  0.60399809277E+02  0.39119074996E+01 -0.11740580880E+03  0.13208922712E+03  0.00000000000E+00 0. -1.
         11    1    1    2    0    0 -0.11432329625E+02  0.42794463293E+02 -0.23041188733E+02  0.49929556652E+02  0.00000000000E+00 0.  1.
</event>
<event>
 7    1  0.2693725E-009  0.1270836E+03  0.7561462E-02  0.1231848E+00
          1   -1    0    0  501    0  0.00000000000E+00  0.00000000000E+00  0.44302421430E+03  0.44302421430E+03  0.00000000000E+00 0. -1.
         -1   -1    0    0    0  501 -0.00000000000E+00 -0.00000000000E+00 -0.45571766555E+02  0.45571766555E+02  0.00000000000E+00 0.  1.
         25    2    1    2    0    0  0.89574692138E+02 -0.16584199742E+02  0.20026677887E+03  0.25307951561E+03  0.12507516680E+03 0.  0.
          5    1    3    3  502    0  0.11726359761E+03 -0.15660408411E+02  0.18872116604E+03  0.22277601000E+03  0.41800000000E+01 0.  1.
         -5    1    3    3    0  502 -0.27688905477E+02 -0.92379133080E+00  0.11545612823E+02  0.30303505612E+02  0.41800000000E+01 0.  1.
        -11    1    1    2    0    0 -0.39545585871E+02  0.36602747260E+02  0.16306250104E+03  0.17173524308E+03  0.00000000000E+00 0. -1.
         11    1    1    2    0    0 -0.50029106266E+02 -0.20018547519E+02  0.34123167845E+02  0.63781222176E+02  0.00000000000E+00 0.  1.
</event>
<event>
 7    1  0.2693725E-009  0.9746093E+02  0.7561462E-02  0.1285728E+00
         -2   -1    0    0    0  501 -0.00000000000E+00  0.00000000000E+00  0.51131382278E+02  0.51131382278E+02  0.00000000000E+00 0. -1.
          2   -1    0    0  501    0  0.00000000000E+00 -0.00000000000E+00 -0.32933434125E+03  0.32933434125E+03  0.00000000000E+00 0.  1.
         25    2    1    2    0    0 -0.47227481323E+02  0.44074215774E+02 -0.20602045890E+03  0.24953080756E+03  0.12509285730E+03 0.  0.
          5    1    3    3  502    0 -0.19849771660E+00 -0.12807991695E+02 -0.16389213556E+03  0.16444509282E+03  0.41800000000E+01 0.  1.
         -5    1    3    3    0  502 -0.47028983606E+02  0.56882207470E+02 -0.42128323338E+02  0.85085714740E+02  0.41800000000E+01 0.  1.
        -11    1    1    2    0    0 -0.24778462208E+02 -0.19184288247E+02 -0.32051591979E+02  0.44825368413E+02  0.00000000000E+00 0.  1.
         11    1    1    2    0    0  0.72005943531E+02 -0.24889927528E+02 -0.40130908092E+02  0.86109547557E+02  0.00000000000E+00 0. -1.
</event>
<event>
 7    1  0.2693725E-009  0.8908634E+02  0.7561462E-02  0.1305079E+00
         -2   -1    0    0    0  501 -0.00000000000E+00  0.00000000000E+00  0.21796476174E+03  0.21796476174E+03  0.00000000000E+00 0.  1.
          2   -1    0    0  501    0  0.00000000000E+00 -0.00000000000E+00 -0.67600530343E+02  0.67600530343E+02  0.00000000000E+00 0. -1.
         25    2    1    2    0    0  0.52007645303E+02 -0.14742245448E+02  0.10646552747E+03  0.17292837270E+03  0.12508870682E+03 0.  0.
          5    1    3    3  502    0  0.14395980201E+02 -0.37890334872E+02 -0.15151106127E+02  0.43473556785E+02  0.41800000000E+01 0.  1.
         -5    1    3    3    0  502  0.37611665102E+02  0.23148089424E+02  0.12161663360E+03  0.12945481592E+03  0.41800000000E+01 0.  1.
        -11    1    1    2    0    0  0.14750957858E+02 -0.14039864665E+02 -0.94633616969E+01  0.22455818225E+02  0.00000000000E+00 0. -1.
         11    1    1    2    0    0 -0.66758603161E+02  0.28782110113E+02  0.53362065624E+02  0.90181101159E+02  0.00000000000E+00 0.  1.
</event>
<event>
 7    1  0.2693725E-009  0.1029934E+03  0.7561462E-02  0.1274124E+00
         -1   -1    0    0    0  501 -0.00000000000E+00  0.00000000000E+00  0.23152872042E+03  0.23152872042E+03  0.00000000000E+00 0.  1.
          1   -1    0    0  501    0  0.00000000000E+00 -0.00000000000E+00 -0.88565184136E+02  0.88565184136E+02  0.00000000000E+00 0. -1.
         25    2    1    2    0    0  0.89368926432E+02 -0.55620244602E+01  0.54420083855E+02  0.16317639863E+03  0.12508897000E+03 0.  0.
          5    1    3    3  502    0  0.72765178326E+02 -0.32692651006E+02  0.86544963906E+02  0.11777556531E+03  0.41800000000E+01 0.  1.
         -5    1    3    3    0  502  0.16603748106E+02  0.27130626545E+02 -0.32124880052E+02  0.45400833321E+02  0.41800000000E+01 0.  1.
        -11    1    1    2    0    0 -0.22299973812E+02 -0.11109248278E+02  0.84046596814E+02  0.87661477658E+02  0.00000000000E+00 0.  1.
         11    1    1    2    0    0 -0.67068952620E+02  0.16671272738E+02  0.44968556117E+01  0.69256028262E+02  0.00000000000E+00 0. -1.
</event>
<event>
 7    1  0.2693725E-009  0.2535097E+03  0.7561462E-02  0.1111107E+00
          2   -1    0    0  501    0  0.00000000000E+00  0.00000000000E+00  0.14643759361E+04  0.14643759361E+04  0.00000000000E+00 0. -1.
         -2   -1    0    0    0  501 -0.00000000000E+00 -0.00000000000E+00 -0.51361640707E+02  0.51361640707E+02  0.00000000000E+00 0.  1.
         25    2    1    2    0    0 -0.22244592853E+03 -0.76172318908E+02  0.96666178859E+03  0.10026800297E+04  0.12509122764E+03 0.  0.
          5    1    3    3  502    0 -0.23644938654E+03 -0.79820799841E+02  0.93287447723E+03  0.96568728642E+03  0.41800000000E+01 0.  1.
         -5    1    3    3    0  502  0.14003458014E+02  0.36484809331E+01  0.33787311357E+02  0.36992743318E+02  0.41800000000E+01 0.  1.
        -11    1    1    2    0    0  0.17001449649E+03  0.30292438021E+02  0.24309329098E+03  0.29818938435E+03  0.00000000000E+00 0.  1.
         11    1    1    2    0    0  0.52431432038E+02  0.45879880887E+02  0.20325921586E+03  0.21486816276E+03  0.00000000000E+00 0. -1.
</event>
<event>
 7    1  0.2693725E-009  0.1181699E+03  0.7561462E-02  0.1246147E+00
         -2   -1    0    0    0  501 -0.00000000000E+00  0.00000000000E+00  0.69739023901E+02  0.69739023901E+02  0.00000000000E+00 0.  1.
          2   -1    0    0  501    0  0.00000000000E+00 -0.00000000000E+00 -0.21062069656E+03  0.21062069656E+03  0.00000000000E+00 0. -1.
         25    2    1    2    0    0 -0.78091329759E+01  0.55221154719E+02 -0.75202682791E+02  0.15624758278E+03  0.12508998817E+03 0.  0.
          5    1    3    3  502    0  0.55233357124E+02  0.19264737441E+02 -0.11873709378E+02  0.59835701903E+02  0.41800000000E+01 0.  1.
         -5    1    3    3    0  502 -0.63042490100E+02  0.35956417277E+02 -0.63328973413E+02  0.96411880881E+02  0.41800000000E+01 0.  1.
        -11    1    1    2    0    0 -0.40568255114E+02 -0.29887669654E+02 -0.26763013120E+02  0.57055367772E+02  0.00000000000E+00 0.  1.
         11    1    1    2    0    0  0.48377388090E+02 -0.25333485064E+02 -0.38915976748E+02  0.67056769905E+02  0.00000000000E+00 0. -1.
</event>
<event>
 7    1  0.2693725E-009  0.1231173E+03  0.7561462E-02  0.1238041E+00
         -3   -1    0    0    0  501 -0.00000000000E+00  0.00000000000E+00  0.17955083023E+03  0.17955083023E+03  0.00000000000E+00 0.  1.
          3   -1    0    0  501    0  0.00000000000E+00 -0.00000000000E+00 -0.10569445105E+03  0.10569445105E+03  0.00000000000E+00 0. -1.
         25    2    1    2    0    0 -0.30494955090E+01  0.85399104452E+02  0.35798863825E+02  0.15566229957E+03  0.12508751493E+03 0.  0.
          5    1    3    3  502    0  0.30292797512E+02 -0.32271140684E+01 -0.27853766376E+02  0.41489426938E+02  0.41800000000E+01 0. -1.
         -5    1    3    3    0  502 -0.33342293021E+02  0.88626218521E+02  0.63652630201E+02  0.11417287263E+03  0.41800000000E+01 0. -1.
        -11    1    1    2    0    0 -0.39223399112E+02 -0.59049618720E+02  0.78405271119E+01  0.71321850609E+02  0.00000000000E+00 0.  1.
         11    1    1    2    0    0  0.42272894621E+02 -0.26349485732E+02  0.30216988247E+02  0.58261131097E+02  0.00000000000E+00 0. -1.
</event>
<event>
 7    1  0.2693725E-009  0.1087180E+03  0.7561462E-02  0.1262962E+00
         -1   -1    0    0    0  501 -0.00000000000E+00  0.00000000000E+00  0.10104554619E+02  0.10104554619E+02  0.00000000000E+00 0.  1.
          1   -1    0    0  501    0  0.00000000000E+00 -0.00000000000E+00 -0.17636289043E+04  0.17636289043E+04  0.00000000000E+00 0. -1.
         25    2    1    2    0    0  0.12379556519E+02  0.16123531505E+02 -0.13012503888E+04  0.13074090199E+04  0.12511014867E+03 0.  0.
          5    1    3    3  502    0 -0.46000008546E+02  0.21097478740E+02 -0.94374260858E+03  0.94510776531E+03  0.41800000000E+01 0. -1.
         -5    1    3    3    0  502  0.58379565064E+02 -0.49739472349E+01 -0.35750778019E+03  0.36230125458E+03  0.41800000000E+01 0. -1.
        -11    1    1    2    0    0 -0.59063256016E+02 -0.18227373418E+01 -0.17297251683E+03  0.18278753284E+03  0.00000000000E+00 0.  1.
         11    1    1    2    0    0  0.46683699498E+02 -0.14300794163E+02 -0.27930144409E+03  0.28353690621E+03  0.00000000000E+00 0. -1.
</event>
<event>
 7    1  0.2693725E-009  0.1360033E+03  0.7561462E-02  0.1218810E+00
         -1   -1    0    0    0  501 -0.00000000000E+00  0.00000000000E+00  0.86306996396E+02  0.86306996396E+02  0.00000000000E+00 0. -1.
          1   -1    0    0  501    0  0.00000000000E+00 -0.00000000000E+00 -0.26015165613E+03  0.26015165613E+03  0.00000000000E+00 0.  1.
         25    2    1    2    0    0  0.72128996670E+02  0.65870609552E+02 -0.56728134459E+02  0.16854191596E+03  0.12508703702E+03 0.  0.
          5    1    3    3  502    0  0.94198784482E+02  0.32392517062E+02 -0.93179074599E+00  0.99704697951E+02  0.41800000000E+01 0.  1.
         -5    1    3    3    0  502 -0.22069787812E+02  0.33478092489E+02 -0.55796343713E+02  0.68837218004E+02  0.41800000000E+01 0.  1.
        -11    1    1    2    0    0 -0.26183573482E+02  0.21101776260E+02 -0.43880530594E+02  0.55284405096E+02  0.00000000000E+00 0.  1.
         11    1    1    2    0    0 -0.45945423188E+02 -0.86972385812E+02 -0.73235994681E+02  0.12263233147E+03  0.00000000000E+00 0. -1.
</event>
<event>
 7    1  0.2693725E-009  0.1812495E+03  0.7561462E-02  0.1166599E+00
         -1   -1    0    0    0  501 -0.00000000000E+00  0.00000000000E+00  0.32472815649E+03  0.32472815649E+03  0.00000000000E+00 0. -1.
          1   -1    0    0  501    0  0.00000000000E+00 -0.00000000000E+00 -0.10646734123E+03  0.10646734123E+03  0.00000000000E+00 0.  1.
         25    2    1    2    0    0 -0.68756205778E+02  0.13403239876E+03  0.89992032671E+02  0.21549494955E+03  0.12508959823E+03 0.  0.
          5    1    3    3  502    0  0.26376411110E+02  0.82942593626E+02  0.48614974510E+02  0.99780143552E+02  0.41800000000E+01 0. -1.
         -5    1    3    3    0  502 -0.95132616889E+02  0.51089805137E+02  0.41377058160E+02  0.11571480600E+03  0.41800000000E+01 0. -1.
        -11    1    1    2    0    0  0.73592924728E+02 -0.65271043940E+02  0.46652162510E+02  0.10886988571E+03  0.00000000000E+00 0.  1.
         11    1    1    2    0    0 -0.48367189500E+01 -0.68761354823E+02  0.81616620083E+02  0.10683066246E+03  0.00000000000E+00 0. -1.
</event>
<event>
 7    1  0.2693725E-009  0.1313290E+03  0.7561462E-02  0.1225497E+00
          4   -1    0    0  501    0  0.00000000000E+00  0.00000000000E+00  0.15716669478E+03  0.15716669478E+03  0.00000000000E+00 0. -1.
         -4   -1    0    0    0  501 -0.00000000000E+00 -0.00000000000E+00 -0.12382793135E+03  0.12382793135E+03  0.00000000000E+00 0.  1.
         25    2    1    2    0    0 -0.39443627816E+02 -0.76050890036E+02  0.34251910805E+02  0.15543574297E+03  0.12509012410E+03 0.  0.
          5    1    3    3  502    0 -0.28468615139E+02 -0.10649654815E+03  0.47641855146E+02  0.12016320392E+03  0.41800000000E+01 0.  1.
         -5    1    3    3    0  502 -0.10975012677E+02  0.30445658111E+02 -0.13389944341E+02  0.35272539043E+02  0.41800000000E+01 0.  1.
        -11    1    1    2    0    0  0.65926975783E+02  0.52669103596E+02 -0.18053728227E+02  0.86292164838E+02  0.00000000000E+00 0.  1.
         11    1    1    2    0    0 -0.26483347967E+02  0.23381786441E+02  0.17140580848E+02  0.39266718331E+02  0.00000000000E+00 0. -1.
</event>
<event>
 7    1  0.2693725E-009  0.7959973E+02  0.7561462E-02  0.1330191E+00
         -2   -1    0    0    0  501 -0.00000000000E+00  0.00000000000E+00  0.71946085624E+02  0.71946085624E+02  0.00000000000E+00 0.  1.
          2   -1    0    0  501    0  0.00000000000E+00 -0.00000000000E+00 -0.23056359506E+03  0.23056359506E+03  0.00000000000E+00 0. -1.
         25    2    1    2    0    0  0.21265389110E+02 -0.62518798793E+02 -0.10679216209E+03  0.17723649120E+03  0.12508953175E+03 0.  0.
          5    1    3    3  502    0  0.34808658908E+02 -0.67124777758E+02 -0.66819234582E+01  0.76023016417E+02  0.41800000000E+01 0. -1.
         -5    1    3    3    0  502 -0.13543269799E+02  0.46059789656E+01 -0.10011023863E+03  0.10121347478E+03  0.41800000000E+01 0. -1.
        -11    1    1    2    0    0 -0.12913775303E+02  0.12908773381E+02  0.26500934389E+02  0.32182317292E+02  0.00000000000E+00 0.  1.
         11    1    1    2    0    0 -0.83516138070E+01  0.49610025412E+02 -0.78326281735E+02  0.93090872189E+02  0.00000000000E+00 0. -1.
</event>
<event>
 7    1  0.2693725E-009  0.8713658E+02  0.7561462E-02  0.1309938E+00
          2   -1    0    0  501    0  0.00000000000E+00  0.00000000000E+00  0.25775534296E+03  0.25775534296E+03  0.00000000000E+00 0. -1.
         -2   -1    0    0    0  501 -0.00000000000E+00 -0.00000000000E+00 -0.59213879963E+02  0.59213879963E+02  0.00000000000E+00 0.  1.
         25    2    1    2    0    0 -0.10288876862E+02  0.10397802401E+02  0.18934467069E+03  0.22740553189E+03  0.12509155181E+03 0.  0.
          5    1    3    3  502    0  0.35172693461E+02 -0.32017049991E+02  0.14000295339E+03  0.14792061794E+03  0.41800000000E+01 0.  1.
         -5    1    3    3    0  502 -0.45461570322E+02  0.42414852391E+02  0.49341717304E+02  0.79484913952E+02  0.41800000000E+01 0.  1.
        -11    1    1    2    0    0  0.12663719650E+02 -0.36173731280E+02 -0.25677336377E+02  0.46132789136E+02  0.00000000000E+00 0.  1.
         11    1    1    2    0    0 -0.23748427883E+01  0.25775928879E+02  0.34874128689E+02  0.43430901898E+02  0.00000000000E+00 0. -1.
</event>
<event>
 7    1  0.2693725E-009  0.1027565E+03  0.7561462E-02  0.1274604E+00
          3   -1    0    0  501    0  0.00000000000E+00  0.00000000000E+00  0.47677454935E+02  0.47677454935E+02  0.00000000000E+00 0. -1.
         -3   -1    0    0    0  501 -0.00000000000E+00 -0.00000000000E+00 -0.28019175336E+03  0.28019175336E+03  0.00000000000E+00 0.  1.
         25    2    1    2    0    0 -0.33988026002E+02  0.21429469367E+02 -0.12025290174E+03  0.17811026811E+03  0.12509236251E+03 0.  0.
          5    1    3    3  502    0 -0.55923251069E+02  0.62363644584E+02 -0.86969576090E+02  0.12082141259E+03  0.41800000000E+01 0. -1.
         -5    1    3    3    0  502  0.21935225067E+02 -0.40934175217E+02 -0.33283325653E+02  0.57288855513E+02  0.41800000000E+01 0. -1.
        -11    1    1    2    0    0 -0.18516312280E+02 -0.58926760362E+00  0.53518920178E+01  0.19283251929E+02  0.00000000000E+00 0. -1.
         11    1    1    2    0    0  0.52504338283E+02 -0.20840201763E+02 -0.11761328870E+03  0.13047568826E+03  0.00000000000E+00 0.  1.
</event>
<event>
 7    1  0.2693725E-009  0.1045601E+03  0.7561462E-02  0.1270989E+00
         -2   -1    0    0    0  501 -0.00000000000E+00  0.00000000000E+00  0.10885393620E+03  0.10885393620E+03  0.00000000000E+00 0.  1.
          2   -1    0    0  501    0  0.00000000000E+00 -0.00000000000E+00 -0.12029417780E+03  0.12029417780E+03  0.00000000000E+00 0. -1.
         25    2    1    2    0    0  0.37384321535E+02 -0.47408201484E+01 -0.23818892341E+02  0.13279612969E+03  0.12508960611E+03 0.  0.
          5    1    3    3  502    0  0.24479524296E+02  0.51726179520E+02  0.19220704102E+02  0.60512417104E+02  0.41800000000E+01 0.  1.
         -5    1    3    3    0  502  0.12904797239E+02 -0.56466999669E+02 -0.43039596443E+02  0.72283712587E+02  0.41800000000E+01 0.  1.
        -11    1    1    2    0    0  0.41736329540E+01 -0.35544742183E+02  0.14051868098E+02  0.38448704867E+02  0.00000000000E+00 0. -1.
         11    1    1    2    0    0 -0.41557954489E+02  0.40285562331E+02 -0.16732173616E+01  0.57903279441E+02  0.00000000000E+00 0.  1.
</event>
<event>
 7    1  0.2693725E-009  0.2428346E+03  0.7561462E-02  0.1117919E+00
         -2   -1    0    0    0  501 -0.00000000000E+00  0.00000000000E+00  0.81836118776E+02  0.81836118776E+02  0.00000000000E+00 0.  1.
          2   -1    0    0  501    0  0.00000000000E+00 -0.00000000000E+00 -0.93517713391E+03  0.93517713391E+03  0.00000000000E+00 0. -1.
         25    2    1    2    0    0 -0.88973943546E+02 -0.20363262074E+03 -0.21854758508E+03  0.33584731722E+03  0.12509103358E+03 0.  0.
          5    1    3    3  502    0 -0.25927792125E+02  0.78983165667E+01 -0.34876519328E+01  0.27645432264E+02  0.41800000000E+01 0.  1.
         -5    1    3    3    0  502 -0.63046151421E+02 -0.21153093731E+03 -0.21505993315E+03  0.30820188496E+03  0.41800000000E+01 0.  1.
        -11    1    1    2    0    0  0.27116789276E+02  0.27124234101E+01 -0.15440844421E+03  0.15679491428E+03  0.00000000000E+00 0.  1.
         11    1    1    2    0    0  0.61857154270E+02  0.20092019733E+03 -0.48038498584E+03  0.52437102118E+03  0.00000000000E+00 0. -1.
</event>
<event>
 7    1  0.2693725E-009  0.1126926E+03  0.7561462E-02  0.1255663E+00
          3   -1    0    0  501    0  0.00000000000E+00  0.00000000000E+00  0.28870832139E+03  0.28870832139E+03  0.00000000000E+00 0. -1.
         -3   -1    0    0    0  501 -0.00000000000E+00 -0.00000000000E+00 -0.65231740488E+02  0.65231740488E+02  0.00000000000E+00 0.  1.
         25    2    1    2    0    0  0.36815926611E+02 -0.75782218941E+02  0.11123680297E+03  0.18739844087E+03  0.12508473986E+03 0.  0.
          5    1    3    3  502    0  0.46681100597E+02 -0.38187709964E+01 -0.80176166207E+01  0.47701810670E+02  0.41800000000E+01 0.  1.
         -5    1    3    3    0  502 -0.98651739865E+01 -0.71963447945E+02  0.11925441959E+03  0.13969663020E+03  0.41800000000E+01 0.  1.
        -11    1    1    2    0    0 -0.34253348540E+02  0.48129668325E+01  0.10467275112E+01  0.34605666796E+02  0.00000000000E+00 0.  1.
         11    1    1    2    0    0 -0.25625780709E+01  0.70969252108E+02  0.11119305042E+03  0.13193595421E+03  0.00000000000E+00 0. -1.
</event>
<event>
 7    1  0.2693725E-009  0.1375682E+03  0.7561462E-02  0.1216639E+00
          1   -1    0    0  501    0  0.00000000000E+00  0.00000000000E+00  0.31566486319E+03  0.31566486319E+03  0.00000000000E+00 0. -1.
         -1   -1    0    0    0  501 -0.00000000000E+00 -0.00000000000E+00 -0.15140781830E+03  0.15140781830E+03  0.00000000000E+00 0.  1.
         25    2    1    2    0    0  0.84620255591E+02  0.61093691750E+02  0.25604267252E+03  0.30347711502E+03  0.12508989713E+03 0.  0.
          5    1    3    3  502    0  0.10879384492E+03  0.57988379357E+02  0.14812270422E+03  0.19276037129E+03  0.41800000000E+01 0. -1.
         -5    1    3    3    0  502 -0.24173589327E+02  0.31053123921E+01  0.10791996830E+03  0.11071674373E+03  0.41800000000E+01 0. -1.
        -11    1    1    2    0    0 -0.52334249008E+02  0.59205634726E+01 -0.11047545868E+02  0.53814263544E+02  0.00000000000E+00 0. -1.
         11    1    1    2    0    0 -0.32286006583E+02 -0.67014255222E+02 -0.80738081762E+02  0.10978130292E+03  0.00000000000E+00 0.  1.
</event>
<event>
 7    1  0.2693725E-009  0.1231139E+03  0.7561462E-02  0.1238047E+00
          2   -1    0    0  501    0  0.00000000000E+00  0.00000000000E+00  0.62305359452E+03  0.62305359452E+03  0.00000000000E+00 0. -1.
         -2   -1    0    0    0  501 -0.00000000000E+00 -0.00000000000E+00 -0.31058244769E+02  0.31058244769E+02  0.00000000000E+00 0.  1.
         25    2    1    2    0    0  0.70943938803E+02 -0.48494975720E+02  0.28806507603E+03  0.32559733317E+03  0.12508928899E+03 0.  0.
          5    1    3    3  502    0 -0.26512065479E+02 -0.13060323589E+02  0.14964010539E+03  0.15258799169E+03  0.41800000000E+01 0. -1.
         -5    1    3    3    0  502  0.97456004283E+02 -0.35434652132E+02  0.13842497064E+03  0.17300934148E+03  0.41800000000E+01 0. -1.
        -11    1    1    2    0    0 -0.12828107049E+02 -0.19380155087E+02  0.13904033381E+03  0.14096937671E+03  0.00000000000E+00 0. -1.
         11    1    1    2    0    0 -0.58115831754E+02  0.67875130808E+02  0.16488993991E+03  0.18754512941E+03  0.00000000000E+00 0.  1.
</event>
<event>
 7    1  0.2693725E-009  0.1510172E+03  0.7561462E-02  0.1199229E+00
          1   -1    0    0  501    0  0.00000000000E+00  0.00000000000E+00  0.60351606430E+03  0.60351606430E+03  0.00000000000E+00 0. -1.
         -1   -1    0    0    0  501 -0.00000000000E+00 -0.00000000000E+00 -0.49004635847E+02  0.49004635847E+02  0.00000000000E+00 0.  1.
         25    2    1    2    0    0 -0.12060778368E+03 -0.30199800725E+02  0.38145496139E+03  0.42025276909E+03  0.12508491880E+03 0.  0.
          5    1    3    3  502    0 -0.76599130355E+01 -0.59048302187E+02  0.12570222002E+03  0.13915421940E+03  0.41800000000E+01 0.  1.
         -5    1    3    3    0  502 -0.11294787065E+03  0.28848501462E+02  0.25575274137E+03  0.28109854969E+03  0.41800000000E+01 0.  1.
        -11    1    1    2    0    0  0.82397624197E+02  0.11635913946E+02  0.39492351078E+02  0.92110850394E+02  0.00000000000E+00 0.  1.
         11    1    1    2    0    0  0.38210159488E+02  0.18563886779E+02  0.13356411598E+03  0.14015708066E+03  0.00000000000E+00 0. -1.
</event>
<event>
 7    1  0.2693725E-009  0.1282973E+03  0.7561462E-02  0.1230004E+00
          1   -1    0    0  501    0  0.00000000000E+00  0.00000000000E+00  0.13948604424E+03  0.13948604424E+03  0.00000000000E+00 0. -1.
         -1   -1    0    0    0  501 -0.00000000000E+00 -0.00000000000E+00 -0.12331392682E+03  0.12331392682E+03  0.00000000000E+00 0.  1.
         25    2    1    2    0    0  0.50845820854E+02  0.49191804607E+02 -0.11012840157E+02  0.14413026467E+03  0.12508844633E+03 0.  0.
          5    1    3    3  502    0 -0.38603585800E+02 -0.18037412677E+01  0.70624045618E+01  0.39507471159E+02  0.41800000000E+01 0. -1.
         -5    1    3    3    0  502  0.89449406653E+02  0.50995545875E+02 -0.18075244719E+02  0.10462279351E+03  0.41800000000E+01 0. -1.
        -11    1    1    2    0    0  0.25818876289E+02 -0.53798058638E+01  0.32864373634E+00  0.26375456217E+02  0.00000000000E+00 0.  1.
         11    1    1    2    0    0 -0.76664697143E+02 -0.43811998743E+02  0.26856313838E+02  0.92294250172E+02  0.00000000000E+00 0. -1.
</event>
<event>
 7    1  0.2693725E-009  0.8626645E+02  0.7561462E-02  0.1312153E+00
         -2   -1    0    0    0  501 -0.00000000000E+00  0.00000000000E+00  0.68650498175E+02  0.68650498175E+02  0.00000000000E+00 0.  1.
          2   -1    0    0  501    0  0.00000000000E+00 -0.00000000000E+00 -0.22407880529E+03  0.22407880529E+03  0.00000000000E+00 0. -1.
         25    2    1    2    0    0 -0.99613723885E+01 -0.60564772326E+02 -0.96529499752E+02  0.16950537301E+03  0.12508719587E+03 0.  0.
          5    1    3    3  502    0 -0.12233682925E+02 -0.81265344238E+02 -0.12987924978E+02  0.83305928765E+02  0.41800000000E+01 0.  1.
         -5    1    3    3    0  502  0.22723105364E+01  0.20700571912E+02 -0.83541574774E+02  0.86199444246E+02  0.41800000000E+01 0.  1.
        -11    1    1    2    0    0  0.17676205230E+02  0.16206549158E+02 -0.72360171715E+02  0.76230537959E+02  0.00000000000E+00 0. -1.
         11    1    1    2    0    0 -0.77148328412E+01  0.44358223168E+02  0.13461364348E+02  0.46993392499E+02  0.00000000000E+00 0.  1.
</event>
<event>
 7    1  0.2693725E-009  0.9523271E+02  0.7561462E-02  0.1290653E+00
          2   -1    0    0  501    0  0.00000000000E+00  0.00000000000E+00  0.43260660246E+03  0.43260660246E+03  0.00000000000E+00 0. -1.
         -2   -1    0    0    0  501 -0.00000000000E+00 -0.00000000000E+00 -0.30435254328E+02  0.30435254328E+02  0.00000000000E+00 0.  1.
         25    2    1    2    0    0  0.20400642638E+02  0.28549924714E+02  0.20007139306E+03  0.23855201762E+03  0.12508884191E+03 0.  0.
          5    1    3    3  502    0  0.54855356989E+02 -0.21000560708E+02  0.14594149521E+03  0.15737384206E+03  0.41800000000E+01 0.  1.
         -5    1    3    3    0  502 -0.34454714351E+02  0.49550485422E+02  0.54129897846E+02  0.81178175561E+02  0.41800000000E+01 0.  1.
        -11    1    1    2    0    0 -0.39638210382E+02 -0.39224883648E+01  0.30768381609E+02  0.50331570054E+02  0.00000000000E+00 0.  1.
         11    1    1    2    0    0  0.19237567745E+02 -0.24627436349E+02  0.17133157346E+03  0.17415826911E+03  0.00000000000E+00 0. -1.
</event>
<event>
 7    1  0.2693725E-009  0.1038748E+03  0.7561462E-02  0.1272353E+00
          1   -1    0    0  501    0  0.00000000000E+00  0.00000000000E+00  0.66049948916E+02  0.66049948916E+02  0.00000000000E+00 0. -1.
         -1   -1    0    0    0  501 -0.00000000000E+00 -0.00000000000E+00 -0.21719298891E+03  0.21719298891E+03  0.00000000000E+00 0.  1.
         25    2    1    2    0    0 -0.29662936206E+02 -0.23546362776E+02 -0.44660665876E+02  0.13811646237E+03  0.12508901277E+03 0.  0.
          5    1    3    3  502    0  0.32039423842E+01  0.49098924319E+02 -0.71331279246E+01  0.49893121070E+02  0.41800000000E+01 0. -1.
         -5    1    3    3    0  502 -0.32866878590E+02 -0.72645287095E+02 -0.37527537951E+02  0.88223341299E+02  0.41800000000E+01 0. -1.
        -11    1    1    2    0    0 -0.94993693379E+01  0.36155775275E+02 -0.95481705823E+02  0.10253894017E+03  0.00000000000E+00 0.  1.
         11    1    1    2    0    0  0.39162305544E+02 -0.12609412500E+02 -0.11000668294E+02  0.42587535289E+02  0.00000000000E+00 0. -1.
</event>
<event>
 7    1  0.2693725E-009  0.1022100E+03  0.7561462E-02  0.1275716E+00
          1   -1    0    0  501    0  0.00000000000E+00  0.00000000000E+00  0.53948812955E+03  0.53948812955E+03  0.00000000000E+00 0. -1.
         -1   -1    0    0    0  501 -0.00000000000E+00 -0.00000000000E+00 -0.36990453710E+02  0.36990453710E+02  0.00000000000E+00 0.  1.
         25    2    1    2    0    0  0.35721577819E+01  0.61993118643E+02  0.40527000633E+03  0.42865755261E+03  0.12509041655E+03 0.  0.
          5    1    3    3  502    0  0.50380403561E+02  0.86718008735E+01  0.75233282080E+02  0.91054403111E+02  0.41800000000E+01 0. -1.
         -5    1    3    3    0  502 -0.46808245779E+02  0.53321317770E+02  0.33003672425E+03  0.33760314950E+03  0.41800000000E+01 0. -1.
        -11    1    1    2    0    0 -0.17101278462E+02 -0.65810206691E+02  0.10967638823E+03  0.12904397377E+03  0.00000000000E+00 0. -1.
         11    1    1    2    0    0  0.13529120680E+02  0.38170880479E+01 -0.12448718716E+02  0.18777056884E+02  0.00000000000E+00 0.  1.
</event>
<event>
 7    1  0.2693725E-009  0.1663418E+03  0.7561462E-02  0.1181717E+00
         -2   -1    0    0    0  501 -0.00000000000E+00  0.00000000000E+00  0.70568832785E+02  0.70568832785E+02  0.00000000000E+00 0.  1.
          2   -1    0    0  501    0  0.00000000000E+00 -0.00000000000E+00 -0.46167589605E+03  0.46167589605E+03  0.00000000000E+00 0. -1.
         25    2    1    2    0    0 -0.82181453277E+02 -0.10006144118E+03 -0.29515602983E+03  0.34573206284E+03  0.12508994387E+03 0.  0.
          5    1    3    3  502    0 -0.46431886837E+02  0.19858016627E+02 -0.54262902299E+02  0.74244164117E+02  0.41800000000E+01 0.  1.
         -5    1    3    3    0  502 -0.35749566440E+02 -0.11991945781E+03 -0.24089312753E+03  0.27148789872E+03  0.41800000000E+01 0.  1.
        -11    1    1    2    0    0  0.10089095972E+03  0.91608554622E+02 -0.69339783512E+02  0.15290231722E+03  0.00000000000E+00 0.  1.
         11    1    1    2    0    0 -0.18709506442E+02  0.84528865592E+01 -0.26611249928E+02  0.33610348781E+02  0.00000000000E+00 0. -1.
</event>
<event>
 7    1  0.2693725E-009  0.1148261E+03  0.7561462E-02  0.1251885E+00
          2   -1    0    0  501    0  0.00000000000E+00  0.00000000000E+00  0.16014998179E+03  0.16014998179E+03  0.00000000000E+00 0. -1.
         -2   -1    0    0    0  501 -0.00000000000E+00 -0.00000000000E+00 -0.10570611441E+03  0.10570611441E+03  0.00000000000E+00 0.  1.
         25    2    1    2    0    0 -0.36522436912E+02 -0.60263242370E+02  0.37130058371E+02  0.14829740863E+03  0.12509169994E+03 0.  0.
          5    1    3    3  502    0 -0.16947827146E+01 -0.79378057564E+02  0.62364354097E+02  0.10104718389E+03  0.41800000000E+01 0.  1.
         -5    1    3    3    0  502 -0.34827654198E+02  0.19114815194E+02 -0.25234295725E+02  0.47250224736E+02  0.41800000000E+01 0.  1.
        -11    1    1    2    0    0  0.12534427862E+02 -0.21555972839E+02 -0.11633470622E+02  0.27515622573E+02  0.00000000000E+00 0.  1.
         11    1    1    2    0    0  0.23988009051E+02  0.81819215209E+02  0.28947279629E+02  0.90043064994E+02  0.00000000000E+00 0. -1.
</event>
<event>
 7    1  0.2693725E-009  0.1037294E+03  0.7561462E-02  0.1272643E+00
          2   -1    0    0  501    0  0.00000000000E+00  0.00000000000E+00  0.93664659455E+02  0.93664659455E+02  0.00000000000E+00 0. -1.
         -2   -1    0    0    0  501 -0.00000000000E+00 -0.00000000000E+00 -0.13105932634E+03  0.13105932634E+03  0.00000000000E+00 0.  1.
         25    2    1    2    0    0  0.22413653393E+02  0.76999035749E+01 -0.19088876121E+02  0.12874242504E+03  0.12509423025E+03 0.  0.
          5    1    3    3  502    0  0.68146990223E+02 -0.16732376812E+02 -0.28546979861E+02  0.75870858499E+02  0.41800000000E+01 0. -1.
         -5    1    3    3    0  502 -0.45733336830E+02  0.24432280387E+02  0.94581037399E+01  0.52871566545E+02  0.41800000000E+01 0. -1.
        -11    1    1    2    0    0 -0.31950693746E+02  0.31460342863E+02 -0.30077169439E+02  0.53992926624E+02  0.00000000000E+00 0.  1.
         11    1    1    2    0    0  0.95370403531E+01 -0.39160246438E+02  0.11771378676E+02  0.41988634126E+02  0.00000000000E+00 0. -1.
</event>
<event>
 7    1  0.2693725E-009  0.1239219E+03  0.7561462E-02  0.1236764E+00
         -2   -1    0    0    0  501 -0.00000000000E+00  0.00000000000E+00  0.25519536410E+03  0.25519536410E+03  0.00000000000E+00 0.  1.
          2   -1    0    0  501    0  0.00000000000E+00 -0.00000000000E+00 -0.69538822645E+02  0.69538822645E+02  0.00000000000E+00 0. -1.
         25    2    1    2    0    0 -0.75824001584E+02 -0.37655115953E+01  0.84460846555E+02  0.16895375352E+03  0.12509307708E+03 0.  0.
          5    1    3    3  502    0 -0.52029646946E+02  0.56232553580E+02  0.67245456256E+02  0.10202258588E+03  0.41800000000E+01 0.  1.
         -5    1    3    3    0  502 -0.23794354638E+02 -0.59998065175E+02  0.17215390299E+02  0.66931167632E+02  0.41800000000E+01 0.  1.
        -11    1    1    2    0    0  0.87602908409E+02  0.16445551525E+02  0.51016642189E+02  0.10270064998E+03  0.00000000000E+00 0. -1.
         11    1    1    2    0    0 -0.11778906825E+02 -0.12680039930E+02  0.50179052713E+02  0.53079783249E+02  0.00000000000E+00 0.  1.
</event>
<event>
 7    1  0.2693725E-009  0.1314657E+03  0.7561462E-02  0.1225297E+00
         -1   -1    0    0    0  501 -0.00000000000E+00  0.00000000000E+00  0.10285824611E+03  0.10285824611E+03  0.00000000000E+00 0.  1.
          1   -1    0    0  501    0  0.00000000000E+00 -0.00000000000E+00 -0.20531020816E+03  0.20531020816E+03  0.00000000000E+00 0. -1.
         25    2    1    2    0    0  0.43346039398E+02  0.85992741411E+02 -0.52779472673E+02  0.16644957398E+03  0.12508460031E+03 0.  0.
          5    1    3    3  502    0  0.15631072066E+02 -0.32385695491E+02 -0.11496178431E+02  0.37984183615E+02  0.41800000000E+01 0.  1.
         -5    1    3    3    0  502  0.27714967332E+02  0.11837843690E+03 -0.41283294242E+02  0.12846539036E+03  0.41800000000E+01 0.  1.
        -11    1    1    2    0    0  0.80552933541E+01 -0.62143050582E+01  0.21038175757E+02  0.23369000354E+02  0.00000000000E+00 0.  1.
         11    1    1    2    0    0 -0.51401332752E+02 -0.79778436353E+02 -0.70710665137E+02  0.11834987993E+03  0.00000000000E+00 0. -1.
</event>
<event>
 7    1  0.2693725E-009  0.1463616E+03  0.7561462E-02  0.1205016E+00
          2   -1    0    0  501    0  0.00000000000E+00  0.00000000000E+00  0.82183515422E+03  0.82183515422E+03  0.00000000000E+00 0. -1.
         -2   -1    0    0    0  501 -0.00000000000E+00 -0.00000000000E+00 -0.27364848732E+02  0.27364848732E+02  0.00000000000E+00 0.  1.
         25    2    1    2    0    0 -0.53495949273E+02  0.86897751370E+02  0.38430058892E+03  0.41683516559E+03  0.12510626220E+03 0.  0.
          5    1    3    3  502    0 -0.41826880569E+02 -0.24796467261E+02  0.12750627709E+03  0.13652719811E+03  0.41800000000E+01 0.  1.
         -5    1    3    3    0  502 -0.11669068703E+02  0.11169421863E+03  0.25679431183E+03  0.28030796747E+03  0.41800000000E+01 0.  1.
        -11    1    1    2    0    0  0.70279630104E+02 -0.38114331213E+02  0.30381051658E+03  0.31415403648E+03  0.00000000000E+00 0. -1.
         11    1    1    2    0    0 -0.16783680832E+02 -0.48783420158E+02  0.10635919998E+03  0.11821080088E+03  0.00000000000E+00 0.  1.
</event>
<event>
 7    1  0.2693725E-009  0.1590127E+03  0.7561462E-02  0.1189816E+00
          2   -1    0    0  501    0  0.00000000000E+00  0.00000000000E+00  0.24056701186E+03  0.24056701186E+03  0.00000000000E+00 0. -1.
         -2   -1    0    0    0  501 -0.00000000000E+00 -0.00000000000E+00 -0.12457901263E+03  0.12457901263E+03  0.00000000000E+00 0.  1.
         25    2    1    2    0    0  0.10593994942E+03 -0.48909499129E+02 -0.97331356187E+01  0.17133970727E+03  0.12508856611E+03 0.  0.
          5    1    3    3  502    0  0.56030482526E+02 -0.90116785197E+02 -0.68557196627E+01  0.10641862261E+03  0.41800000000E+01 0.  1.
         -5    1    3    3    0  502  0.49909466897E+02  0.41207286068E+02 -0.28774159561E+01  0.64921084662E+02  0.41800000000E+01 0.  1.
        -11    1    1    2    0    0 -0.79483506289E+02 -0.12167727283E+02  0.76878502181E+02  0.11124740652E+03  0.00000000000E+00 0. -1.
         11    1    1    2    0    0 -0.26456443135E+02  0.61077226412E+02  0.48842632672E+02  0.82558910699E+02  0.00000000000E+00 0.  1.
</event>
<event>
 7    1  0.2693725E-009  0.1658672E+03  0.7561462E-02  0.1182228E+00
          1   -1    0    0  501    0  0.00000000000E+00  0.00000000000E+00  0.44708073301E+02  0.44708073301E+02  0.00000000000E+00 0. -1.
         -1   -1    0    0    0  501 -0.00000000000E+00 -0.00000000000E+00 -0.68765067684E+03  0.68765067684E+03  0.00000000000E+00 0.  1.
         25    2    1    2    0    0 -0.12979564227E+03  0.29147384375E+02 -0.41331793882E+03  0.45185778028E+03  0.12508899345E+03 0.  0.
          5    1    3    3  502    0  0.38944055346E+01 -0.31371531333E+02 -0.11549745535E+03  0.11981850427E+03  0.41800000000E+01 0.  1.
         -5    1    3    3    0  502 -0.13369004781E+03  0.60518915708E+02 -0.29782048347E+03  0.33203927601E+03  0.41800000000E+01 0.  1.
        -11    1    1    2    0    0  0.12532911223E+03 -0.18148358278E+01 -0.21576860930E+03  0.24953310955E+03  0.00000000000E+00 0.  1.
         11    1    1    2    0    0  0.44665300445E+01 -0.27332548547E+02 -0.13856055422E+02  0.30967860316E+02  0.00000000000E+00 0. -1.
</event>
<event>
 7    1  0.2693725E-009  0.1122143E+03  0.7561462E-02  0.1256523E+00
         -2   -1    0    0    0  501 -0.00000000000E+00  0.00000000000E+00  0.20025423973E+02  0.20025423973E+02  0.00000000000E+00 0.  1.
          2   -1    0    0  501    0  0.00000000000E+00 -0.00000000000E+00 -0.11100073306E+04  0.11100073306E+04  0.00000000000E+00 0. -1.
         25    2    1    2    0    0  0.95499982406E+02  0.33907577305E+02 -0.54735836427E+03  0.57054295626E+03  0.12509242808E+03 0.  0.
          5    1    3    3  502    0  0.35840128188E+02  0.68968500687E+01 -0.45907018839E+03  0.46053772006E+03  0.41800000000E+01 0. -1.
         -5    1    3    3    0  502  0.59659854218E+02  0.27010727237E+02 -0.88288175884E+02  0.11000523620E+03  0.41800000000E+01 0. -1.
        -11    1    1    2    0    0  0.42212343419E+01 -0.21113056462E+02 -0.29000748655E+02  0.36119570804E+02  0.00000000000E+00 0.  1.
         11    1    1    2    0    0 -0.99721216748E+02 -0.12794520844E+02 -0.51362279368E+03  0.52337022749E+03  0.00000000000E+00 0. -1.
</event>
<event>
 7    1  0.2693725E-009  0.1092152E+03  0.7561462E-02  0.1262030E+00
         -2   -1    0    0    0  501 -0.00000000000E+00  0.00000000000E+00  0.52750487916E+02  0.52750487916E+02  0.00000000000E+00 0.  1.
          2   -1    0    0  501    0  0.00000000000E+00 -0.00000000000E+00 -0.34139526309E+03  0.34139526309E+03  0.00000000000E+00 0. -1.
         25    2    1    2    0    0 -0.12602695211E+02 -0.69028746955E+02 -0.21423511903E+03  0.25781311892E+03  0.12508845762E+03 0.  0.
          5    1    3    3  502    0 -0.30120809349E+02 -0.10162147335E+03 -0.16299832037E+03  0.19447393615E+03  0.41800000000E+01 0. -1.
         -5    1    3    3    0  502  0.17518114138E+02  0.32592726390E+02 -0.51236798665E+02  0.63339182770E+02  0.41800000000E+01 0. -1.
        -11    1    1    2    0    0  0.19943635316E+02  0.61285790449E+02 -0.94030993059E+02  0.11399791382E+03  0.00000000000E+00 0. -1.
         11    1    1    2    0    0 -0.73409401047E+01  0.77429565063E+01  0.19621336919E+02  0.22334718256E+02  0.00000000000E+00 0.  1.
</event>
<event>
 7    1  0.2693725E-009  0.1171245E+03  0.7561462E-02  0.1247918E+00
         -3   -1    0    0    0  501 -0.00000000000E+00  0.00000000000E+00  0.89046541234E+02  0.89046541234E+02  0.00000000000E+00 0.  1.
          3   -1    0    0  501    0  0.00000000000E+00 -0.00000000000E+00 -0.52336379521E+03  0.52336379521E+03  0.00000000000E+00 0. -1.
         25    2    1    2    0    0 -0.61307331757E+02  0.65514650786E+02  0.58663628060E+01  0.15405393723E+03  0.12508973966E+03 0.  0.
          5    1    3    3  502    0 -0.64074869170E+02  0.98508380122E+01  0.50699539097E+02  0.82404754313E+02  0.41800000000E+01 0. -1.
         -5    1    3    3    0  502  0.27675374133E+01  0.55663812774E+02 -0.44833176291E+02  0.71649182914E+02  0.41800000000E+01 0. -1.
        -11    1    1    2    0    0  0.55004988691E+02 -0.80295638396E+02 -0.42582752639E+03  0.43680890622E+03  0.00000000000E+00 0. -1.
         11    1    1    2    0    0  0.63023430658E+01  0.14780987610E+02 -0.14356090389E+02  0.21547492989E+02  0.00000000000E+00 0.  1.
</event>
<event>
 7    1  0.2693725E-009  0.1200352E+03  0.7561462E-02  0.1243039E+00
         -1   -1    0    0    0  501 -0.00000000000E+00  0.00000000000E+00  0.12941158595E+02  0.12941158595E+02  0.00000000000E+00 0.  1.
          1   -1    0    0  501    0  0.00000000000E+00 -0.00000000000E+00 -0.11281977962E+04  0.11281977962E+04  0.00000000000E+00 0. -1.
         25    2    1    2    0    0 -0.60712101724E+02  0.16087535125E+02 -0.65841491119E+03  0.67312937426E+03  0.12509273013E+03 0.  0.
          5    1    3    3  502    0  0.11870387025E+02 -0.43729972375E+02 -0.23646553125E+03  0.24080414540E+03  0.41800000000E+01 0. -1.
         -5    1    3    3    0  502 -0.72582488749E+02  0.59817507500E+02 -0.42194937994E+03  0.43232522886E+03  0.41800000000E+01 0. -1.
        -11    1    1    2    0    0  0.55733136254E+02 -0.44657240206E+02 -0.28987688698E+03  0.29854490648E+03  0.00000000000E+00 0. -1.
         11    1    1    2    0    0  0.49789654701E+01  0.28569705081E+02 -0.16696483942E+03  0.16946467404E+03  0.00000000000E+00 0.  1.
</event>
<event>
 7    1  0.2693725E-009  0.8982968E+02  0.7561462E-02  0.1303265E+00
          3   -1    0    0  501    0  0.00000000000E+00  0.00000000000E+00  0.34438989263E+02  0.34438989263E+02  0.00000000000E+00 0. -1.
         -3   -1    0    0    0  501 -0.00000000000E+00 -0.00000000000E+00 -0.40634797728E+03  0.40634797728E+03  0.00000000000E+00 0.  1.
         25    2    1    2    0    0  0.30370782112E+02  0.10060039002E+02 -0.27554477951E+03  0.30429613405E+03  0.12509045884E+03 0.  0.
          5    1    3    3  502    0  0.45439883942E+02  0.55382438414E+02 -0.10528242106E+03  0.12741215846E+03  0.41800000000E+01 0. -1.
         -5    1    3    3    0  502 -0.15069101830E+02 -0.45322399412E+02 -0.17026235844E+03  0.17688397559E+03  0.41800000000E+01 0. -1.
        -11    1    1    2    0    0  0.12884796492E+02 -0.10617716650E+02  0.11501402191E+02  0.20274026237E+02  0.00000000000E+00 0. -1.
         11    1    1    2    0    0 -0.43255578604E+02  0.55767764821E+00 -0.10786561070E+03  0.11621680626E+03  0.00000000000E+00 0.  1.
</event>
<event>
 7    1  0.2693725E-009  0.9682286E+02  0.7561462E-02  0.1287123E+00
          2   -1    0    0  501    0  0.00000000000E+00  0.00000000000E+00  0.84236299203E+03  0.84236299203E+03  0.00000000000E+00 0. -1.
         -2   -1    0    0    0  501 -0.00000000000E+00 -0.00000000000E+00 -0.18220458080E+02  0.18220458080E+02  0.00000000000E+00 0.  1.
         25    2    1    2    0    0  0.62781065039E+02 -0.57747038970E+02  0.47436884634E+03  0.49794483355E+03  0.12508825782E+03 0.  0.
          5    1    3    3  502    0  0.19706160648E+02  0.11209360635E+02  0.78160785239E+01  0.24342268111E+02  0.41800000000E+01 0.  1.
         -5    1    3    3    0  502  0.43074904391E+02 -0.68956399604E+02  0.46655276781E+03  0.47360256544E+03  0.41800000000E+01 0.  1.
        -11    1    1    2    0    0 -0.16918097181E+01  0.13855402980E+02  0.19965783659E+02  0.24361176674E+02  0.00000000000E+00 0.  1.
         11    1    1    2    0    0 -0.61089255321E+02  0.43891635990E+02  0.32980790395E+03  0.33827743988E+03  0.00000000000E+00 0. -1.
</event>
<event>
 7    1  0.2693725E-009  0.1015112E+03  0.7561462E-02  0.1277150E+00
          1   -1    0    0  501    0  0.00000000000E+00  0.00000000000E+00  0.25667378477E+03  0.25667378477E+03  0.00000000000E+00 0. -1.
         -1   -1    0    0    0  501 -0.00000000000E+00 -0.00000000000E+00 -0.46030180630E+02  0.46030180630E+02  0.00000000000E+00 0.  1.
         25    2    1    2    0    0 -0.57946006947E+01  0.13837884874E+01  0.12576007495E+03  0.17748520829E+03  0.12509960208E+03 0.  0.
          5    1    3    3  502    0 -0.13726740942E+02 -0.60771132602E+02  0.63037981057E+02  0.88728875967E+02  0.41800000000E+01 0. -1.
         -5    1    3    3    0  502  0.79321402472E+01  0.62154921089E+02  0.62722093891E+02  0.88756332318E+02  0.41800000000E+01 0. -1.
        -11    1    1    2    0    0  0.23467619684E+02  0.32192607366E+02  0.96986442036E+01  0.41001912663E+02  0.00000000000E+00 0. -1.
         11    1    1    2    0    0 -0.17673018989E+02 -0.33576395854E+02  0.75184884990E+02  0.84216844454E+02  0.00000000000E+00 0.  1.
</event>
<event>
 7    1  0.2693725E-009  0.3954139E+02  0.7561462E-02  0.1511614E+00
         -2   -1    0    0    0  501 -0.00000000000E+00  0.00000000000E+00  0.37063446480E+02  0.37063446480E+02  0.00000000000E+00 0.  1.
          2   -1    0    0  501    0  0.00000000000E+00 -0.00000000000E+00 -0.42798634705E+03  0.42798634705E+03  0.00000000000E+00 0. -1.
         25    2    1    2    0    0 -0.18846384764E+02 -0.80710107229E+01 -0.32997344638E+03  0.35348295163E+03  0.12508954530E+03 0.  0.
          5    1    3    3  502    0 -0.83915333836E+01 -0.14196022877E+01 -0.33800382570E+03  0.33813679434E+03  0.41800000000E+01 0.  1.
         -5    1    3    3    0  502 -0.10454851381E+02 -0.66514084353E+01  0.80303793148E+01  0.15346157288E+02  0.41800000000E+01 0.  1.
        -11    1    1    2    0    0 -0.18417398740E+02  0.10439310684E+00 -0.70015461823E+02  0.72397350563E+02  0.00000000000E+00 0. -1.
         11    1    1    2    0    0  0.37263783504E+02  0.79666176161E+01  0.90660076319E+01  0.39169491338E+02  0.00000000000E+00 0.  1.
</event>
<event>
 7    1  0.2693725E-009  0.1191603E+03  0.7561462E-02  0.1244489E+00
          1   -1    0    0  501    0  0.00000000000E+00  0.00000000000E+00  0.23448364966E+03  0.23448364966E+03  0.00000000000E+00 0. -1.
         -1   -1    0    0    0  501 -0.00000000000E+00 -0.00000000000E+00 -0.11292870997E+03  0.11292870997E+03  0.00000000000E+00 0.  1.
         25    2    1    2    0    0  0.15520086838E+02 -0.82802651815E+02  0.15716777183E+03  0.21782095950E+03  0.12508840734E+03 0.  0.
          5    1    3    3  502    0 -0.29602877140E+02 -0.48628755685E+02  0.72789679005E+01  0.57545998889E+02  0.41800000000E+01 0.  1.
         -5    1    3    3    0  502  0.45122963978E+02 -0.34173896130E+02  0.14988880393E+03  0.16027496061E+03  0.41800000000E+01 0.  1.
        -11    1    1    2    0    0  0.38265750288E+02  0.43044551211E+02 -0.19345306596E+02  0.60756414652E+02  0.00000000000E+00 0. -1.
         11    1    1    2    0    0 -0.53785837126E+02  0.39758100604E+02 -0.16267525543E+02  0.68834985482E+02  0.00000000000E+00 0.  1.
</event>
<event>
 7    1  0.2693725E-009  0.1023324E+03  0.7561462E-02  0.1275466E+00
          1   -1    0    0  501    0  0.00000000000E+00  0.00000000000E+00  0.38109332616E+03  0.38109332616E+03  0.00000000000E+00 0. -1.
         -1   -1    0    0    0  501 -0.00000000000E+00 -0.00000000000E+00 -0.48150667571E+02  0.48150667571E+02  0.00000000000E+00 0.  1.
         25    2    1    2    0    0  0.75260585626E+02 -0.79325773195E+01  0.29110730737E+03  0.32575777444E+03  0.12509029409E+03 0.  0.
          5    1    3    3  502    0  0.17781766332E+02 -0.40136664157E+02  0.23184292104E+02  0.49820947642E+02  0.41800000000E+01 0. -1.
         -5    1    3    3    0  502  0.57478819294E+02  0.32204086838E+02  0.26792301526E+03  0.27593682680E+03  0.41800000000E+01 0. -1.
        -11    1    1    2    0    0 -0.34664141137E+01  0.21249328754E+02  0.11587184550E+02  0.24450211555E+02  0.00000000000E+00 0.  1.
         11    1    1    2    0    0 -0.71794171513E+02 -0.13316751434E+02  0.30248166675E+02  0.79036007738E+02  0.00000000000E+00 0. -1.
</event>
<event>
 7    1  0.2693725E-009  0.1502480E+03  0.7561462E-02  0.1200169E+00
         -4   -1    0    0    0  501 -0.00000000000E+00  0.00000000000E+00  0.58798190747E+02  0.58798190747E+02  0.00000000000E+00 0.  1.
          4   -1    0    0  501    0  0.00000000000E+00 -0.00000000000E+00 -0.55650289134E+03  0.55650289134E+03  0.00000000000E+00 0. -1.
         25    2    1    2    0    0  0.57564114590E+02  0.11524829250E+03 -0.37224370393E+03  0.41329070986E+03  0.12509212417E+03 0.  0.
          5    1    3    3  502    0 -0.14663290790E+02 -0.70283166017E+01 -0.14023024944E+03  0.14123174073E+03  0.41800000000E+01 0. -1.
         -5    1    3    3    0  502  0.72227405381E+02  0.12227660911E+03 -0.23201345449E+03  0.27205896913E+03  0.41800000000E+01 0. -1.
        -11    1    1    2    0    0 -0.19534273212E+02 -0.97900221071E+02 -0.41290413027E+02  0.10803212172E+03  0.00000000000E+00 0.  1.
         11    1    1    2    0    0 -0.38029841378E+02 -0.17348071432E+02 -0.84170583636E+02  0.93978250501E+02  0.00000000000E+00 0. -1.
</event>
<event>
 7    1  0.2693725E-009  0.9900002E+02  0.7561462E-02  0.1282413E+00
         -2   -1    0    0    0  501 -0.00000000000E+00  0.00000000000E+00  0.34825560806E+02  0.34825560806E+02  0.00000000000E+00 0.  1.
          2   -1    0    0  501    0  0.00000000000E+00 -0.00000000000E+00 -0.52607068731E+03  0.52607068731E+03  0.00000000000E+00 0. -1.
         25    2    1    2    0    0  0.80658669945E+02 -0.89529188965E+01 -0.24344890045E+03  0.28548372098E+03  0.12509041538E+03 0.  0.
          5    1    3    3  502    0  0.23316931958E+02 -0.36185691420E+01 -0.22291663338E+03  0.22420096163E+03  0.41800000000E+01 0. -1.
         -5    1    3    3    0  502  0.57341737987E+02 -0.53343497545E+01 -0.20532267071E+02  0.61282759352E+02  0.41800000000E+01 0. -1.
        -11    1    1    2    0    0 -0.74722265969E+02 -0.27305161902E+02 -0.13404670797E+03  0.15587658200E+03  0.00000000000E+00 0.  1.
         11    1    1    2    0    0 -0.59364039757E+01  0.36258080799E+02 -0.11374951808E+03  0.11953594513E+03  0.00000000000E+00 0. -1.
</event>
<event>
 7    1  0.2693725E-009  0.1211918E+03  0.7561462E-02  0.1241144E+00
          2   -1    0    0  501    0  0.00000000000E+00  0.00000000000E+00  0.11643411373E+04  0.11643411373E+04  0.00000000000E+00 0. -1.
         -2   -1    0    0    0  501 -0.00000000000E+00 -0.00000000000E+00 -0.19883662233E+02  0.19883662233E+02  0.00000000000E+00 0.  1.
         25    2    1    2    0    0  0.83637127145E+02  0.15596861442E+02  0.86745360054E+03  0.88054633101E+03  0.12509061048E+03 0.  0.
          5    1    3    3  502    0  0.35410943074E+02 -0.33827908206E+02  0.11691502947E+03  0.12682609660E+03  0.41800000000E+01 0.  1.
         -5    1    3    3    0  502  0.48226184071E+02  0.49424769649E+02  0.75053857108E+03  0.75372023441E+03  0.41800000000E+01 0.  1.
        -11    1    1    2    0    0 -0.24614997196E+02 -0.50003474145E+02  0.11237440714E+03  0.12543625032E+03  0.00000000000E+00 0. -1.
         11    1    1    2    0    0 -0.59022129949E+02  0.34406612703E+02  0.16462946740E+03  0.17824221823E+03  0.00000000000E+00 0.  1.
</event>
<event>
 7    1  0.2693725E-009  0.9453664E+02  0.7561462E-02  0.1292223E+00
         -1   -1    0    0    0  501 -0.00000000000E+00  0.00000000000E+00  0.21784204502E+03  0.21784204502E+03  0.00000000000E+00 0.  1.
          1   -1    0    0  501    0  0.00000000000E+00 -0.00000000000E+00 -0.67978773705E+02  0.67978773705E+02  0.00000000000E+00 0. -1.
         25    2    1    2    0    0  0.11827527091E+01 -0.50103125575E+02  0.91628549554E+02  0.16295845890E+03  0.12509175088E+03 0.  0.
          5    1    3    3  502    0  0.89951113579E+01  0.19495202789E+02 -0.20962589038E+02  0.30296493185E+02  0.41800000000E+01 0. -1.
         -5    1    3    3    0  502 -0.78123586488E+01 -0.69598328364E+02  0.11259113859E+03  0.13266196572E+03  0.41800000000E+01 0. -1.
        -11    1    1    2    0    0  0.23119998260E+02 -0.14992465218E+02 -0.60389191448E+01  0.28209517494E+02  0.00000000000E+00 0. -1.
         11    1    1    2    0    0 -0.24302750969E+02  0.65095590793E+02  0.64273640903E+02  0.94652842325E+02  0.00000000000E+00 0.  1.
</event>
<event>
 7    1  0.2693725E-009  0.1114718E+03  0.7561462E-02  0.1257868E+00
          1   -1    0    0  501    0  0.00000000000E+00  0.00000000000E+00  0.65143753804E+03  0.65143753804E+03  0.00000000000E+00 0. -1.
         -1   -1    0    0    0  501 -0.00000000000E+00 -0.00000000000E+00 -0.33359648034E+02  0.33359648034E+02  0.00000000000E+00 0.  1.
         25    2    1    2    0    0  0.79660727504E+01  0.85034917041E+02  0.21688357583E+03  0.26453722744E+03  0.12508822408E+03 0.  0.
          5    1    3    3  502    0 -0.22698016116E+02  0.26908121726E+02 -0.24466233688E+01  0.35534565093E+02  0.41800000000E+01 0. -1.
         -5    1    3    3    0  502  0.30664088866E+02  0.58126795315E+02  0.21933019920E+03  0.22900266234E+03  0.41800000000E+01 0. -1.
        -11    1    1    2    0    0 -0.26791182885E+02 -0.96127613712E+02  0.36066484567E+03  0.37421573524E+03  0.00000000000E+00 0.  1.
         11    1    1    2    0    0  0.18825110135E+02  0.11092696671E+02  0.40529468504E+02  0.46044223397E+02  0.00000000000E+00 0. -1.
</event>
<event>
 7    1  0.2693725E-009  0.2280153E+03  0.7561462E-02  0.1128045E+00
          4   -1    0    0  501    0  0.00000000000E+00  0.00000000000E+00  0.18739664551E+03  0.18739664551E+03  0.00000000000E+00 0. -1.
         -4   -1    0    0    0  501 -0.00000000000E+00 -0.00000000000E+00 -0.35945897971E+03  0.35945897971E+03  0.00000000000E+00 0.  1.
         25    2    1    2    0    0 -0.14198672974E+03  0.16439345428E+03 -0.18615084043E+03  0.31222671431E+03  0.12509175235E+03 0.  0.
          5    1    3    3  502    0 -0.47344658356E+02  0.89948382168E+02 -0.15893467119E+03  0.18870593588E+03  0.41800000000E+01 0. -1.
         -5    1    3    3    0  502 -0.94642071383E+02  0.74445072115E+02 -0.27216169244E+02  0.12352077844E+03  0.41800000000E+01 0. -1.
        -11    1    1    2    0    0  0.51453085414E+02 -0.65775481122E+01 -0.25152725572E+01  0.51932752034E+02  0.00000000000E+00 0. -1.
         11    1    1    2    0    0  0.90533644324E+02 -0.15781590617E+03  0.16603778784E+02  0.18269615887E+03  0.00000000000E+00 0.  1.
</event>
<event>
 7    1  0.2693725E-009  0.1013662E+03  0.7561462E-02  0.1277449E+00
          1   -1    0    0  501    0  0.00000000000E+00  0.00000000000E+00  0.14447787862E+03  0.14447787862E+03  0.00000000000E+00 0. -1.
         -1   -1    0    0    0  501 -0.00000000000E+00 -0.00000000000E+00 -0.10144600688E+03  0.10144600688E+03  0.00000000000E+00 0.  1.
         25    2    1    2    0    0  0.41031543813E+02  0.20799605021E+02 -0.43782363832E+01  0.13336042069E+03  0.12509844801E+03 0.  0.
          5    1    3    3  502    0  0.15821070760E+02  0.61817430907E+02 -0.38095114872E+02  0.74433938637E+02  0.41800000000E+01 0.  1.
         -5    1    3    3    0  502  0.25210473052E+02 -0.41017825886E+02  0.33716878488E+02  0.58926482051E+02  0.41800000000E+01 0.  1.
        -11    1    1    2    0    0 -0.14883001769E+02  0.29907778444E+02 -0.65419451462E+01  0.34040799042E+02  0.00000000000E+00 0.  1.
         11    1    1    2    0    0 -0.26148542043E+02 -0.50707383464E+02  0.53952053269E+02  0.78522665777E+02  0.00000000000E+00 0. -1.
</event>
<event>
 7    1  0.2693725E-009  0.1154737E+03  0.7561462E-02  0.1250756E+00
          1   -1    0    0  501    0  0.00000000000E+00  0.00000000000E+00  0.11326535561E+04  0.11326535561E+04  0.00000000000E+00 0. -1.
         -1   -1    0    0    0  501 -0.00000000000E+00 -0.00000000000E+00 -0.24849840931E+02  0.24849840931E+02  0.00000000000E+00 0.  1.
         25    2    1    2    0    0  0.45541998664E+02 -0.32128992346E+02  0.98550311879E+03  0.99497244268E+03  0.12508964290E+03 0.  0.
          5    1    3    3  502    0 -0.40514669640E+02 -0.70024354399E+01  0.46077788670E+03  0.46262750224E+03  0.41800000000E+01 0.  1.
         -5    1    3    3    0  502  0.86056668303E+02 -0.25126556906E+02  0.52472523209E+03  0.53234494044E+03  0.41800000000E+01 0.  1.
        -11    1    1    2    0    0  0.24393844089E+02  0.11425345729E+02  0.63043716733E+02  0.68557336398E+02  0.00000000000E+00 0. -1.
         11    1    1    2    0    0 -0.69935842753E+02  0.20703646616E+02  0.59256879639E+02  0.93973617943E+02  0.00000000000E+00 0.  1.
</event>
<event>
 7    1  0.2693725E-009  0.1133448E+03  0.7561462E-02  0.1254498E+00
          1   -1    0    0  501    0  0.00000000000E+00  0.00000000000E+00  0.21881570507E+02  0.21881570507E+02  0.00000000000E+00 0. -1.
         -1   -1    0    0    0  501 -0.00000000000E+00 -0.00000000000E+00 -0.66287477044E+03  0.66287477044E+03  0.00000000000E+00 0.  1.
         25    2    1    2    0    0  0.12934742712E+02  0.41573241846E+02 -0.28096397913E+03  0.31061901112E+03  0.12509104881E+03 0.  0.
          5    1    3    3  502    0  0.29595660878E+02  0.81812263238E+02 -0.20863473382E+03  0.22608643063E+03  0.41800000000E+01 0. -1.
         -5    1    3    3    0  502 -0.16660918166E+02 -0.40239021392E+02 -0.72329245310E+02  0.84532580487E+02  0.41800000000E+01 0. -1.
        -11    1    1    2    0    0 -0.47624783523E+02 -0.38068310813E+02 -0.28434181508E+03  0.29080506202E+03  0.00000000000E+00 0.  1.
         11    1    1    2    0    0  0.34690040811E+02 -0.35049310333E+01 -0.75687405718E+02  0.83332267804E+02  0.00000000000E+00 0. -1.
</event>
<event>
 7    1  0.2693725E-009  0.1109042E+03  0.7561462E-02  0.1258904E+00
          2   -1    0    0  501    0  0.00000000000E+00  0.00000000000E+00  0.45602887465E+03  0.45602887465E+03  0.00000000000E+00 0. -1.
         -2   -1    0    0    0  501 -0.00000000000E+00 -0.00000000000E+00 -0.38797942369E+02  0.38797942369E+02  0.00000000000E+00 0.  1.
         25    2    1    2    0    0 -0.29657126182E+02 -0.35178288570E+02  0.34021983542E+03  0.36539643996E+03  0.12509182550E+03 0.  0.
          5    1    3    3  502    0 -0.40342276345E+02 -0.71221668404E+02  0.29633206323E+03  0.30745762213E+03  0.41800000000E+01 0. -1.
         -5    1    3    3    0  502  0.10685150163E+02  0.36043379833E+02  0.43887772187E+02  0.57938817828E+02  0.41800000000E+01 0. -1.
        -11    1    1    2    0    0  0.34742638387E+02 -0.24255320824E+02  0.44698418458E+02  0.61589935241E+02  0.00000000000E+00 0. -1.
         11    1    1    2    0    0 -0.50855122050E+01  0.59433609395E+02  0.32312678411E+02  0.67840441819E+02  0.00000000000E+00 0.  1.
</event>
<event>
 7    1  0.3452296E-009  0.1728188E+03  0.7561462E-02  0.1174940E+00
         -1   -1    0    0    0  501 -0.00000000000E+00  0.00000000000E+00  0.92999111961E+02  0.92999111961E+02  0.00000000000E+00 0.  1.
          1   -1    0    0  501    0  0.00000000000E+00 -0.00000000000E+00 -0.32471889640E+03  0.32471889640E+03  0.00000000000E+00 0. -1.
         25    2    1    2    0    0  0.13543215475E+03 -0.34384550702E+01 -0.13034499755E+03  0.22581415826E+03  0.12509406130E+03 0.  0.
          5    1    3    3  502    0  0.15017949092E+03 -0.29167724268E+02 -0.97989152887E+02  0.18172501786E+03  0.41800000000E+01 0.  1.
         -5    1    3    3    0  502 -0.14747336174E+02  0.25729269198E+02 -0.32355844659E+02  0.44089140401E+02  0.41800000000E+01 0.  1.
        -11    1    1    2    0    0 -0.52947308035E+02  0.45720074426E+02 -0.37894990126E+02  0.79559869975E+02  0.00000000000E+00 0.  1.
         11    1    1    2    0    0 -0.82484846714E+02 -0.42281619356E+02 -0.63479796767E+02  0.11234398013E+03  0.00000000000E+00 0. -1.
</event>
<event>
 7    1  0.2693725E-009  0.9115786E+02  0.7561462E-02  0.1300072E+00
         -1   -1    0    0    0  501 -0.00000000000E+00  0.00000000000E+00  0.96157658118E+02  0.96157658118E+02  0.00000000000E+00 0.  1.
          1   -1    0    0  501    0  0.00000000000E+00 -0.00000000000E+00 -0.15801684129E+03  0.15801684129E+03  0.00000000000E+00 0. -1.
         25    2    1    2    0    0 -0.14361619822E+02  0.53022770783E+02 -0.54529312306E+02  0.14710016620E+03  0.12508933867E+03 0.  0.
          5    1    3    3  502    0  0.12484039547E+02 -0.33403848912E+01 -0.78819349109E+02  0.79981070314E+02  0.41800000000E+01 0.  1.
         -5    1    3    3    0  502 -0.26845659369E+02  0.56363155674E+02  0.24290036803E+02  0.67119095885E+02  0.41800000000E+01 0.  1.
        -11    1    1    2    0    0 -0.98207940133E+01 -0.73696904573E+02  0.33367926181E+00  0.74349129655E+02  0.00000000000E+00 0.  1.
         11    1    1    2    0    0  0.24182413835E+02  0.20674133790E+02 -0.76635501246E+01  0.32725203550E+02  0.00000000000E+00 0. -1.
</event>
<event>
 7    1  0.2693725E-009  0.1846347E+03  0.7561462E-02  0.1163391E+00
          1   -1    0    0  501    0  0.00000000000E+00  0.00000000000E+00  0.64238579520E+03  0.64238579520E+03  0.00000000000E+00 0. -1.
         -1   -1    0    0    0  501 -0.00000000000E+00 -0.00000000000E+00 -0.10711697471E+03  0.10711697471E+03  0.00000000000E+00 0.  1.
         25    2    1    2    0    0  0.14366212211E+03  0.50850452619E+02  0.53779641221E+03  0.57279770716E+03  0.12509060108E+03 0.  0.
          5    1    3    3  502    0 -0.31860816310E+01 -0.28322396510E+02  0.10690831239E+03  0.11072113131E+03  0.41800000000E+01 0.  1.
         -5    1    3    3    0  502  0.14684820374E+03  0.79172849129E+02  0.43088809982E+03  0.46207657584E+03  0.41800000000E+01 0.  1.
        -11    1    1    2    0    0 -0.97190690920E+01 -0.37768816783E+02  0.13282727879E+02  0.41199207336E+02  0.00000000000E+00 0.  1.
         11    1    1    2    0    0 -0.13394305302E+03 -0.13081635836E+02 -0.15810319596E+02  0.13550585542E+03  0.00000000000E+00 0. -1.
</event>
<event>
 7    1  0.2693725E-009  0.1098425E+03  0.7561462E-02  0.1260862E+00
         -2   -1    0    0    0  501 -0.00000000000E+00  0.00000000000E+00  0.47921299715E+02  0.47921299715E+02  0.00000000000E+00 0.  1.
          2   -1    0    0  501    0  0.00000000000E+00 -0.00000000000E+00 -0.37076182346E+03  0.37076182346E+03  0.00000000000E+00 0. -1.
         25    2    1    2    0    0 -0.45109760856E+02  0.62761888692E+02 -0.16933471519E+03  0.22426779968E+03  0.12509138663E+03 0.  0.
          5    1    3    3  502    0  0.16892247244E+02  0.53514865770E+02 -0.15912005456E+02  0.58479510882E+02  0.41800000000E+01 0. -1.
         -5    1    3    3    0  502 -0.62002008100E+02  0.92470229218E+01 -0.15342270973E+03  0.16578828880E+03  0.41800000000E+01 0. -1.
        -11    1    1    2    0    0  0.78048569578E+01  0.13553231040E+02  0.33873989522E+01  0.16002510285E+02  0.00000000000E+00 0.  1.
         11    1    1    2    0    0  0.37304903898E+02 -0.76315119732E+02 -0.15689320751E+03  0.17841281321E+03  0.00000000000E+00 0. -1.
</event>
<event>
 7    1  0.2693725E-009  0.1520791E+03  0.7561462E-02  0.1197941E+00
          1   -1    0    0  501    0  0.00000000000E+00  0.00000000000E+00  0.47523265571E+03  0.47523265571E+03  0.00000000000E+00 0. -1.
         -1   -1    0    0    0  501 -0.00000000000E+00 -0.00000000000E+00 -0.63236975494E+02  0.63236975494E+02  0.00000000000E+00 0.  1.
         25    2    1    2    0    0 -0.11714270862E+03  0.22448084705E+02  0.12158931537E+03  0.21132380565E+03  0.12508980188E+03 0.  0.
          5    1    3    3  502    0 -0.25765118819E+02  0.51474608514E+02  0.16790118625E+01  0.57738792421E+02  0.41800000000E+01 0.  1.
         -5    1    3    3    0  502 -0.91377589805E+02 -0.29026523809E+02  0.11991030350E+03  0.15358501323E+03  0.41800000000E+01 0.  1.
        -11    1    1    2    0    0  0.51980813356E+02 -0.56648993303E+02  0.15570420827E+03  0.17365170276E+03  0.00000000000E+00 0.  1.
         11    1    1    2    0    0  0.65161895268E+02  0.34200908598E+02  0.13470215659E+03  0.15349412280E+03  0.00000000000E+00 0. -1.
</event>
<event>
 7    1  0.2693725E-009  0.1686292E+03  0.7561462E-02  0.1179285E+00
         -1   -1    0    0    0  501 -0.00000000000E+00  0.00000000000E+00  0.22730823520E+03  0.22730823520E+03  0.00000000000E+00 0.  1.
          1   -1    0    0  501    0  0.00000000000E+00 -0.00000000000E+00 -0.14626948896E+03  0.14626948896E+03  0.00000000000E+00 0. -1.
         25    2    1    2    0    0 -0.13744794635E+02 -0.14301246942E+03  0.60837536531E+02  0.19997650736E+03  0.12509161385E+03 0.  0.
          5    1    3    3  502    0  0.19184821200E+02 -0.12900825230E+03  0.85775420297E+02  0.15616043562E+03  0.41800000000E+01 0. -1.
         -5    1    3    3    0  502 -0.32929615835E+02 -0.14004217124E+02 -0.24937883766E+02  0.43816071744E+02  0.41800000000E+01 0. -1.
        -11    1    1    2    0    0  0.50250976643E+02  0.50316701297E+02 -0.34900340792E+01  0.71197692525E+02  0.00000000000E+00 0. -1.
         11    1    1    2    0    0 -0.36506182008E+02  0.92695768123E+02  0.23691243787E+02  0.10240352428E+03  0.00000000000E+00 0.  1.
</event>
<event>
 7    1  0.2693725E-009  0.1236250E+03  0.7561462E-02  0.1237234E+00
          2   -1    0    0  501    0  0.00000000000E+00  0.00000000000E+00  0.82759764069E+03  0.82759764069E+03  0.00000000000E+00 0. -1.
         -2   -1    0    0    0  501 -0.00000000000E+00 -0.00000000000E+00 -0.29434958245E+02  0.29434958245E+02  0.00000000000E+00 0.  1.
         25    2    1    2    0    0 -0.73828647396E+02 -0.72656668020E+02  0.53223395519E+03  0.55646237562E+03  0.12509089433E+03 0.  0.
          5    1    3    3  502    0 -0.18699406398E+02 -0.36578157603E+02  0.44575998844E+03  0.44766848126E+03  0.41800000000E+01 0.  1.
         -5    1    3    3    0  502 -0.55129240998E+02 -0.36078510416E+02  0.86473966742E+02  0.10879389436E+03  0.41800000000E+01 0.  1.
        -11    1    1    2    0    0 -0.14264163017E+02  0.45609068049E+02  0.97447660436E+02  0.10853432618E+03  0.00000000000E+00 0. -1.
         11    1    1    2    0    0  0.88092810413E+02  0.27047599971E+02  0.16848106682E+03  0.19203589714E+03  0.00000000000E+00 0.  1.
</event>
<event>
 7    1  0.2693725E-009  0.1337126E+03  0.7561462E-02  0.1222049E+00
          2   -1    0    0  501    0  0.00000000000E+00  0.00000000000E+00  0.12315317419E+04  0.12315317419E+04  0.00000000000E+00 0. -1.
         -2   -1    0    0    0  501 -0.00000000000E+00 -0.00000000000E+00 -0.26592573499E+02  0.26592573499E+02  0.00000000000E+00 0.  1.
         25    2    1    2    0    0 -0.10767493006E+03  0.16537097722E+02  0.96716314443E+03  0.98128501557E+03  0.12509343582E+03 0.  0.
          5    1    3    3  502    0 -0.74524788975E+02 -0.21702090252E+02  0.85055595193E+03  0.85410059400E+03  0.41800000000E+01 0. -1.
         -5    1    3    3    0  502 -0.33150141085E+02  0.38239187974E+02  0.11660719249E+03  0.12718442158E+03  0.41800000000E+01 0. -1.
        -11    1    1    2    0    0  0.85059630735E+02 -0.49892729070E+02  0.14153009009E+03  0.17249693214E+03  0.00000000000E+00 0.  1.
         11    1    1    2    0    0  0.22615299325E+02  0.33355631349E+02  0.96245933882E+02  0.10434236769E+03  0.00000000000E+00 0. -1.
</event>
<event>
 7    1  0.2693725E-009  0.1166734E+03  0.7561462E-02  0.1248688E+00
          1   -1    0    0  501    0  0.00000000000E+00  0.00000000000E+00  0.47466377068E+03  0.47466377068E+03  0.00000000000E+00 0. -1.
         -1   -1    0    0    0  501 -0.00000000000E+00 -0.00000000000E+00 -0.32902668970E+02  0.32902668970E+02  0.00000000000E+00 0.  1.
         25    2    1    2    0    0 -0.55184834489E+02  0.15828636842E+02  0.20036793791E+03  0.24308373379E+03  0.12508588805E+03 0.  0.
          5    1    3    3  502    0 -0.92781042641E+02 -0.74348648510E+01  0.13874026634E+03  0.16712250894E+03  0.41800000000E+01 0.  1.
         -5    1    3    3    0  502  0.37596208152E+02  0.23263501693E+02  0.61627671572E+02  0.75961224857E+02  0.41800000000E+01 0.  1.
        -11    1    1    2    0    0  0.45210985287E+02  0.26414095830E+02  0.68477384605E+02  0.86202609308E+02  0.00000000000E+00 0.  1.
         11    1    1    2    0    0  0.99738492012E+01 -0.42242732672E+02  0.17291577919E+03  0.17828009654E+03  0.00000000000E+00 0. -1.
</event>
<event>
 7    1  0.2693725E-009  0.2532039E+03  0.7561462E-02  0.1111297E+00
          2   -1    0    0  501    0  0.00000000000E+00  0.00000000000E+00  0.41804265323E+04  0.41804265323E+04  0.00000000000E+00 0. -1.
         -2   -1    0    0    0  501 -0.00000000000E+00 -0.00000000000E+00 -0.19886807917E+02  0.19886807917E+02  0.00000000000E+00 0.  1.
         25    2    1    2    0    0 -0.14986999099E+03 -0.17857810565E+03  0.30729009735E+04  0.30842691937E+04  0.12507962477E+03 0.  0.
          5    1    3    3  502    0  0.16599838562E+02 -0.30701958102E+02  0.23144424054E+03  0.23409842749E+03  0.41800000000E+01 0.  1.
         -5    1    3    3    0  502 -0.16646982955E+03 -0.14787614755E+03  0.28414567329E+04  0.28501707662E+04  0.41800000000E+01 0.  1.
        -11    1    1    2    0    0  0.83154329088E+02  0.15831929227E+03  0.72200025774E+03  0.74381719053E+03  0.00000000000E+00 0.  1.
         11    1    1    2    0    0  0.66715661899E+02  0.20258813382E+02  0.36563849316E+03  0.37222695596E+03  0.00000000000E+00 0. -1.
</event>
<event>
 7    1  0.2693725E-009  0.1490147E+03  0.7561462E-02  0.1201689E+00
         -1   -1    0    0    0  501 -0.00000000000E+00  0.00000000000E+00  0.29215984872E+02  0.29215984872E+02  0.00000000000E+00 0.  1.
          1   -1    0    0  501    0  0.00000000000E+00 -0.00000000000E+00 -0.11030571643E+04  0.11030571643E+04  0.00000000000E+00 0. -1.
         25    2    1    2    0    0 -0.23717412562E+01 -0.99406236249E+02 -0.86941961934E+03  0.88398266036E+03  0.12509054464E+03 0.  0.
          5    1    3    3  502    0  0.39136749451E+02 -0.10761979019E+03 -0.69949975006E+03  0.70882372783E+03  0.41800000000E+01 0. -1.
         -5    1    3    3    0  502 -0.41508490707E+02  0.82135539392E+01 -0.16991986928E+03  0.17515893253E+03  0.41800000000E+01 0. -1.
        -11    1    1    2    0    0  0.42294726366E+02  0.10676971774E+02 -0.64410849879E+02  0.77792025214E+02  0.00000000000E+00 0. -1.
         11    1    1    2    0    0 -0.39922985110E+02  0.88729264475E+02 -0.14001071017E+03  0.17049846356E+03  0.00000000000E+00 0.  1.
</event>
<event>
 7    1  0.2693725E-009  0.1251498E+03  0.7561462E-02  0.1234835E+00
          3   -1    0    0  501    0  0.00000000000E+00  0.00000000000E+00  0.39304876473E+02  0.39304876473E+02  0.00000000000E+00 0. -1.
         -3   -1    0    0    0  501 -0.00000000000E+00 -0.00000000000E+00 -0.59982062341E+03  0.59982062341E+03  0.00000000000E+00 0.  1.
         25    2    1    2    0    0 -0.70001337253E+02 -0.75248896405E+02 -0.37619967013E+03  0.40955612150E+03  0.12508973271E+03 0.  0.
          5    1    3    3  502    0  0.88157085434E+00  0.62730780517E+01 -0.21691775198E+03  0.21705048307E+03  0.41800000000E+01 0.  1.
         -5    1    3    3    0  502 -0.70882908108E+02 -0.81521974456E+02 -0.15928191814E+03  0.19250563843E+03  0.41800000000E+01 0.  1.
        -11    1    1    2    0    0 -0.40096208468E+01  0.58603930553E+02 -0.10141283348E+03  0.11719667457E+03  0.00000000000E+00 0. -1.
         11    1    1    2    0    0  0.74010958100E+02  0.16644965852E+02 -0.82903243325E+02  0.11237270381E+03  0.00000000000E+00 0.  1.
</event>
<event>
 7    1  0.2693725E-009  0.1236277E+03  0.7561462E-02  0.1237230E+00
         -2   -1    0    0    0  501 -0.00000000000E+00  0.00000000000E+00  0.49706286238E+02  0.49706286238E+02  0.00000000000E+00 0.  1.
          2   -1    0    0  501    0  0.00000000000E+00 -0.00000000000E+00 -0.47509087318E+03  0.47509087318E+03  0.00000000000E+00 0. -1.
         25    2    1    2    0    0 -0.43978584006E+02  0.83968982977E+02 -0.13608802412E+03  0.20772965770E+03  0.12508698744E+03 0.  0.
          5    1    3    3  502    0 -0.77593601324E+02  0.89055486484E+02 -0.82526719521E+02  0.14415192844E+03  0.41800000000E+01 0.  1.
         -5    1    3    3    0  502  0.33615017317E+02 -0.50865035066E+01 -0.53561304602E+02  0.63577729260E+02  0.41800000000E+01 0.  1.
        -11    1    1    2    0    0  0.18096096852E+02 -0.36732837159E+02 -0.26425046168E+02  0.48734516639E+02  0.00000000000E+00 0.  1.
         11    1    1    2    0    0  0.25882487154E+02 -0.47236145818E+02 -0.26287151665E+03  0.26833298507E+03  0.00000000000E+00 0. -1.
</event>
<event>
 7    1  0.2693725E-009  0.5790442E+03  0.7561462E-02  0.9949862E-01
         -2   -1    0    0    0  501 -0.00000000000E+00  0.00000000000E+00  0.46827688547E+03  0.46827688547E+03  0.00000000000E+00 0. -1.
          2   -1    0    0  501    0  0.00000000000E+00 -0.00000000000E+00 -0.89486798909E+03  0.89486798909E+03  0.00000000000E+00 0.  1.
         25    2    1    2    0    0  0.35744303341E+03  0.45018706003E+03 -0.50619818192E+03  0.77609111375E+03  0.12508759453E+03 0.  0.
          5    1    3    3  502    0  0.22994506544E+02  0.79209690778E+02 -0.11527565198E+03  0.14180575018E+03  0.41800000000E+01 0. -1.
         -5    1    3    3    0  502  0.33444852687E+03  0.37097736925E+03 -0.39092252994E+03  0.63428536357E+03  0.41800000000E+01 0. -1.
        -11    1    1    2    0    0 -0.73108825773E+02 -0.69656707269E+02  0.45640901823E+02  0.11081538338E+03  0.00000000000E+00 0. -1.
         11    1    1    2    0    0 -0.28433420764E+03 -0.38053035276E+03  0.33966176478E+02  0.47623837744E+03  0.00000000000E+00 0.  1.
</event>
<event>
 7    1  0.2693725E-009  0.1298999E+03  0.7561462E-02  0.1227604E+00
          3   -1    0    0  501    0  0.00000000000E+00  0.00000000000E+00  0.36836619511E+03  0.36836619511E+03  0.00000000000E+00 0. -1.
         -3   -1    0    0    0  501 -0.00000000000E+00 -0.00000000000E+00 -0.66673280785E+02  0.66673280785E+02  0.00000000000E+00 0.  1.
         25    2    1    2    0    0  0.91364767674E+02  0.42850099894E+02  0.91628285820E+02  0.18500321246E+03  0.12508714573E+03 0.  0.
          5    1    3    3  502    0  0.11321188144E+03  0.32731048704E+02  0.10434109667E+03  0.15745725929E+03  0.41800000000E+01 0.  1.
         -5    1    3    3    0  502 -0.21847113763E+02  0.10119051190E+02 -0.12712810848E+02  0.27545953177E+02  0.41800000000E+01 0.  1.
        -11    1    1    2    0    0 -0.22513199890E+02 -0.43057948581E+02  0.29627187806E+02  0.56908710780E+02  0.00000000000E+00 0.  1.
         11    1    1    2    0    0 -0.68851567784E+02  0.20784868741E+00  0.18043744070E+03  0.19312755265E+03  0.00000000000E+00 0. -1.
</event>
<event>
 7    1  0.2693725E-009  0.3318803E+03  0.7561462E-02  0.1070308E+00
          2   -1    0    0  501    0  0.00000000000E+00  0.00000000000E+00  0.23515849749E+04  0.23515849749E+04  0.00000000000E+00 0. -1.
         -2   -1    0    0    0  501 -0.00000000000E+00 -0.00000000000E+00 -0.50329514586E+02  0.50329514586E+02  0.00000000000E+00 0.  1.
         25    2    1    2    0    0  0.87874021648E+02  0.31542409939E+03  0.11647577571E+04  0.12163563234E+04  0.12509143321E+03 0.  0.
          5    1    3    3  502    0  0.30216132497E+02  0.18163128044E+03  0.84663007390E+03  0.86643112313E+03  0.41800000000E+01 0. -1.
         -5    1    3    3    0  502  0.57657889151E+02  0.13379281895E+03  0.31812768317E+03  0.34992520027E+03  0.41800000000E+01 0. -1.
        -11    1    1    2    0    0 -0.40054377458E+02 -0.49632447537E+02  0.15561400147E+03  0.16817684281E+03  0.00000000000E+00 0.  1.
         11    1    1    2    0    0 -0.47819644190E+02 -0.26579165185E+03  0.98088370177E+03  0.10173813233E+04  0.00000000000E+00 0. -1.
</event>
<event>
 7    1  0.2693725E-009  0.1394558E+03  0.7561462E-02  0.1214063E+00
          1   -1    0    0  501    0  0.00000000000E+00  0.00000000000E+00  0.21510357603E+03  0.21510357603E+03  0.00000000000E+00 0. -1.
         -1   -1    0    0    0  501 -0.00000000000E+00 -0.00000000000E+00 -0.11523179870E+03  0.11523179870E+03  0.00000000000E+00 0.  1.
         25    2    1    2    0    0 -0.91482148873E+02 -0.58077651848E+02  0.88333269900E+02  0.18759613914E+03  0.12509015805E+03 0.  0.
          5    1    3    3  502    0 -0.65810753530E+02 -0.81214799051E+02  0.10567925811E+03  0.14870264577E+03  0.41800000000E+01 0. -1.
         -5    1    3    3    0  502 -0.25671395342E+02  0.23137147203E+02 -0.17345988206E+02  0.38893493368E+02  0.41800000000E+01 0. -1.
        -11    1    1    2    0    0  0.28968737525E+02  0.70078565939E+02  0.20259350682E+02  0.78489709185E+02  0.00000000000E+00 0.  1.
         11    1    1    2    0    0  0.62513411348E+02 -0.12000914091E+02 -0.87208432494E+01  0.64249526413E+02  0.00000000000E+00 0. -1.
</event>
<event>
 7    1  0.2693725E-009  0.2203549E+03  0.7561462E-02  0.1133619E+00
          1   -1    0    0  501    0  0.00000000000E+00  0.00000000000E+00  0.30620797712E+03  0.30620797712E+03  0.00000000000E+00 0. -1.
         -1   -1    0    0    0  501 -0.00000000000E+00 -0.00000000000E+00 -0.17036919582E+03  0.17036919582E+03  0.00000000000E+00 0.  1.
         25    2    1    2    0    0 -0.16181688228E+03  0.11136535399E+03  0.27747825699E+02  0.23453067664E+03  0.12509097088E+03 0.  0.
          5    1    3    3  502    0 -0.17765307201E+03  0.11975791276E+03  0.28096965832E+02  0.21612376906E+03  0.41800000000E+01 0. -1.
         -5    1    3    3    0  502  0.15836189734E+02 -0.83925587683E+01 -0.34914013232E+00  0.18406907584E+02  0.41800000000E+01 0. -1.
        -11    1    1    2    0    0  0.15750738787E+03 -0.80564817097E+02  0.64096271681E+02  0.18816907033E+03  0.00000000000E+00 0.  1.
         11    1    1    2    0    0  0.43094944099E+01 -0.30800536896E+02  0.43994683916E+02  0.53877425959E+02  0.00000000000E+00 0. -1.
</event>
<event>
 7    1  0.2693725E-009  0.1521961E+03  0.7561462E-02  0.1197800E+00
          1   -1    0    0  501    0  0.00000000000E+00  0.00000000000E+00  0.24052205759E+03  0.24052205759E+03  0.00000000000E+00 0. -1.
         -1   -1    0    0    0  501 -0.00000000000E+00 -0.00000000000E+00 -0.11173831438E+03  0.11173831438E+03  0.00000000000E+00 0.  1.
         25    2    1    2    0    0  0.12096511877E+03  0.34303136392E+00  0.86088521465E+02  0.19414766330E+03  0.12509757794E+03 0.  0.
          5    1    3    3  502    0  0.14073221215E+03  0.44340213365E+01  0.96798733808E+02  0.17091718272E+03  0.41800000000E+01 0.  1.
         -5    1    3    3    0  502 -0.19767093380E+02 -0.40909899725E+01 -0.10710212343E+02  0.23230480582E+02  0.41800000000E+01 0.  1.
        -11    1    1    2    0    0 -0.69795572376E+02  0.37536657531E+02  0.50499603264E+02  0.93971445193E+02  0.00000000000E+00 0.  1.
         11    1    1    2    0    0 -0.51169546394E+02 -0.37879688895E+02 -0.78043815146E+01  0.64141263472E+02  0.00000000000E+00 0. -1.
</event>
<event>
 7    1  0.2693725E-009  0.1097772E+03  0.7561462E-02  0.1260983E+00
          2   -1    0    0  501    0  0.00000000000E+00  0.00000000000E+00  0.14079875250E+03  0.14079875250E+03  0.00000000000E+00 0. -1.
         -2   -1    0    0    0  501 -0.00000000000E+00 -0.00000000000E+00 -0.12305890014E+03  0.12305890014E+03  0.00000000000E+00 0.  1.
         25    2    1    2    0    0 -0.59545279345E+02  0.46533474476E+02  0.37233294981E+02  0.15081658895E+03  0.12509324805E+03 0.  0.
          5    1    3    3  502    0 -0.79392987031E+02  0.69123041005E+02  0.34649326376E+01  0.10540739702E+03  0.41800000000E+01 0.  1.
         -5    1    3    3    0  502  0.19847707685E+02 -0.22589566530E+02  0.33768362343E+02  0.45409191929E+02  0.41800000000E+01 0.  1.
        -11    1    1    2    0    0  0.51531191037E+00 -0.18480789302E+02 -0.40393973414E+02  0.44423847286E+02  0.00000000000E+00 0.  1.
         11    1    1    2    0    0  0.59029967435E+02 -0.28052685174E+02  0.20900530791E+02  0.68617216413E+02  0.00000000000E+00 0. -1.
</event>
<event>
 7    1  0.2693725E-009  0.1029025E+03  0.7561462E-02  0.1274308E+00
         -1   -1    0    0    0  501 -0.00000000000E+00  0.00000000000E+00  0.15561058935E+03  0.15561058935E+03  0.00000000000E+00 0.  1.
          1   -1    0    0  501    0  0.00000000000E+00 -0.00000000000E+00 -0.91011426167E+02  0.91011426167E+02  0.00000000000E+00 0. -1.
         25    2    1    2    0    0  0.32984268045E+02 -0.26226858812E+02  0.63721056011E+02  0.14657479860E+03  0.12509192037E+03 0.  0.
          5    1    3    3  502    0 -0.42851560660E+02  0.12571872452E+02  0.10570340315E+02  0.46081587671E+02  0.41800000000E+01 0. -1.
         -5    1    3    3    0  502  0.75835828705E+02 -0.38798731264E+02  0.53150715696E+02  0.10049321093E+03  0.41800000000E+01 0. -1.
        -11    1    1    2    0    0  0.76929703970E+01 -0.15554365227E+02  0.30160078944E+02  0.34795839307E+02  0.00000000000E+00 0.  1.
         11    1    1    2    0    0 -0.40677238442E+02  0.41781224039E+02 -0.29281971774E+02  0.65251377613E+02  0.00000000000E+00 0. -1.
</event>
<event>
 7    1  0.2693725E-009  0.7269254E+02  0.7561462E-02  0.1351169E+00
          4   -1    0    0  501    0  0.00000000000E+00  0.00000000000E+00  0.15928800434E+03  0.15928800434E+03  0.00000000000E+00 0. -1.
         -4   -1    0    0    0  501 -0.00000000000E+00 -0.00000000000E+00 -0.10619547034E+03  0.10619547034E+03  0.00000000000E+00 0.  1.
         25    2    1    2    0    0  0.23121793409E+02  0.89240218710E+01  0.95494363072E+02  0.15931416002E+03  0.12509025824E+03 0.  0.
          5    1    3    3  502    0  0.15191190193E+02 -0.41221325646E+02  0.98860344571E+02  0.10826269014E+03  0.41800000000E+01 0.  1.
         -5    1    3    3    0  502  0.79306032155E+01  0.50145347517E+02 -0.33659814995E+01  0.51051469875E+02  0.41800000000E+01 0.  1.
        -11    1    1    2    0    0 -0.59829551443E+01 -0.25667050475E+02  0.23957635162E+02  0.35616871212E+02  0.00000000000E+00 0. -1.
         11    1    1    2    0    0 -0.17138838265E+02  0.16743028604E+02 -0.66359464233E+02  0.70552443453E+02  0.00000000000E+00 0.  1.
</event>
<event>
 7    1  0.2693725E-009  0.1251497E+03  0.7561462E-02  0.1234836E+00
          1   -1    0    0  501    0  0.00000000000E+00  0.00000000000E+00  0.18651758106E+02  0.18651758106E+02  0.00000000000E+00 0. -1.
         -1   -1    0    0    0  501 -0.00000000000E+00 -0.00000000000E+00 -0.11460038879E+04  0.11460038879E+04  0.00000000000E+00 0.  1.
         25    2    1    2    0    0 -0.19314495283E+02 -0.82322291035E+02 -0.78477300655E+03  0.79916681668E+03  0.12509564239E+03 0.  0.
          5    1    3    3  502    0  0.50374718352E+02 -0.18288839179E+02 -0.35743233580E+03  0.36145185151E+03  0.41800000000E+01 0.  1.
         -5    1    3    3    0  502 -0.69689213636E+02 -0.64033451856E+02 -0.42734067075E+03  0.43771496517E+03  0.41800000000E+01 0.  1.
        -11    1    1    2    0    0 -0.11568537024E+02  0.65756059446E+02 -0.31172998696E+03  0.31879974149E+03  0.00000000000E+00 0.  1.
         11    1    1    2    0    0  0.30883032307E+02  0.16566231589E+02 -0.30849136284E+02  0.46689087837E+02  0.00000000000E+00 0. -1.
</event>
<event>
 7    1  0.2693725E-009  0.1472510E+03  0.7561462E-02  0.1203892E+00
         -1   -1    0    0    0  501 -0.00000000000E+00  0.00000000000E+00  0.30147274366E+02  0.30147274366E+02  0.00000000000E+00 0.  1.
          1   -1    0    0  501    0  0.00000000000E+00 -0.00000000000E+00 -0.10928178690E+04  0.10928178690E+04  0.00000000000E+00 0. -1.
         25    2    1    2    0    0 -0.14167862861E+03  0.55355716474E+01 -0.46175034589E+03  0.49896330272E+03  0.12509004429E+03 0.  0.
          5    1    3    3  502    0 -0.15104522772E+02  0.12398087509E+02  0.13261266552E+00  0.19983722580E+02  0.41800000000E+01 0. -1.
         -5    1    3    3    0  502 -0.12657410584E+03 -0.68625158614E+01 -0.46188295855E+03  0.47897958014E+03  0.41800000000E+01 0. -1.
        -11    1    1    2    0    0  0.62775731371E+02  0.18081952262E+02 -0.12534572093E+03  0.14134814892E+03  0.00000000000E+00 0.  1.
         11    1    1    2    0    0  0.78902897238E+02 -0.23617523909E+02 -0.47557452782E+03  0.48265369173E+03  0.00000000000E+00 0. -1.
</event>
<event>
 7    1  0.2693725E-009  0.1994706E+03  0.7561462E-02  0.1150186E+00
          1   -1    0    0  501    0  0.00000000000E+00  0.00000000000E+00  0.15222469827E+03  0.15222469827E+03  0.00000000000E+00 0. -1.
         -1   -1    0    0    0  501 -0.00000000000E+00 -0.00000000000E+00 -0.33463705573E+03  0.33463705573E+03  0.00000000000E+00 0.  1.
         25    2    1    2    0    0  0.78248326585E+02 -0.16111805727E+03 -0.18574158970E+03  0.28676262354E+03  0.12510409714E+03 0.  0.
          5    1    3    3  502    0  0.75757538416E+02 -0.17935068460E+03 -0.18382205768E+03  0.26779449954E+03  0.41800000000E+01 0.  1.
         -5    1    3    3    0  502  0.24907881688E+01  0.18232627327E+02 -0.19195320246E+01  0.18968124001E+02  0.41800000000E+01 0.  1.
        -11    1    1    2    0    0 -0.70744786761E+02  0.93244849063E+02 -0.34514309965E+02  0.12202730974E+03  0.00000000000E+00 0.  1.
         11    1    1    2    0    0 -0.75035398240E+01  0.67873208211E+02  0.37843542213E+02  0.78071820716E+02  0.00000000000E+00 0. -1.
</event>
<event>
 7    1  0.2693725E-009  0.1116234E+03  0.7561462E-02  0.1257593E+00
          1   -1    0    0  501    0  0.00000000000E+00  0.00000000000E+00  0.18696143395E+02  0.18696143395E+02  0.00000000000E+00 0. -1.
         -1   -1    0    0    0  501 -0.00000000000E+00 -0.00000000000E+00 -0.76536251330E+03  0.76536251330E+03  0.00000000000E+00 0.  1.
         25    2    1    2    0    0  0.36349304516E+02  0.30840845015E+02 -0.48472283292E+03  0.50286816765E+03  0.12509092540E+03 0.  0.
          5    1    3    3  502    0  0.26583249732E+02  0.78814516817E+02 -0.33918238335E+03  0.34925715282E+03  0.41800000000E+01 0.  1.
         -5    1    3    3    0  502  0.97660547838E+01 -0.47973671802E+02 -0.14554044957E+03  0.15361101482E+03  0.41800000000E+01 0.  1.
        -11    1    1    2    0    0 -0.60688328328E+02 -0.25950296680E+02 -0.11874583947E+03  0.13585678299E+03  0.00000000000E+00 0. -1.
         11    1    1    2    0    0  0.24339023812E+02 -0.48905483351E+01 -0.14319769752E+03  0.14533370606E+03  0.00000000000E+00 0.  1.
</event>
<event>
 7    1  0.2693725E-009  0.4193091E+02  0.7561462E-02  0.1494464E+00
          2   -1    0    0  501    0  0.00000000000E+00  0.00000000000E+00  0.29617300579E+03  0.29617300579E+03  0.00000000000E+00 0.  1.
         -2   -1    0    0    0  501 -0.00000000000E+00 -0.00000000000E+00 -0.43733405801E+02  0.43733405801E+02  0.00000000000E+00 0. -1.
         25    2    1    2    0    0 -0.30733419920E+02 -0.14118661127E+02  0.15600031274E+03  0.20281116685E+03  0.12510952054E+03 0.  0.
          5    1    3    3  502    0 -0.12445328309E+02 -0.10886179040E+02 -0.19714750143E+02  0.26067966243E+02  0.41800000000E+01 0. -1.
         -5    1    3    3    0  502 -0.18288091612E+02 -0.32324820872E+01  0.17571506289E+03  0.17674320060E+03  0.41800000000E+01 0. -1.
        -11    1    1    2    0    0  0.12178389752E+02  0.23879054980E+02  0.10927357435E+03  0.11251327253E+03  0.00000000000E+00 0.  1.
         11    1    1    2    0    0  0.18555030169E+02 -0.97603938531E+01 -0.12834287101E+02  0.24581972218E+02  0.00000000000E+00 0. -1.
</event>
<event>
 7    1  0.2693725E-009  0.1351346E+03  0.7561462E-02  0.1220030E+00
         -2   -1    0    0    0  501 -0.00000000000E+00  0.00000000000E+00  0.31092155825E+03  0.31092155825E+03  0.00000000000E+00 0.  1.
          2   -1    0    0  501    0  0.00000000000E+00 -0.00000000000E+00 -0.73361750683E+02  0.73361750683E+02  0.00000000000E+00 0. -1.
         25    2    1    2    0    0  0.94035481980E+02  0.57979560769E+01  0.18950781223E+03  0.24583540881E+03  0.12508216964E+03 0.  0.
          5    1    3    3  502    0  0.98097211664E+02  0.40104791300E+02  0.18135958156E+03  0.21009575780E+03  0.41800000000E+01 0.  1.
         -5    1    3    3    0  502 -0.40617296835E+01 -0.34306835223E+02  0.81482306671E+01  0.35739651006E+02  0.41800000000E+01 0.  1.
        -11    1    1    2    0    0  0.26972561681E+01 -0.29655944572E+02  0.63886499480E+01  0.30455953235E+02  0.00000000000E+00 0.  1.
         11    1    1    2    0    0 -0.96732738148E+02  0.23857988495E+02  0.41663345392E+02  0.10799194689E+03  0.00000000000E+00 0. -1.
</event>
<event>
 7    1  0.2693725E-009  0.2000925E+03  0.7561462E-02  0.1149661E+00
         -1   -1    0    0    0  501 -0.00000000000E+00  0.00000000000E+00  0.22978043658E+03  0.22978043658E+03  0.00000000000E+00 0.  1.
          1   -1    0    0  501    0  0.00000000000E+00 -0.00000000000E+00 -0.18078367341E+03  0.18078367341E+03  0.00000000000E+00 0. -1.
         25    2    1    2    0    0 -0.10106888843E+03 -0.13772883437E+03  0.49401317256E+02  0.21742592323E+03  0.12509752163E+03 0.  0.
          5    1    3    3  502    0 -0.12867264722E+03 -0.12826069394E+03  0.37067022081E+02  0.18546938367E+03  0.41800000000E+01 0.  1.
         -5    1    3    3    0  502  0.27603758795E+02 -0.94681404316E+01  0.12334295175E+02  0.31956539554E+02  0.41800000000E+01 0.  1.
        -11    1    1    2    0    0  0.62587901245E+02  0.20917820235E+02  0.18904812987E+02  0.68645411644E+02  0.00000000000E+00 0.  1.
         11    1    1    2    0    0  0.38480987185E+02  0.11681101414E+03 -0.19309367076E+02  0.12449277511E+03  0.00000000000E+00 0. -1.
</event>
<event>
 7    1  0.2693725E-009  0.1449506E+03  0.7561462E-02  0.1206819E+00
         -1   -1    0    0    0  501 -0.00000000000E+00  0.00000000000E+00  0.11429157129E+03  0.11429157129E+03  0.00000000000E+00 0.  1.
          1   -1    0    0  501    0  0.00000000000E+00 -0.00000000000E+00 -0.19407300609E+03  0.19407300609E+03  0.00000000000E+00 0. -1.
         25    2    1    2    0    0 -0.12828034882E+02 -0.10095006051E+03 -0.16779787272E+02  0.16212574977E+03  0.12509086411E+03 0.  0.
          5    1    3    3  502    0  0.17194266351E+02 -0.12268040896E+03 -0.13609104378E+02  0.12469485017E+03  0.41800000000E+01 0.  1.
         -5    1    3    3    0  502 -0.30022301233E+02  0.21730348451E+02 -0.31706828939E+01  0.37430899603E+02  0.41800000000E+01 0.  1.
        -11    1    1    2    0    0  0.46283479515E+02  0.59942877468E+02 -0.52853553343E+02  0.92351541060E+02  0.00000000000E+00 0. -1.
         11    1    1    2    0    0 -0.33455444633E+02  0.41007183039E+02 -0.10148094184E+02  0.53887286552E+02  0.00000000000E+00 0.  1.
</event>
<event>
 7    1  0.2693725E-009  0.9947492E+02  0.7561462E-02  0.1281404E+00
          1   -1    0    0  501    0  0.00000000000E+00  0.00000000000E+00  0.72482119201E+03  0.72482119201E+03  0.00000000000E+00 0. -1.
         -1   -1    0    0    0  501 -0.00000000000E+00 -0.00000000000E+00 -0.19461825913E+02  0.19461825913E+02  0.00000000000E+00 0.  1.
         25    2    1    2    0    0 -0.51193227229E-01 -0.30689800896E+02  0.28135679870E+03  0.30943824212E+03  0.12509400869E+03 0.  0.
          5    1    3    3  502    0 -0.13943671814E+02  0.37420852196E+02  0.19198252580E+03  0.19613645448E+03  0.41800000000E+01 0.  1.
         -5    1    3    3    0  502  0.13892478587E+02 -0.68110653092E+02  0.89374272900E+02  0.11330178764E+03  0.41800000000E+01 0.  1.
        -11    1    1    2    0    0  0.15417071376E+02 -0.26107454298E+02  0.74657610406E+02  0.80579426973E+02  0.00000000000E+00 0.  1.
         11    1    1    2    0    0 -0.15365878149E+02  0.56797255194E+02  0.34934495699E+03  0.35426534883E+03  0.00000000000E+00 0. -1.
</event>
<event>
 7    1  0.2693725E-009  0.1040297E+03  0.7561462E-02  0.1272043E+00
         -1   -1    0    0    0  501 -0.00000000000E+00  0.00000000000E+00  0.19549548503E+03  0.19549548503E+03  0.00000000000E+00 0.  1.
          1   -1    0    0  501    0  0.00000000000E+00 -0.00000000000E+00 -0.69577224786E+02  0.69577224786E+02  0.00000000000E+00 0. -1.
         25    2    1    2    0    0 -0.38574795733E+02 -0.20185512151E+02  0.70753129746E+02  0.15017368175E+03  0.12510259612E+03 0.  0.
          5    1    3    3  502    0 -0.26277190958E+02  0.39858901162E+02 -0.97521625721E+01  0.48906030725E+02  0.41800000000E+01 0. -1.
         -5    1    3    3    0  502 -0.12297604775E+02 -0.60044413313E+02  0.80505292318E+02  0.10126765103E+03  0.41800000000E+01 0. -1.
        -11    1    1    2    0    0 -0.18910317571E+02 -0.20793313673E+02  0.56477162842E+01  0.28668078125E+02  0.00000000000E+00 0.  1.
         11    1    1    2    0    0  0.57485113304E+02  0.40978825823E+02  0.49517414217E+02  0.86230949944E+02  0.00000000000E+00 0. -1.
</event>
<event>
 7    1  0.2693725E-009  0.1196328E+03  0.7561462E-02  0.1243704E+00
         -2   -1    0    0    0  501 -0.00000000000E+00  0.00000000000E+00  0.21565912136E+02  0.21565912136E+02  0.00000000000E+00 0.  1.
          2   -1    0    0  501    0  0.00000000000E+00 -0.00000000000E+00 -0.10401783698E+04  0.10401783698E+04  0.00000000000E+00 0. -1.
         25    2    1    2    0    0  0.18677892907E+02  0.87615017076E+02 -0.73586183731E+03  0.75177219433E+03  0.12507411268E+03 0.  0.
          5    1    3    3  502    0  0.47845296039E+02  0.35082332432E+01 -0.11693858283E+03  0.12646574480E+03  0.41800000000E+01 0.  1.
         -5    1    3    3    0  502 -0.29167403131E+02  0.84106783833E+02 -0.61892325448E+03  0.62530644954E+03  0.41800000000E+01 0.  1.
        -11    1    1    2    0    0 -0.31517215792E+02 -0.32004531869E+02 -0.22246987454E+03  0.22695918142E+03  0.00000000000E+00 0.  1.
         11    1    1    2    0    0  0.12839322885E+02 -0.55610485207E+02 -0.60280745802E+02  0.83012906174E+02  0.00000000000E+00 0. -1.
</event>
<event>
 7    1  0.2693725E-009  0.1393805E+03  0.7561462E-02  0.1214165E+00
         -2   -1    0    0    0  501 -0.00000000000E+00  0.00000000000E+00  0.38425962228E+02  0.38425962228E+02  0.00000000000E+00 0.  1.
          2   -1    0    0  501    0  0.00000000000E+00 -0.00000000000E+00 -0.68975029625E+03  0.68975029625E+03  0.00000000000E+00 0. -1.
         25    2    1    2    0    0  0.74970823770E+02  0.93694815910E+02 -0.31394312023E+03  0.35861853300E+03  0.12509047335E+03 0.  0.
          5    1    3    3  502    0  0.84762736540E+02  0.92119246838E+02 -0.32178471351E+03  0.34530211611E+03  0.41800000000E+01 0. -1.
         -5    1    3    3    0  502 -0.97919127699E+01  0.15755690715E+01  0.78415932754E+01  0.13316416886E+02  0.41800000000E+01 0. -1.
        -11    1    1    2    0    0 -0.47678431489E+02 -0.27095417238E+01 -0.62038646111E+02  0.78290280731E+02  0.00000000000E+00 0.  1.
         11    1    1    2    0    0 -0.27292392281E+02 -0.90985274186E+02 -0.27534256768E+03  0.29126744475E+03  0.00000000000E+00 0. -1.
</event>
<event>
 7    1  0.2693725E-009  0.1450711E+03  0.7561462E-02  0.1206664E+00
          2   -1    0    0  501    0  0.00000000000E+00  0.00000000000E+00  0.13318500502E+04  0.13318500502E+04  0.00000000000E+00 0.  1.
         -2   -1    0    0    0  501 -0.00000000000E+00 -0.00000000000E+00 -0.25053474545E+02  0.25053474545E+02  0.00000000000E+00 0. -1.
         25    2    1    2    0    0  0.13507300195E+03 -0.30317679446E+02  0.86125157138E+03  0.88122911159E+03  0.12508637164E+03 0.  0.
          5    1    3    3  502    0  0.80863388850E+02 -0.47686825778E+02  0.24602258726E+03  0.26335813420E+03  0.41800000000E+01 0.  1.
         -5    1    3    3    0  502  0.54209613100E+02  0.17369146332E+02  0.61522898412E+03  0.61787097739E+03  0.41800000000E+01 0.  1.
        -11    1    1    2    0    0 -0.92639301437E+02  0.27183097213E+02  0.40689404197E+03  0.41819101178E+03  0.00000000000E+00 0.  1.
         11    1    1    2    0    0 -0.42433700514E+02  0.31345822327E+01  0.38650962279E+02  0.57483401345E+02  0.00000000000E+00 0. -1.
</event>
<event>
 7    1  0.2693725E-009  0.1260155E+03  0.7561462E-02  0.1233491E+00
         -2   -1    0    0    0  501 -0.00000000000E+00  0.00000000000E+00  0.11123681592E+03  0.11123681592E+03  0.00000000000E+00 0.  1.
          2   -1    0    0  501    0  0.00000000000E+00 -0.00000000000E+00 -0.25107571372E+03  0.25107571372E+03  0.00000000000E+00 0. -1.
         25    2    1    2    0    0  0.94836545108E+02  0.32507028341E+02 -0.15809115404E+03  0.22514590148E+03  0.12508871568E+03 0.  0.
          5    1    3    3  502    0  0.52455331082E+01 -0.21313767380E+02  0.12078602851E+02  0.25399947723E+02  0.41800000000E+01 0.  1.
         -5    1    3    3    0  502  0.89591012000E+02  0.53820795721E+02 -0.17016975689E+03  0.19974595376E+03  0.41800000000E+01 0.  1.
        -11    1    1    2    0    0 -0.49923834849E+02  0.21919663612E+02  0.34805584993E+02  0.64686085719E+02  0.00000000000E+00 0.  1.
         11    1    1    2    0    0 -0.44912710259E+02 -0.54426691954E+02 -0.16553328748E+02  0.72480542441E+02  0.00000000000E+00 0. -1.
</event>
<event>
 7    1  0.2693725E-009  0.1209337E+03  0.7561462E-02  0.1241565E+00
          3   -1    0    0  501    0  0.00000000000E+00  0.00000000000E+00  0.50371036747E+03  0.50371036747E+03  0.00000000000E+00 0. -1.
         -3   -1    0    0    0  501 -0.00000000000E+00 -0.00000000000E+00 -0.33675423252E+02  0.33675423252E+02  0.00000000000E+00 0.  1.
         25    2    1    2    0    0  0.68937001584E+02  0.15916140973E+02  0.22419254242E+03  0.26629354119E+03  0.12507725721E+03 0.  0.
          5    1    3    3  502    0  0.22280056519E+02  0.68274947760E+02  0.94172627429E+02  0.11850664778E+03  0.41800000000E+01 0. -1.
         -5    1    3    3    0  502  0.46656945065E+02 -0.52358806788E+02  0.13001991499E+03  0.14778689341E+03  0.41800000000E+01 0. -1.
        -11    1    1    2    0    0 -0.11830212490E+02 -0.36963519572E+02  0.16722464640E+03  0.17166926944E+03  0.00000000000E+00 0. -1.
         11    1    1    2    0    0 -0.57106789094E+02  0.21047378599E+02  0.78617755406E+02  0.99422980098E+02  0.00000000000E+00 0.  1.
</event>
<event>
 7    1  0.2693725E-009  0.1014624E+03  0.7561462E-02  0.1277250E+00
          2   -1    0    0  501    0  0.00000000000E+00  0.00000000000E+00  0.34601793417E+03  0.34601793417E+03  0.00000000000E+00 0. -1.
         -2   -1    0    0    0  501 -0.00000000000E+00 -0.00000000000E+00 -0.36129177600E+02  0.36129177600E+02  0.00000000000E+00 0.  1.
         25    2    1    2    0    0 -0.12516816826E+02  0.16152345862E+02  0.21167287145E+03  0.24672169102E+03  0.12509444165E+03 0.  0.
          5    1    3    3  502    0 -0.68057420755E+02 -0.17932335598E+01  0.11641489299E+03  0.13492563847E+03  0.41800000000E+01 0. -1.
         -5    1    3    3    0  502  0.55540603929E+02  0.17945579421E+02  0.95257978461E+02  0.11179605255E+03  0.41800000000E+01 0. -1.
        -11    1    1    2    0    0  0.42986074220E+02 -0.15583646067E+02  0.94169906409E+02  0.10468344604E+03  0.00000000000E+00 0.  1.
         11    1    1    2    0    0 -0.30469257393E+02 -0.56869979489E+00  0.40459787129E+01  0.30741974714E+02  0.00000000000E+00 0. -1.
</event>
<event>
 7    1  0.2693725E-009  0.1130657E+03  0.7561462E-02  0.1254996E+00
          1   -1    0    0  501    0  0.00000000000E+00  0.00000000000E+00  0.48020600292E+03  0.48020600292E+03  0.00000000000E+00 0. -1.
         -1   -1    0    0    0  501 -0.00000000000E+00 -0.00000000000E+00 -0.38993969240E+02  0.38993969240E+02  0.00000000000E+00 0.  1.
         25    2    1    2    0    0  0.68584723543E+02 -0.35099471132E+02  0.18261391275E+03  0.23437350038E+03  0.12508900581E+03 0.  0.
          5    1    3    3  502    0  0.19680934128E+02 -0.75178039348E+02  0.67714575610E+02  0.10315916304E+03  0.41800000000E+01 0.  1.
         -5    1    3    3    0  502  0.48903789415E+02  0.40078568216E+02  0.11489933714E+03  0.13121433734E+03  0.41800000000E+01 0.  1.
        -11    1    1    2    0    0 -0.20299338083E+02  0.30226452143E+02  0.20401695482E+02  0.41736443479E+02  0.00000000000E+00 0.  1.
         11    1    1    2    0    0 -0.48285385460E+02  0.48730189897E+01  0.23819642545E+03  0.24309002830E+03  0.00000000000E+00 0. -1.
</event>
<event>
 7    1  0.2693725E-009  0.1510644E+03  0.7561462E-02  0.1199171E+00
         -2   -1    0    0    0  501 -0.00000000000E+00  0.00000000000E+00  0.16564326316E+03  0.16564326316E+03  0.00000000000E+00 0.  1.
          2   -1    0    0  501    0  0.00000000000E+00 -0.00000000000E+00 -0.17482351188E+03  0.17482351188E+03  0.00000000000E+00 0. -1.
         25    2    1    2    0    0  0.42955578565E+02 -0.10235193175E+03  0.63002401991E+02  0.17871304414E+03  0.12509176562E+03 0.  0.
          5    1    3    3  502    0  0.25357389113E+01  0.29084937168E+02  0.80765082363E+01  0.30578847708E+02  0.41800000000E+01 0.  1.
         -5    1    3    3    0  502  0.40419839653E+02 -0.13143686892E+03  0.54925893755E+02  0.14813419643E+03  0.41800000000E+01 0.  1.
        -11    1    1    2    0    0  0.53041489102E+01  0.82833802913E+02 -0.14863996034E+02  0.84323847628E+02  0.00000000000E+00 0.  1.
         11    1    1    2    0    0 -0.48259727475E+02  0.19518128835E+02 -0.57318654681E+02  0.77429883273E+02  0.00000000000E+00 0. -1.
</event>
<event>
 7    1  0.2693725E-009  0.1091301E+03  0.7561462E-02  0.1262189E+00
          2   -1    0    0  501    0  0.00000000000E+00  0.00000000000E+00  0.12026721336E+04  0.12026721336E+04  0.00000000000E+00 0. -1.
         -2   -1    0    0    0  501 -0.00000000000E+00 -0.00000000000E+00 -0.14605987256E+02  0.14605987256E+02  0.00000000000E+00 0.  1.
         25    2    1    2    0    0 -0.12587372696E+02 -0.58738685976E+02  0.71142588964E+03  0.72483517510E+03  0.12510219598E+03 0.  0.
          5    1    3    3  502    0 -0.40909353563E+01 -0.80023233548E+02  0.68468411840E+03  0.68936947137E+03  0.41800000000E+01 0.  1.
         -5    1    3    3    0  502 -0.84964373399E+01  0.21284547572E+02  0.26741771235E+02  0.35465703737E+02  0.41800000000E+01 0.  1.
        -11    1    1    2    0    0 -0.13932292484E+02  0.79709755388E+02  0.40777263573E+03  0.41572379812E+03  0.00000000000E+00 0. -1.
         11    1    1    2    0    0  0.26519665180E+02 -0.20971069413E+02  0.68867620986E+02  0.76719147635E+02  0.00000000000E+00 0.  1.
</event>
<event>
 7    1  0.2693725E-009  0.1251729E+03  0.7561462E-02  0.1234799E+00
         -1   -1    0    0    0  501 -0.00000000000E+00  0.00000000000E+00  0.15468276237E+03  0.15468276237E+03  0.00000000000E+00 0.  1.
          1   -1    0    0  501    0  0.00000000000E+00 -0.00000000000E+00 -0.14430225127E+03  0.14430225127E+03  0.00000000000E+00 0. -1.
         25    2    1    2    0    0  0.81360911384E+02 -0.48649298195E+01 -0.57071058764E+02  0.15983572458E+03  0.12508831944E+03 0.  0.
          5    1    3    3  502    0  0.54413969021E+02  0.45723250812E+02 -0.71162955125E+02  0.10066347039E+03  0.41800000000E+01 0.  1.
         -5    1    3    3    0  502  0.26946942363E+02 -0.50588180631E+02  0.14091896361E+02  0.59172254185E+02  0.41800000000E+01 0.  1.
        -11    1    1    2    0    0 -0.72275281537E+02 -0.35345573228E+02  0.46021758050E+02  0.92687798992E+02  0.00000000000E+00 0.  1.
         11    1    1    2    0    0 -0.90856298468E+01  0.40210503048E+02  0.21429811818E+02  0.46461490071E+02  0.00000000000E+00 0. -1.
</event>
<event>
 7    1  0.2693725E-009  0.8279333E+02  0.7561462E-02  0.1321306E+00
         -2   -1    0    0    0  501 -0.00000000000E+00  0.00000000000E+00  0.99357513895E+02  0.99357513895E+02  0.00000000000E+00 0.  1.
          2   -1    0    0  501    0  0.00000000000E+00 -0.00000000000E+00 -0.14568502692E+03  0.14568502692E+03  0.00000000000E+00 0. -1.
         25    2    1    2    0    0 -0.35679957999E+02 -0.12865049513E+02 -0.60304355937E+02  0.14395721616E+03  0.12509394804E+03 0.  0.
          5    1    3    3  502    0 -0.51075102698E+02 -0.51027008669E+02 -0.18406652112E+01  0.72341427811E+02  0.41800000000E+01 0.  1.
         -5    1    3    3    0  502  0.15395144699E+02  0.38161959156E+02 -0.58463690725E+02  0.71615788344E+02  0.41800000000E+01 0.  1.
        -11    1    1    2    0    0  0.19493571354E+02  0.24981851306E+02  0.50337707457E+02  0.59480896184E+02  0.00000000000E+00 0.  1.
         11    1    1    2    0    0  0.16186386644E+02 -0.12116801793E+02 -0.36360864542E+02  0.41604428473E+02  0.00000000000E+00 0. -1.
</event>
<event>
 7    1  0.2693725E-009  0.1163765E+03  0.7561462E-02  0.1249197E+00
         -4   -1    0    0    0  501 -0.00000000000E+00  0.00000000000E+00  0.19980887178E+03  0.19980887178E+03  0.00000000000E+00 0.  1.
          4   -1    0    0  501    0  0.00000000000E+00 -0.00000000000E+00 -0.82202250490E+02  0.82202250490E+02  0.00000000000E+00 0. -1.
         25    2    1    2    0    0 -0.18607007351E+02 -0.61975796066E+02  0.48719950122E+02  0.14902540040E+03  0.12509083262E+03 0.  0.
          5    1    3    3  502    0  0.49024739426E+02 -0.25005774577E+02 -0.43321051911E+01  0.55362021037E+02  0.41800000000E+01 0. -1.
         -5    1    3    3    0  502 -0.67631746776E+02 -0.36970021489E+02  0.53052055313E+02  0.93663379364E+02  0.41800000000E+01 0. -1.
        -11    1    1    2    0    0 -0.26292942765E+02  0.45485925599E+02  0.66964600540E+02  0.85114898768E+02  0.00000000000E+00 0.  1.
         11    1    1    2    0    0  0.44899950116E+02  0.16489870467E+02  0.19220706246E+01  0.47870823096E+02  0.00000000000E+00 0. -1.
</event>
<event>
 7    1  0.2693725E-009  0.1205594E+03  0.7561462E-02  0.1242177E+00
          1   -1    0    0  501    0  0.00000000000E+00  0.00000000000E+00  0.46067229134E+02  0.46067229134E+02  0.00000000000E+00 0. -1.
         -1   -1    0    0    0  501 -0.00000000000E+00 -0.00000000000E+00 -0.36030072565E+03  0.36030072565E+03  0.00000000000E+00 0.  1.
         25    2    1    2    0    0 -0.16708334559E+02 -0.63816592056E+02 -0.20724628115E+03  0.25089867907E+03  0.12508956889E+03 0.  0.
          5    1    3    3  502    0 -0.16639544847E+02  0.34238528254E+02 -0.31423503875E+02  0.49538472580E+02  0.41800000000E+01 0.  1.
         -5    1    3    3    0  502 -0.68789711631E-01 -0.98055120310E+02 -0.17582277728E+03  0.20136020649E+03  0.41800000000E+01 0.  1.
        -11    1    1    2    0    0 -0.32783816361E+02  0.32181074525E+02 -0.19080879101E+02  0.49744146591E+02  0.00000000000E+00 0. -1.
         11    1    1    2    0    0  0.49492150919E+02  0.31635517531E+02 -0.87906336267E+02  0.10572512912E+03  0.00000000000E+00 0.  1.
</event>
<event>
 7    1  0.2693725E-009  0.7929615E+02  0.7561462E-02  0.1331061E+00
         -2   -1    0    0    0  501 -0.00000000000E+00  0.00000000000E+00  0.11372379559E+03  0.11372379559E+03  0.00000000000E+00 0.  1.
          2   -1    0    0  501    0  0.00000000000E+00 -0.00000000000E+00 -0.17742097595E+03  0.17742097595E+03  0.00000000000E+00 0. -1.
         25    2    1    2    0    0 -0.15581564211E+02 -0.10055615315E+02 -0.12819146263E+03  0.18007171973E+03  0.12509545399E+03 0.  0.
          5    1    3    3  502    0 -0.46274763697E+02  0.35724765945E+02 -0.10474817489E+03  0.12003026785E+03  0.41800000000E+01 0.  1.
         -5    1    3    3    0  502  0.30693199486E+02 -0.45780381261E+02 -0.23443287741E+02  0.60041451874E+02  0.41800000000E+01 0.  1.
        -11    1    1    2    0    0  0.38194993006E+01 -0.15824842873E+02  0.77942702149E+02  0.79624613312E+02  0.00000000000E+00 0.  1.
         11    1    1    2    0    0  0.11762064910E+02  0.25880458189E+02 -0.13448419883E+02  0.31448438504E+02  0.00000000000E+00 0. -1.
</event>
<event>
 7    1  0.2693725E-009  0.1111456E+03  0.7561462E-02  0.1258463E+00
         -4   -1    0    0    0  501 -0.00000000000E+00  0.00000000000E+00  0.14832876679E+03  0.14832876679E+03  0.00000000000E+00 0.  1.
          4   -1    0    0  501    0  0.00000000000E+00 -0.00000000000E+00 -0.24525702039E+03  0.24525702039E+03  0.00000000000E+00 0. -1.
         25    2    1    2    0    0  0.91239390303E+02  0.12496475228E+02 -0.17981945681E+03  0.23761951793E+03  0.12508880851E+03 0.  0.
          5    1    3    3  502    0  0.19744254964E+02  0.18838775549E+02  0.13956504310E+02  0.30935278903E+02  0.41800000000E+01 0.  1.
         -5    1    3    3    0  502  0.71495135340E+02 -0.63423003209E+01 -0.19377596112E+03  0.20668423902E+03  0.41800000000E+01 0.  1.
        -11    1    1    2    0    0 -0.68146641818E+02  0.29970555421E+02  0.77274805318E+02  0.10730141900E+03  0.00000000000E+00 0.  1.
         11    1    1    2    0    0 -0.23092748485E+02 -0.42467030649E+02  0.56163979000E+01  0.48664850253E+02  0.00000000000E+00 0. -1.
</event>
<event>
 7    1  0.2693725E-009  0.9998656E+02  0.7561462E-02  0.1280324E+00
         -1   -1    0    0    0  501 -0.00000000000E+00  0.00000000000E+00  0.23441510508E+02  0.23441510508E+02  0.00000000000E+00 0.  1.
          1   -1    0    0  501    0  0.00000000000E+00 -0.00000000000E+00 -0.56153018157E+03  0.56153018157E+03  0.00000000000E+00 0. -1.
         25    2    1    2    0    0 -0.25577907167E+02 -0.18175222247E+02 -0.25029479506E+03  0.28157368468E+03  0.12510670419E+03 0.  0.
          5    1    3    3  502    0 -0.57168896910E+02 -0.35934317921E+02 -0.23017694459E+03  0.23991343481E+03  0.41800000000E+01 0. -1.
         -5    1    3    3    0  502  0.31590989743E+02  0.17759095674E+02 -0.20117850463E+02  0.41660249872E+02  0.41800000000E+01 0. -1.
        -11    1    1    2    0    0 -0.17779759951E+02  0.42538510544E+02 -0.12848920560E+03  0.13651051498E+03  0.00000000000E+00 0.  1.
         11    1    1    2    0    0  0.43357667118E+02 -0.24363288297E+02 -0.15930467040E+03  0.16688749242E+03  0.00000000000E+00 0. -1.
</event>
<event>
 7    1  0.2693725E-009  0.1216204E+03  0.7561462E-02  0.1240448E+00
          1   -1    0    0  501    0  0.00000000000E+00  0.00000000000E+00  0.55504025313E+03  0.55504025313E+03  0.00000000000E+00 0. -1.
         -1   -1    0    0    0  501 -0.00000000000E+00 -0.00000000000E+00 -0.31498355457E+02  0.31498355457E+02  0.00000000000E+00 0.  1.
         25    2    1    2    0    0  0.10704940802E+02 -0.58629531064E+02  0.19016276035E+03  0.23528822274E+03  0.12508658867E+03 0.  0.
          5    1    3    3  502    0  0.50322527402E+02  0.12915392437E+02  0.10452649467E+03  0.11680079030E+03  0.41800000000E+01 0. -1.
         -5    1    3    3    0  502 -0.39617586600E+02 -0.71544923501E+02  0.85636265671E+02  0.11848743243E+03  0.41800000000E+01 0. -1.
        -11    1    1    2    0    0 -0.42579436344E+02  0.93647421766E-01  0.15787554307E+03  0.16351667887E+03  0.00000000000E+00 0. -1.
         11    1    1    2    0    0  0.31874495543E+02  0.58535883642E+02  0.17550359426E+03  0.18773370698E+03  0.00000000000E+00 0.  1.
</event>
<event>
 7    1  0.2693725E-009  0.1113574E+03  0.7561462E-02  0.1258077E+00
          1   -1    0    0  501    0  0.00000000000E+00  0.00000000000E+00  0.84404468730E+02  0.84404468730E+02  0.00000000000E+00 0. -1.
         -1   -1    0    0    0  501 -0.00000000000E+00 -0.00000000000E+00 -0.17384492069E+03  0.17384492069E+03  0.00000000000E+00 0.  1.
         25    2    1    2    0    0  0.44832197145E+02 -0.26550703480E+02 -0.59889241173E+02  0.14815022011E+03  0.12508757234E+03 0.  0.
          5    1    3    3  502    0  0.85029619790E+02 -0.31819052515E+01 -0.54554299201E+02  0.10116226927E+03  0.41800000000E+01 0.  1.
         -5    1    3    3    0  502 -0.40197422644E+02 -0.23368798228E+02 -0.53349419725E+01  0.46987950836E+02  0.41800000000E+01 0.  1.
        -11    1    1    2    0    0 -0.48249251266E+02 -0.13925666518E+02 -0.44218568676E+02  0.66911854342E+02  0.00000000000E+00 0.  1.
         11    1    1    2    0    0  0.34170541213E+01  0.40476369998E+02  0.14667357889E+02  0.43187314972E+02  0.00000000000E+00 0. -1.
</event>
<event>
 7    1  0.2693725E-009  0.7642083E+02  0.7561462E-02  0.1339527E+00
          3   -1    0    0  501    0  0.00000000000E+00  0.00000000000E+00  0.29085601644E+03  0.29085601644E+03  0.00000000000E+00 0. -1.
         -3   -1    0    0    0  501 -0.00000000000E+00 -0.00000000000E+00 -0.42761816010E+02  0.42761816010E+02  0.00000000000E+00 0.  1.
         25    2    1    2    0    0 -0.25069865430E+01  0.27692990540E+02  0.14867730354E+03  0.19627881543E+03  0.12508895272E+03 0.  0.
          5    1    3    3  502    0  0.28893840710E+02  0.52303180663E+02  0.22679117032E+02  0.64049133388E+02  0.41800000000E+01 0.  1.
         -5    1    3    3    0  502 -0.31400827253E+02 -0.24610190123E+02  0.12599818650E+03  0.13222968204E+03  0.41800000000E+01 0.  1.
        -11    1    1    2    0    0  0.18288388119E+01  0.12498097855E+02 -0.12894885007E+02  0.18050627711E+02  0.00000000000E+00 0.  1.
         11    1    1    2    0    0  0.67814773115E+00 -0.40191088395E+02  0.11231178191E+03  0.11928838932E+03  0.00000000000E+00 0. -1.
</event>
<event>
 7    1  0.2693725E-009  0.1788655E+03  0.7561462E-02  0.1168906E+00
          3   -1    0    0  501    0  0.00000000000E+00  0.00000000000E+00  0.44455765688E+02  0.44455765688E+02  0.00000000000E+00 0. -1.
         -3   -1    0    0    0  501 -0.00000000000E+00 -0.00000000000E+00 -0.83451592639E+03  0.83451592639E+03  0.00000000000E+00 0.  1.
         25    2    1    2    0    0 -0.12965272264E+03 -0.91322865817E+02 -0.40656468692E+03  0.45397344734E+03  0.12508937576E+03 0.  0.
          5    1    3    3  502    0 -0.26069921937E+02 -0.90961055211E+02 -0.23705288391E+03  0.25527455135E+03  0.41800000000E+01 0.  1.
         -5    1    3    3    0  502 -0.10358280071E+03 -0.36181060620E+00 -0.16951180301E+03  0.19869889599E+03  0.41800000000E+01 0.  1.
        -11    1    1    2    0    0  0.20174862076E+02  0.21582049434E+02 -0.12733779447E+02  0.32170779546E+02  0.00000000000E+00 0. -1.
         11    1    1    2    0    0  0.10947786057E+03  0.69740816383E+02 -0.37076169433E+03  0.39282746519E+03  0.00000000000E+00 0.  1.
</event>
<event>
 7    1  0.2693725E-009  0.1001572E+03  0.7561462E-02  0.1279966E+00
          2   -1    0    0  501    0  0.00000000000E+00  0.00000000000E+00  0.14655851208E+03  0.14655851208E+03  0.00000000000E+00 0. -1.
         -2   -1    0    0    0  501 -0.00000000000E+00 -0.00000000000E+00 -0.90638961752E+02  0.90638961752E+02  0.00000000000E+00 0.  1.
         25    2    1    2    0    0  0.33558241659E+02 -0.33527264740E+01  0.25601002013E+01  0.12958288991E+03  0.12509106637E+03 0.  0.
          5    1    3    3  502    0  0.63256896707E+02  0.27722106010E+02  0.33087709668E+02  0.76695626171E+02  0.41800000000E+01 0.  1.
         -5    1    3    3    0  502 -0.29698655048E+02 -0.31074832484E+02 -0.30527609467E+02  0.52887263735E+02  0.41800000000E+01 0.  1.
        -11    1    1    2    0    0  0.24246977425E+01  0.37944886822E+02  0.54179156831E+01  0.38406345901E+02  0.00000000000E+00 0.  1.
         11    1    1    2    0    0 -0.35982939402E+02 -0.34592160348E+02  0.47941534440E+02  0.69208238021E+02  0.00000000000E+00 0. -1.
</event>
<event>
 7    1  0.2693725E-009  0.2399733E+03  0.7561462E-02  0.1119811E+00
         -1   -1    0    0    0  501 -0.00000000000E+00  0.00000000000E+00  0.28004024021E+03  0.28004024021E+03  0.00000000000E+00 0.  1.
          1   -1    0    0  501    0  0.00000000000E+00 -0.00000000000E+00 -0.22799543627E+03  0.22799543627E+03  0.00000000000E+00 0. -1.
         25    2    1    2    0    0  0.88403158254E+02 -0.21281579238E+03  0.54192886640E+00  0.26220944676E+03  0.12509124832E+03 0.  0.
          5    1    3    3  502    0 -0.33273663228E+01 -0.69659000745E+02 -0.48683754287E+02  0.85152968726E+02  0.41800000000E+01 0. -1.
         -5    1    3    3    0  502  0.91730524577E+02 -0.14315679164E+03  0.49225683153E+02  0.17705647803E+03  0.41800000000E+01 0. -1.
        -11    1    1    2    0    0 -0.51620119486E+02  0.18962079151E+03  0.47331975895E+02  0.20214103307E+03  0.00000000000E+00 0.  1.
         11    1    1    2    0    0 -0.36783038767E+02  0.23195000871E+02  0.41708991741E+01  0.43685196649E+02  0.00000000000E+00 0. -1.
</event>
<event>
 7    1  0.2693725E-009  0.9287059E+02  0.7561462E-02  0.1296045E+00
         -2   -1    0    0    0  501 -0.00000000000E+00  0.00000000000E+00  0.17608889364E+03  0.17608889364E+03  0.00000000000E+00 0.  1.
          2   -1    0    0  501    0  0.00000000000E+00 -0.00000000000E+00 -0.13476441664E+03  0.13476441664E+03  0.00000000000E+00 0. -1.
         25    2    1    2    0    0  0.78647426787E+02 -0.13651712310E+02  0.93805764611E+02  0.17555293700E+03  0.12509006845E+03 0.  0.
          5    1    3    3  502    0  0.39719657037E+02 -0.17249578340E+02  0.12044519947E+03  0.12806138209E+03  0.41800000000E+01 0. -1.
         -5    1    3    3    0  502  0.38927769751E+02  0.35978660297E+01 -0.26639434860E+02  0.47491554906E+02  0.41800000000E+01 0. -1.
        -11    1    1    2    0    0 -0.23195012228E+02 -0.25929625796E+02  0.16361017504E+02  0.38445246520E+02  0.00000000000E+00 0.  1.
         11    1    1    2    0    0 -0.55452414559E+02  0.39581338107E+02 -0.68842305112E+02  0.96855126761E+02  0.00000000000E+00 0. -1.
</event>
<event>
 7    1  0.2693725E-009  0.1055602E+03  0.7561462E-02  0.1269020E+00
         -2   -1    0    0    0  501 -0.00000000000E+00  0.00000000000E+00  0.29862500893E+02  0.29862500893E+02  0.00000000000E+00 0.  1.
          2   -1    0    0  501    0  0.00000000000E+00 -0.00000000000E+00 -0.91878995496E+03  0.91878995496E+03  0.00000000000E+00 0. -1.
         25    2    1    2    0    0 -0.63216426309E+02 -0.35701397026E+02 -0.76984290141E+03  0.78331099514E+03  0.12508843251E+03 0.  0.
          5    1    3    3  502    0 -0.40907578730E+02 -0.78439267620E+02 -0.36522579298E+03  0.37581045882E+03  0.41800000000E+01 0.  1.
         -5    1    3    3    0  502 -0.22308847579E+02  0.42737870594E+02 -0.40461710844E+03  0.40750053632E+03  0.41800000000E+01 0.  1.
        -11    1    1    2    0    0  0.35525435702E+02  0.11362376155E+02  0.33770145315E+01  0.37450826437E+02  0.00000000000E+00 0.  1.
         11    1    1    2    0    0  0.27690990607E+02  0.24339020871E+02 -0.12246156718E+03  0.12789063427E+03  0.00000000000E+00 0. -1.
</event>
<event>
 7    1  0.2693725E-009  0.1466063E+03  0.7561462E-02  0.1204706E+00
          1   -1    0    0  501    0  0.00000000000E+00  0.00000000000E+00  0.44327478264E+03  0.44327478264E+03  0.00000000000E+00 0. -1.
         -1   -1    0    0    0  501 -0.00000000000E+00 -0.00000000000E+00 -0.60536108192E+02  0.60536108192E+02  0.00000000000E+00 0.  1.
         25    2    1    2    0    0 -0.14075256367E+02  0.11831456309E+03  0.16323791304E+03  0.23767618636E+03  0.12508758782E+03 0.  0.
          5    1    3    3  502    0 -0.28603692753E+02 -0.62797464896E+01  0.84465842203E+02  0.89496130386E+02  0.41800000000E+01 0. -1.
         -5    1    3    3    0  502  0.14528436386E+02  0.12459430958E+03  0.78772070832E+02  0.14818005597E+03  0.41800000000E+01 0. -1.
        -11    1    1    2    0    0 -0.14843551247E+02  0.14518189430E+01  0.58142767385E+00  0.14925711039E+02  0.00000000000E+00 0.  1.
         11    1    1    2    0    0  0.28918807614E+02 -0.11976638203E+03  0.21891933374E+03  0.25120899344E+03  0.00000000000E+00 0. -1.
</event>
<event>
 7    1  0.2693725E-009  0.2322632E+03  0.7561462E-02  0.1125057E+00
         -2   -1    0    0    0  501 -0.00000000000E+00  0.00000000000E+00  0.22734938946E+03  0.22734938946E+03  0.00000000000E+00 0.  1.
          2   -1    0    0  501    0  0.00000000000E+00 -0.00000000000E+00 -0.27905549252E+03  0.27905549252E+03  0.00000000000E+00 0. -1.
         25    2    1    2    0    0  0.11928001927E+03 -0.18396044685E+03  0.22055609316E+02  0.25338364746E+03  0.12509058275E+03 0.  0.
          5    1    3    3  502    0  0.24115819732E+02 -0.89419137283E+02  0.64138793313E+02  0.11273248015E+03  0.41800000000E+01 0. -1.
         -5    1    3    3    0  502  0.95164199543E+02 -0.94541309571E+02 -0.42083183997E+02  0.14065116731E+03  0.41800000000E+01 0. -1.
        -11    1    1    2    0    0 -0.25807122649E+02  0.12377571296E+03 -0.63185478597E+02  0.14134652243E+03  0.00000000000E+00 0. -1.
         11    1    1    2    0    0 -0.93472896626E+02  0.60184733897E+02 -0.10576233776E+02  0.11167471208E+03  0.00000000000E+00 0.  1.
</event>
<event>
 7    1  0.2693725E-009  0.1041107E+03  0.7561462E-02  0.1271882E+00
          1   -1    0    0  501    0  0.00000000000E+00  0.00000000000E+00  0.28611971863E+02  0.28611971863E+02  0.00000000000E+00 0. -1.
         -1   -1    0    0    0  501 -0.00000000000E+00 -0.00000000000E+00 -0.56000477329E+03  0.56000477329E+03  0.00000000000E+00 0.  1.
         25    2    1    2    0    0 -0.12629443386E+02  0.61639981057E+02 -0.27022578298E+03  0.30434955916E+03  0.12509072815E+03 0.  0.
          5    1    3    3  502    0 -0.43742154614E+02 -0.36684467839E+01 -0.19491120635E+03  0.19983664417E+03  0.41800000000E+01 0. -1.
         -5    1    3    3    0  502  0.31112711228E+02  0.65308427840E+02 -0.75314576637E+02  0.10451291500E+03  0.41800000000E+01 0. -1.
        -11    1    1    2    0    0 -0.79715352010E+01 -0.69247632523E+02 -0.25018429097E+03  0.25971322537E+03  0.00000000000E+00 0.  1.
         11    1    1    2    0    0  0.20600978587E+02  0.76076514668E+01 -0.10982727478E+02  0.24553960627E+02  0.00000000000E+00 0. -1.
</event>
<event>
 7    1  0.2693725E-009  0.7708330E+02  0.7561462E-02  0.1337538E+00
          2   -1    0    0  501    0  0.00000000000E+00  0.00000000000E+00  0.10045377970E+03  0.10045377970E+03  0.00000000000E+00 0.  1.
         -2   -1    0    0    0  501 -0.00000000000E+00 -0.00000000000E+00 -0.13201388992E+03  0.13201388992E+03  0.00000000000E+00 0. -1.
         25    2    1    2    0    0 -0.35835634911E+02  0.14619606292E+02 -0.42683166891E+02  0.13772157851E+03  0.12508978708E+03 0.  0.
          5    1    3    3  502    0 -0.21953475098E+02 -0.44337933593E+02 -0.56744760507E+02  0.75400581358E+02  0.41800000000E+01 0. -1.
         -5    1    3    3    0  502 -0.13882159813E+02  0.58957539886E+02  0.14061593616E+02  0.62320997147E+02  0.41800000000E+01 0. -1.
        -11    1    1    2    0    0  0.26298732288E+02  0.56166869102E-01  0.47546885327E+02  0.54335373183E+02  0.00000000000E+00 0.  1.
         11    1    1    2    0    0  0.95369026229E+01 -0.14675773161E+02 -0.36423828653E+02  0.40410717925E+02  0.00000000000E+00 0. -1.
</event>
<event>
 7    1  0.2693725E-009  0.1603158E+03  0.7561462E-02  0.1188341E+00
          2   -1    0    0  501    0  0.00000000000E+00  0.00000000000E+00  0.79657419641E+03  0.79657419641E+03  0.00000000000E+00 0. -1.
         -2   -1    0    0    0  501 -0.00000000000E+00 -0.00000000000E+00 -0.35766660629E+02  0.35766660629E+02  0.00000000000E+00 0.  1.
         25    2    1    2    0    0  0.12240761503E+03 -0.37880225500E+02  0.48899653355E+03  0.52075263464E+03  0.12508861243E+03 0.  0.
          5    1    3    3  502    0  0.11858249990E+03 -0.73662264046E+02  0.34334392740E+03  0.37066219568E+03  0.41800000000E+01 0. -1.
         -5    1    3    3    0  502  0.38251151322E+01  0.35782038545E+02  0.14565260615E+03  0.15009043895E+03  0.41800000000E+01 0. -1.
        -11    1    1    2    0    0 -0.27734011677E+01 -0.14051445003E+02  0.68940801466E+02  0.70412846609E+02  0.00000000000E+00 0. -1.
         11    1    1    2    0    0 -0.11963421387E+03  0.51931670503E+02  0.20287020076E+03  0.24117537579E+03  0.00000000000E+00 0.  1.
</event>
<event>
 7    1  0.2693725E-009  0.7214700E+02  0.7561462E-02  0.1352941E+00
          1   -1    0    0  501    0  0.00000000000E+00  0.00000000000E+00  0.10748454464E+03  0.10748454464E+03  0.00000000000E+00 0. -1.
         -1   -1    0    0    0  501 -0.00000000000E+00 -0.00000000000E+00 -0.11227875919E+03  0.11227875919E+03  0.00000000000E+00 0.  1.
         25    2    1    2    0    0 -0.17197528613E+02 -0.72399010483E+01  0.15111445944E+02  0.12737617753E+03  0.12509262027E+03 0.  0.
          5    1    3    3  502    0  0.37755904906E+02 -0.28510109762E+02  0.41127056928E+02  0.62827079555E+02  0.41800000000E+01 0. -1.
         -5    1    3    3    0  502 -0.54953433519E+02  0.21270208714E+02 -0.26015610984E+02  0.64549097973E+02  0.41800000000E+01 0. -1.
        -11    1    1    2    0    0  0.40616877269E+01  0.19402105661E+02  0.31910248239E+02  0.37565981339E+02  0.00000000000E+00 0. -1.
         11    1    1    2    0    0  0.13135840886E+02 -0.12162204613E+02 -0.51815908737E+02  0.54821144963E+02  0.00000000000E+00 0.  1.
</event>
<event>
 7    1  0.2693725E-009  0.1294068E+03  0.7561462E-02  0.1228339E+00
          1   -1    0    0  501    0  0.00000000000E+00  0.00000000000E+00  0.48034201590E+02  0.48034201590E+02  0.00000000000E+00 0. -1.
         -1   -1    0    0    0  501 -0.00000000000E+00 -0.00000000000E+00 -0.46298080128E+03  0.46298080128E+03  0.00000000000E+00 0.  1.
         25    2    1    2    0    0  0.10167117211E+03  0.37553643291E+02 -0.23205887847E+03  0.28503816207E+03  0.12509247536E+03 0.  0.
          5    1    3    3  502    0  0.93316126993E+02  0.69885275637E+02 -0.11725340609E+03  0.16540158690E+03  0.41800000000E+01 0.  1.
         -5    1    3    3    0  502  0.83550451191E+01 -0.32331632347E+02 -0.11480547238E+03  0.11963657517E+03  0.41800000000E+01 0.  1.
        -11    1    1    2    0    0 -0.43199808557E+02 -0.13329311930E+02 -0.16785194457E+02  0.48224856338E+02  0.00000000000E+00 0. -1.
         11    1    1    2    0    0 -0.58471363555E+02 -0.24224331360E+02 -0.16610252676E+03  0.17775198447E+03  0.00000000000E+00 0.  1.
</event>
<event>
 7    1  0.2693725E-009  0.1470234E+03  0.7561462E-02  0.1204179E+00
          2   -1    0    0  501    0  0.00000000000E+00  0.00000000000E+00  0.28645920687E+03  0.28645920687E+03  0.00000000000E+00 0. -1.
         -2   -1    0    0    0  501 -0.00000000000E+00 -0.00000000000E+00 -0.79862811218E+02  0.79862811218E+02  0.00000000000E+00 0.  1.
         25    2    1    2    0    0  0.10209808476E+03 -0.18464908961E+02  0.92153102133E+02  0.18682831842E+03  0.12509058540E+03 0.  0.
          5    1    3    3  502    0  0.12998217129E+03 -0.56501818336E+01  0.64353500536E+02  0.14521065677E+03  0.41800000000E+01 0. -1.
         -5    1    3    3    0  502 -0.27884086524E+02 -0.12814727127E+02  0.27799601598E+02  0.41617661655E+02  0.41800000000E+01 0. -1.
        -11    1    1    2    0    0 -0.59157330418E+02  0.51730432109E+02  0.91265634679E+02  0.12043688564E+03  0.00000000000E+00 0. -1.
         11    1    1    2    0    0 -0.42940754346E+02 -0.33265523149E+02  0.23177658838E+02  0.59056814030E+02  0.00000000000E+00 0.  1.
</event>
<event>
 7    1  0.2693725E-009  0.1353760E+03  0.7561462E-02  0.1219690E+00
          1   -1    0    0  501    0  0.00000000000E+00  0.00000000000E+00  0.62883515387E+03  0.62883515387E+03  0.00000000000E+00 0. -1.
         -1   -1    0    0    0  501 -0.00000000000E+00 -0.00000000000E+00 -0.32266054146E+02  0.32266054146E+02  0.00000000000E+00 0.  1.
         25    2    1    2    0    0 -0.92248374574E+02  0.83587656650E+01  0.35360511373E+03  0.38634737525E+03  0.12509231123E+03 0.  0.
          5    1    3    3  502    0 -0.77608742051E+02  0.54605728208E+02  0.29629214450E+03  0.31114531925E+03  0.41800000000E+01 0.  1.
         -5    1    3    3    0  502 -0.14639632524E+02 -0.46246962543E+02  0.57312969225E+02  0.75202055998E+02  0.41800000000E+01 0.  1.
        -11    1    1    2    0    0  0.66121373932E+02 -0.46507543231E+02  0.17207967617E+03  0.19012207294E+03  0.00000000000E+00 0.  1.
         11    1    1    2    0    0  0.26127000643E+02  0.38148777566E+02  0.70884309823E+02  0.84631759827E+02  0.00000000000E+00 0. -1.
</event>
<event>
 7    1  0.2693725E-009  0.9205106E+02  0.7561462E-02  0.1297959E+00
         -1   -1    0    0    0  501 -0.00000000000E+00  0.00000000000E+00  0.86159746357E+03  0.86159746357E+03  0.00000000000E+00 0.  1.
          1   -1    0    0  501    0  0.00000000000E+00 -0.00000000000E+00 -0.18228064374E+02  0.18228064374E+02  0.00000000000E+00 0. -1.
         25    2    1    2    0    0  0.73384075470E+01 -0.59904733812E+02  0.53286949516E+03  0.55067093908E+03  0.12508459103E+03 0.  0.
          5    1    3    3  502    0  0.29181794668E+02 -0.78457755112E+02  0.49951174519E+03  0.50649447426E+03  0.41800000000E+01 0.  1.
         -5    1    3    3    0  502 -0.21843387121E+02  0.18553021300E+02  0.33357749970E+02  0.44176464812E+02  0.41800000000E+01 0.  1.
        -11    1    1    2    0    0  0.13513985150E+02  0.87880175668E+01  0.25803994297E+01  0.16325302711E+02  0.00000000000E+00 0. -1.
         11    1    1    2    0    0 -0.20852392696E+02  0.51116716245E+02  0.30791950461E+03  0.31282928616E+03  0.00000000000E+00 0.  1.
</event>
<event>
 7    1  0.2693725E-009  0.1164837E+03  0.7561462E-02  0.1249013E+00
          1   -1    0    0  501    0  0.00000000000E+00  0.00000000000E+00  0.25896966803E+03  0.25896966803E+03  0.00000000000E+00 0. -1.
         -1   -1    0    0    0  501 -0.00000000000E+00 -0.00000000000E+00 -0.15458582801E+03  0.15458582801E+03  0.00000000000E+00 0.  1.
         25    2    1    2    0    0 -0.39122642175E+02  0.62525185742E+02  0.20686537132E+03  0.25274403988E+03  0.12508512244E+03 0.  0.
          5    1    3    3  502    0 -0.62217500263E+01  0.95087361699E+02  0.16287589830E+03  0.18874942960E+03  0.41800000000E+01 0. -1.
         -5    1    3    3    0  502 -0.32900892148E+02 -0.32562175957E+02  0.43989473029E+02  0.63994610277E+02  0.41800000000E+01 0. -1.
        -11    1    1    2    0    0 -0.88600559910E+01 -0.34326435473E+02 -0.98876178836E+02  0.10503953306E+03  0.00000000000E+00 0.  1.
         11    1    1    2    0    0  0.47982698166E+02 -0.28198750269E+02 -0.36053524618E+01  0.55771923101E+02  0.00000000000E+00 0. -1.
</event>
<event>
 7    1  0.2693725E-009  0.1109287E+03  0.7561462E-02  0.1258860E+00
         -1   -1    0    0    0  501 -0.00000000000E+00  0.00000000000E+00  0.44181400059E+02  0.44181400059E+02  0.00000000000E+00 0.  1.
          1   -1    0    0  501    0  0.00000000000E+00 -0.00000000000E+00 -0.46799936722E+03  0.46799936722E+03  0.00000000000E+00 0. -1.
         25    2    1    2    0    0 -0.36700459290E+02  0.84705504863E+02 -0.23935788007E+03  0.28541477220E+03  0.12508977245E+03 0.  0.
          5    1    3    3  502    0  0.11388635444E+02  0.12043856256E+02  0.10977363023E+02  0.20315767023E+02  0.41800000000E+01 0.  1.
         -5    1    3    3    0  502 -0.48089094734E+02  0.72661648608E+02 -0.25033524310E+03  0.26509900518E+03  0.41800000000E+01 0.  1.
        -11    1    1    2    0    0  0.53507430369E+02 -0.32314922014E+02 -0.14827700982E+03  0.16091417256E+03  0.00000000000E+00 0. -1.
         11    1    1    2    0    0 -0.16806971079E+02 -0.52390582849E+02 -0.36183077263E+02  0.65851822513E+02  0.00000000000E+00 0.  1.
</event>
<event>
 7    1  0.2693725E-009  0.3777698E+03  0.7561462E-02  0.1051761E+00
         -2   -1    0    0    0  501 -0.00000000000E+00  0.00000000000E+00  0.15234070952E+03  0.15234070952E+03  0.00000000000E+00 0.  1.
          2   -1    0    0  501    0  0.00000000000E+00 -0.00000000000E+00 -0.10010495225E+04  0.10010495225E+04  0.00000000000E+00 0. -1.
         25    2    1    2    0    0  0.15931479918E+03  0.32636615377E+03 -0.29299217771E+03  0.48310271425E+03  0.12509094592E+03 0.  0.
          5    1    3    3  502    0  0.39243697804E+02  0.21631917768E+03 -0.18777352543E+03  0.28915467090E+03  0.41800000000E+01 0.  1.
         -5    1    3    3    0  502  0.12007110138E+03  0.11004697609E+03 -0.10521865229E+03  0.19394804335E+03  0.41800000000E+01 0.  1.
        -11    1    1    2    0    0 -0.69060409223E+02 -0.23235723652E+03 -0.32699665814E+03  0.40704550104E+03  0.00000000000E+00 0. -1.
         11    1    1    2    0    0 -0.90254389957E+02 -0.94008917258E+02 -0.22871997713E+03  0.26324201672E+03  0.00000000000E+00 0.  1.
</event>
<event>
 7    1  0.2693725E-009  0.1503284E+03  0.7561462E-02  0.1200070E+00
         -1   -1    0    0    0  501 -0.00000000000E+00  0.00000000000E+00  0.59619362413E+03  0.59619362413E+03  0.00000000000E+00 0.  1.
          1   -1    0    0  501    0  0.00000000000E+00 -0.00000000000E+00 -0.42552736883E+02  0.42552736883E+02  0.00000000000E+00 0. -1.
         25    2    1    2    0    0  0.16789845116E+02  0.11301271356E+03  0.32212198602E+03  0.36395630395E+03  0.12509134655E+03 0.  0.
          5    1    3    3  502    0  0.26837071361E+02  0.13144104066E+03  0.20591830918E+03  0.24579828727E+03  0.41800000000E+01 0.  1.
         -5    1    3    3    0  502 -0.10047226245E+02 -0.18428327099E+02  0.11620367684E+03  0.11815801668E+03  0.41800000000E+01 0.  1.
        -11    1    1    2    0    0  0.35414090616E+02 -0.65443694459E+02  0.91247134804E+02  0.11774155837E+03  0.00000000000E+00 0.  1.
         11    1    1    2    0    0 -0.52203935732E+02 -0.47569019103E+02  0.14027176641E+03  0.15704849868E+03  0.00000000000E+00 0. -1.
</event>
<event>
 7    1  0.2693725E-009  0.1252017E+03  0.7561462E-02  0.1234754E+00
         -1   -1    0    0    0  501 -0.00000000000E+00  0.00000000000E+00  0.76795884249E+02  0.76795884249E+02  0.00000000000E+00 0.  1.
          1   -1    0    0  501    0  0.00000000000E+00 -0.00000000000E+00 -0.23857325356E+03  0.23857325356E+03  0.00000000000E+00 0. -1.
         25    2    1    2    0    0  0.68516142147E+02  0.28958088604E+01 -0.44725161119E+02  0.14950161948E+03  0.12509015447E+03 0.  0.
          5    1    3    3  502    0  0.10163453853E+03  0.13697286600E+02 -0.49746886820E+02  0.11405884547E+03  0.41800000000E+01 0.  1.
         -5    1    3    3    0  502 -0.33118396380E+02 -0.10801477739E+02  0.50217257010E+01  0.35442774005E+02  0.41800000000E+01 0.  1.
        -11    1    1    2    0    0  0.58501965058E+00  0.34231134000E+02 -0.59242083887E+02  0.68423221834E+02  0.00000000000E+00 0. -1.
         11    1    1    2    0    0 -0.69101161798E+02 -0.37126942860E+02 -0.57810124307E+02  0.97444296500E+02  0.00000000000E+00 0.  1.
</event>
<event>
 7    1  0.2693725E-009  0.1318127E+03  0.7561462E-02  0.1224791E+00
         -1   -1    0    0    0  501 -0.00000000000E+00  0.00000000000E+00  0.15642652735E+03  0.15642652735E+03  0.00000000000E+00 0.  1.
          1   -1    0    0  501    0  0.00000000000E+00 -0.00000000000E+00 -0.30841168596E+03  0.30841168596E+03  0.00000000000E+00 0. -1.
         25    2    1    2    0    0  0.85304999411E+02  0.91083500759E+02 -0.23223997021E+03  0.29181574656E+03  0.12509148311E+03 0.  0.
          5    1    3    3  502    0  0.51065815531E+02  0.14313798320E+02 -0.99427100888E+01  0.54119610328E+02  0.41800000000E+01 0. -1.
         -5    1    3    3    0  502  0.34239183880E+02  0.76769702438E+02 -0.22229726012E+03  0.23769613624E+03  0.41800000000E+01 0. -1.
        -11    1    1    2    0    0 -0.42415981769E+02 -0.59178927514E+02  0.92959221863E+02  0.11807911712E+03  0.00000000000E+00 0.  1.
         11    1    1    2    0    0 -0.42889017642E+02 -0.31904573244E+02 -0.12704410264E+02  0.54943349628E+02  0.00000000000E+00 0. -1.
</event>
<event>
 7    1  0.2693725E-009  0.3442480E+03  0.7561462E-02  0.1065001E+00
          1   -1    0    0  501    0  0.00000000000E+00  0.00000000000E+00  0.82585623106E+02  0.82585623106E+02  0.00000000000E+00 0. -1.
         -1   -1    0    0    0  501 -0.00000000000E+00 -0.00000000000E+00 -0.14707953665E+04  0.14707953665E+04  0.00000000000E+00 0.  1.
         25    2    1    2    0    0 -0.17641512740E+03 -0.27485993455E+03 -0.82381154824E+03  0.89497544008E+03  0.12508113579E+03 0.  0.
          5    1    3    3  502    0 -0.33547920123E+02 -0.16730554760E+03 -0.38816430548E+03  0.42403491560E+03  0.41800000000E+01 0. -1.
         -5    1    3    3    0  502 -0.14286720728E+03 -0.10755438696E+03 -0.43564724276E+03  0.47094052448E+03  0.41800000000E+01 0. -1.
        -11    1    1    2    0    0  0.12212819889E+02  0.93455052747E+02 -0.16465033915E+03  0.18971751115E+03  0.00000000000E+00 0.  1.
         11    1    1    2    0    0  0.16420230752E+03  0.18140488181E+03 -0.39974785598E+03  0.46868803836E+03  0.00000000000E+00 0. -1.
</event>
<event>
 7    1  0.2693725E-009  0.9823848E+02  0.7561462E-02  0.1284044E+00
         -1   -1    0    0    0  501 -0.00000000000E+00  0.00000000000E+00  0.18018982374E+02  0.18018982374E+02  0.00000000000E+00 0.  1.
          1   -1    0    0  501    0  0.00000000000E+00 -0.00000000000E+00 -0.71022078854E+03  0.71022078854E+03  0.00000000000E+00 0. -1.
         25    2    1    2    0    0 -0.30346795679E+01 -0.18815029014E+02 -0.50351335588E+03  0.51916785207E+03  0.12508534877E+03 0.  0.
          5    1    3    3  502    0 -0.36192504526E+02  0.31773717057E+02 -0.99405330761E+02  0.11053668469E+03  0.41800000000E+01 0.  1.
         -5    1    3    3    0  502  0.33157824959E+02 -0.50588746071E+02 -0.40410802512E+03  0.40863116738E+03  0.41800000000E+01 0.  1.
        -11    1    1    2    0    0  0.44147428145E+02  0.12708115708E+02 -0.12342056612E+03  0.13169330947E+03  0.00000000000E+00 0.  1.
         11    1    1    2    0    0 -0.41112748578E+02  0.61069133065E+01 -0.65267884167E+02  0.77378609379E+02  0.00000000000E+00 0. -1.
</event>
<event>
 7    1  0.2693725E-009  0.2270263E+03  0.7561462E-02  0.1128750E+00
          2   -1    0    0  501    0  0.00000000000E+00  0.00000000000E+00  0.17139002019E+04  0.17139002019E+04  0.00000000000E+00 0. -1.
         -2   -1    0    0    0  501 -0.00000000000E+00 -0.00000000000E+00 -0.33207484547E+02  0.33207484547E+02  0.00000000000E+00 0.  1.
         25    2    1    2    0    0  0.50906667230E+02  0.20266712680E+03  0.10076443461E+04  0.10366578586E+04  0.12508770680E+03 0.  0.
          5    1    3    3  502    0  0.69399583088E+02  0.41529449895E+02  0.36047524364E+03  0.36946024281E+03  0.41800000000E+01 0.  1.
         -5    1    3    3    0  502 -0.18492915858E+02  0.16113767691E+03  0.64716910247E+03  0.66719761574E+03  0.41800000000E+01 0.  1.
        -11    1    1    2    0    0 -0.26094576224E+02 -0.52626730897E+02  0.33022808010E+03  0.33541181345E+03  0.00000000000E+00 0. -1.
         11    1    1    2    0    0 -0.24812091005E+02 -0.15004039591E+03  0.34282029118E+03  0.37503801449E+03  0.00000000000E+00 0.  1.
</event>
<event>
 7    1  0.2693725E-009  0.1593853E+03  0.7561462E-02  0.1189393E+00
          2   -1    0    0  501    0  0.00000000000E+00  0.00000000000E+00  0.80430257983E+02  0.80430257983E+02  0.00000000000E+00 0. -1.
         -2   -1    0    0    0  501 -0.00000000000E+00 -0.00000000000E+00 -0.46789709423E+03  0.46789709423E+03  0.00000000000E+00 0.  1.
         25    2    1    2    0    0 -0.78280087677E+02 -0.12439136221E+03 -0.11075597890E+03  0.22252064171E+03  0.12509023145E+03 0.  0.
          5    1    3    3  502    0 -0.56280535785E+02 -0.50295259242E+02  0.12848614036E+02  0.76679013382E+02  0.41800000000E+01 0.  1.
         -5    1    3    3    0  502 -0.21999551891E+02 -0.74096102968E+02 -0.12360459293E+03  0.14584162832E+03  0.41800000000E+01 0.  1.
        -11    1    1    2    0    0 -0.68049999580E+01  0.56525949615E+02 -0.56718773108E+02  0.80364856916E+02  0.00000000000E+00 0. -1.
         11    1    1    2    0    0  0.85085087635E+02  0.67865412595E+02 -0.21999208424E+03  0.24544185359E+03  0.00000000000E+00 0.  1.
</event>
<event>
 7    1  0.2693725E-009  0.1492795E+03  0.7561462E-02  0.1201361E+00
          2   -1    0    0  501    0  0.00000000000E+00  0.00000000000E+00  0.18482068880E+03  0.18482068880E+03  0.00000000000E+00 0. -1.
         -2   -1    0    0    0  501 -0.00000000000E+00 -0.00000000000E+00 -0.14959673259E+03  0.14959673259E+03  0.00000000000E+00 0.  1.
         25    2    1    2    0    0 -0.36278603817E+02 -0.12216552284E+03  0.23413641529E+02  0.18010598061E+03  0.12509761619E+03 0.  0.
          5    1    3    3  502    0 -0.39560640567E+02 -0.13864433472E+03 -0.77593837408E+01  0.14444714005E+03  0.41800000000E+01 0. -1.
         -5    1    3    3    0  502  0.32820367502E+01  0.16478811875E+02  0.31173025269E+02  0.35658840566E+02  0.41800000000E+01 0. -1.
        -11    1    1    2    0    0 -0.11206822445E+02  0.93180474736E+01  0.27257632851E+02  0.30909503824E+02  0.00000000000E+00 0. -1.
         11    1    1    2    0    0  0.47485426261E+02  0.11284747537E+03 -0.15447318167E+02  0.12340193695E+03  0.00000000000E+00 0.  1.
</event>
<event>
 7    1  0.2693725E-009  0.1769119E+03  0.7561462E-02  0.1170826E+00
          1   -1    0    0  501    0  0.00000000000E+00  0.00000000000E+00  0.14684384523E+03  0.14684384523E+03  0.00000000000E+00 0. -1.
         -1   -1    0    0    0  501 -0.00000000000E+00 -0.00000000000E+00 -0.31907520132E+03  0.31907520132E+03  0.00000000000E+00 0.  1.
         25    2    1    2    0    0 -0.89881968455E+02 -0.13558606622E+03 -0.18911237745E+03  0.27905809343E+03  0.12509028177E+03 0.  0.
          5    1    3    3  502    0  0.21544021088E+02 -0.30286273005E+02 -0.24645208879E+01  0.37482655193E+02  0.41800000000E+01 0. -1.
         -5    1    3    3    0  502 -0.11142598954E+03 -0.10529979322E+03 -0.18664785657E+03  0.24157543824E+03  0.41800000000E+01 0. -1.
        -11    1    1    2    0    0  0.39319457435E+02  0.69421867104E+02 -0.36720891004E+02  0.87828464642E+02  0.00000000000E+00 0.  1.
         11    1    1    2    0    0  0.50562511021E+02  0.66164199120E+02  0.53601912362E+02  0.99032488481E+02  0.00000000000E+00 0. -1.
</event>
<event>
 7    1  0.2693725E-009  0.7510821E+02  0.7561462E-02  0.1343536E+00
         -1   -1    0    0    0  501 -0.00000000000E+00  0.00000000000E+00  0.40777181123E+02  0.40777181123E+02  0.00000000000E+00 0.  1.
          1   -1    0    0  501    0  0.00000000000E+00 -0.00000000000E+00 -0.33748520207E+03  0.33748520207E+03  0.00000000000E+00 0. -1.
         25    2    1    2    0    0 -0.29211454960E+02 -0.28331045667E+02 -0.23996749273E+03  0.27365341228E+03  0.12508331317E+03 0.  0.
          5    1    3    3  502    0 -0.90613530025E+01 -0.62723329231E+02 -0.21978864241E+03  0.22878121401E+03  0.41800000000E+01 0. -1.
         -5    1    3    3    0  502 -0.20150101958E+02  0.34392283564E+02 -0.20178850321E+02  0.44872198274E+02  0.41800000000E+01 0. -1.
        -11    1    1    2    0    0  0.30079566045E+02  0.15636526427E+02  0.11033101366E+02  0.35651235293E+02  0.00000000000E+00 0.  1.
         11    1    1    2    0    0 -0.86811108434E+00  0.12694519240E+02 -0.67773629578E+02  0.68957735619E+02  0.00000000000E+00 0. -1.
</event>
<event>
 7    1  0.2693725E-009  0.1008032E+03  0.7561462E-02  0.1278616E+00
          2   -1    0    0  501    0  0.00000000000E+00  0.00000000000E+00  0.46656686254E+02  0.46656686254E+02  0.00000000000E+00 0. -1.
         -2   -1    0    0    0  501 -0.00000000000E+00 -0.00000000000E+00 -0.27572327178E+03  0.27572327178E+03  0.00000000000E+00 0.  1.
         25    2    1    2    0    0 -0.30044991541E+02  0.18876184617E+02 -0.12656058517E+03  0.18144954294E+03  0.12508934027E+03 0.  0.
          5    1    3    3  502    0  0.81287150752E+01 -0.49226676348E+02 -0.64359734929E+02  0.81541336469E+02  0.41800000000E+01 0. -1.
         -5    1    3    3    0  502 -0.38173706616E+02  0.68102860965E+02 -0.62200850242E+02  0.99908206466E+02  0.41800000000E+01 0. -1.
        -11    1    1    2    0    0 -0.20381072732E+02 -0.69914637025E+01 -0.82708255773E+02  0.85468849668E+02  0.00000000000E+00 0.  1.
         11    1    1    2    0    0  0.50426064273E+02 -0.11884720914E+02 -0.19797744577E+02  0.55461565427E+02  0.00000000000E+00 0. -1.
</event>
<event>
 7    1  0.2693725E-009  0.1034239E+03  0.7561462E-02  0.1273256E+00
         -3   -1    0    0    0  501 -0.00000000000E+00  0.00000000000E+00  0.14395275526E+03  0.14395275526E+03  0.00000000000E+00 0.  1.
          3   -1    0    0  501    0  0.00000000000E+00 -0.00000000000E+00 -0.99962298249E+02  0.99962298249E+02  0.00000000000E+00 0. -1.
         25    2    1    2    0    0  0.44146444919E+02 -0.45683445419E+01  0.48029113345E+02  0.14114863481E+03  0.12508542285E+03 0.  0.
          5    1    3    3  502    0  0.44863491003E+02  0.46250575938E+02  0.60679185077E+02  0.88607474296E+02  0.41800000000E+01 0. -1.
         -5    1    3    3    0  502 -0.71704608368E+00 -0.50818920480E+02 -0.12650071732E+02  0.52541160519E+02  0.41800000000E+01 0. -1.
        -11    1    1    2    0    0 -0.15028647370E+02  0.41566495859E+02 -0.25495117031E+02  0.51025824954E+02  0.00000000000E+00 0. -1.
         11    1    1    2    0    0 -0.29117797549E+02 -0.36998151317E+02  0.21456460697E+02  0.51740593740E+02  0.00000000000E+00 0.  1.
</event>
<event>
 7    1  0.2693725E-009  0.1554196E+03  0.7561462E-02  0.1193967E+00
         -1   -1    0    0    0  501 -0.00000000000E+00  0.00000000000E+00  0.57236215957E+03  0.57236215957E+03  0.00000000000E+00 0.  1.
          1   -1    0    0  501    0  0.00000000000E+00 -0.00000000000E+00 -0.62543204427E+02  0.62543204427E+02  0.00000000000E+00 0. -1.
         25    2    1    2    0    0  0.80402811396E+02 -0.12457538078E+03  0.28133736085E+03  0.34173228104E+03  0.12508638504E+03 0.  0.
          5    1    3    3  502    0  0.33906666538E+02 -0.61829229993E+02  0.26969617614E+02  0.75613149594E+02  0.41800000000E+01 0. -1.
         -5    1    3    3    0  502  0.46496144858E+02 -0.62746150786E+02  0.25436774324E+03  0.26611913145E+03  0.41800000000E+01 0. -1.
        -11    1    1    2    0    0 -0.55922062094E+02  0.28343675753E+02  0.16191248462E+03  0.17362688058E+03  0.00000000000E+00 0.  1.
         11    1    1    2    0    0 -0.24480749302E+02  0.96231705026E+02  0.66569109667E+02  0.11954620237E+03  0.00000000000E+00 0. -1.
</event>
<event>
 7    1  0.2693725E-009  0.1706162E+03  0.7561462E-02  0.1177207E+00
          1   -1    0    0  501    0  0.00000000000E+00  0.00000000000E+00  0.21823180570E+03  0.21823180570E+03  0.00000000000E+00 0. -1.
         -1   -1    0    0    0  501 -0.00000000000E+00 -0.00000000000E+00 -0.16415198226E+03  0.16415198226E+03  0.00000000000E+00 0.  1.
         25    2    1    2    0    0 -0.12841895568E+03  0.40210584663E+02 -0.48854242253E+02  0.19011213184E+03  0.12509023299E+03 0.  0.
          5    1    3    3  502    0  0.19724153904E+02 -0.14734560462E+02 -0.12497619578E+02  0.27925121563E+02  0.41800000000E+01 0.  1.
         -5    1    3    3    0  502 -0.14814310959E+03  0.54945145125E+02 -0.36356622675E+02  0.16218701028E+03  0.41800000000E+01 0.  1.
        -11    1    1    2    0    0  0.42946130330E+02  0.25893256944E+02  0.13302562912E+02  0.51882454120E+02  0.00000000000E+00 0.  1.
         11    1    1    2    0    0  0.85472825353E+02 -0.66103841607E+02  0.89631502776E+02  0.14038920200E+03  0.00000000000E+00 0. -1.
</event>
<event>
 7    1  0.2693725E-009  0.1288451E+03  0.7561462E-02  0.1229180E+00
          1   -1    0    0  501    0  0.00000000000E+00  0.00000000000E+00  0.27058001554E+03  0.27058001554E+03  0.00000000000E+00 0. -1.
         -1   -1    0    0    0  501 -0.00000000000E+00 -0.00000000000E+00 -0.93139043533E+02  0.93139043533E+02  0.00000000000E+00 0.  1.
         25    2    1    2    0    0 -0.50809390294E+02  0.71418445910E+02  0.92622678058E+01  0.15301563587E+03  0.12508319894E+03 0.  0.
          5    1    3    3  502    0 -0.62568372148E+02  0.98250195338E+02  0.25425319702E+02  0.11929719762E+03  0.41800000000E+01 0. -1.
         -5    1    3    3    0  502  0.11758981854E+02 -0.26831749428E+02 -0.16163051896E+02  0.33718438253E+02  0.41800000000E+01 0. -1.
        -11    1    1    2    0    0  0.49386823908E+02 -0.10353597399E+02  0.12801265935E+03  0.13759904182E+03  0.00000000000E+00 0. -1.
         11    1    1    2    0    0  0.14225663854E+01 -0.61064848512E+02  0.40166044850E+02  0.73104381386E+02  0.00000000000E+00 0.  1.
</event>
<event>
 7    1  0.2693725E-009  0.1056267E+03  0.7561462E-02  0.1268890E+00
          1   -1    0    0  501    0  0.00000000000E+00  0.00000000000E+00  0.13847469168E+04  0.13847469168E+04  0.00000000000E+00 0. -1.
         -1   -1    0    0    0  501 -0.00000000000E+00 -0.00000000000E+00 -0.19586684641E+02  0.19586684641E+02  0.00000000000E+00 0.  1.
         25    2    1    2    0    0  0.64587093678E+02 -0.42785565511E+02  0.11563651038E+04  0.11656888134E+04  0.12509220262E+03 0.  0.
          5    1    3    3  502    0  0.26292507528E+02 -0.50366168556E+02  0.18598088140E+03  0.19451068745E+03  0.41800000000E+01 0. -1.
         -5    1    3    3    0  502  0.38294586150E+02  0.75806030449E+01  0.97038422236E+03  0.97117812592E+03  0.41800000000E+01 0. -1.
        -11    1    1    2    0    0 -0.72250300434E+02  0.70833627316E+00  0.14209530625E+03  0.15941042535E+03  0.00000000000E+00 0. -1.
         11    1    1    2    0    0  0.76632067559E+01  0.42077229238E+02  0.66699822108E+02  0.79234362667E+02  0.00000000000E+00 0.  1.
</event>
<event>
 7    1  0.2693725E-009  0.7739005E+02  0.7561462E-02  0.1336626E+00
         -2   -1    0    0    0  501 -0.00000000000E+00  0.00000000000E+00  0.69459053723E+03  0.69459053723E+03  0.00000000000E+00 0.  1.
          2   -1    0    0  501    0  0.00000000000E+00 -0.00000000000E+00 -0.30338058412E+02  0.30338058412E+02  0.00000000000E+00 0. -1.
         25    2    1    2    0    0 -0.16011871183E+02 -0.13861291227E+02  0.58751192473E+03  0.60105390514E+03  0.12508804808E+03 0.  0.
          5    1    3    3  502    0  0.13185521774E+02  0.32506246027E+02  0.47001799645E+03  0.47134372108E+03  0.41800000000E+01 0. -1.
         -5    1    3    3    0  502 -0.29197392956E+02 -0.46367537255E+02  0.11749392827E+03  0.12971018406E+03  0.41800000000E+01 0. -1.
        -11    1    1    2    0    0  0.39495421819E+02  0.93388782153E+01 -0.29319965921E+01  0.40690288706E+02  0.00000000000E+00 0. -1.
         11    1    1    2    0    0 -0.23483550637E+02  0.45224130122E+01  0.79672550679E+02  0.83184401793E+02  0.00000000000E+00 0.  1.
</event>
<event>
 7    1  0.2693725E-009  0.1440627E+03  0.7561462E-02  0.1207964E+00
         -2   -1    0    0    0  501 -0.00000000000E+00  0.00000000000E+00  0.21387086428E+02  0.21387086428E+02  0.00000000000E+00 0.  1.
          2   -1    0    0  501    0  0.00000000000E+00 -0.00000000000E+00 -0.11307329362E+04  0.11307329362E+04  0.00000000000E+00 0. -1.
         25    2    1    2    0    0 -0.76651888595E+02 -0.63425423889E+02 -0.41283642001E+03  0.44269576670E+03  0.12508931109E+03 0.  0.
          5    1    3    3  502    0 -0.64253944466E+02 -0.97848176308E+02 -0.35771862644E+03  0.37640792112E+03  0.41800000000E+01 0.  1.
         -5    1    3    3    0  502 -0.12397944129E+02  0.34422752419E+02 -0.55117793572E+02  0.66287845575E+02  0.41800000000E+01 0.  1.
        -11    1    1    2    0    0  0.63095460738E+02 -0.60461619149E+01 -0.36212873206E+03  0.36763407326E+03  0.00000000000E+00 0.  1.
         11    1    1    2    0    0  0.13556427858E+02  0.69471585804E+02 -0.33438069770E+03  0.34179018266E+03  0.00000000000E+00 0. -1.
</event>
<event>
 7    1  0.2693725E-009  0.1607741E+03  0.7561462E-02  0.1187826E+00
          2   -1    0    0  501    0  0.00000000000E+00  0.00000000000E+00  0.78717577209E+03  0.78717577209E+03  0.00000000000E+00 0. -1.
         -2   -1    0    0    0  501 -0.00000000000E+00 -0.00000000000E+00 -0.51809300102E+02  0.51809300102E+02  0.00000000000E+00 0.  1.
         25    2    1    2    0    0  0.75690698260E+02  0.12054220863E+03  0.57884776101E+03  0.60907434137E+03  0.12508923625E+03 0.  0.
          5    1    3    3  502    0 -0.36438586270E+01  0.93497500250E+02  0.19725411605E+03  0.21836144110E+03  0.41800000000E+01 0.  1.
         -5    1    3    3    0  502  0.79334556887E+02  0.27044708377E+02  0.38159364496E+03  0.39071290027E+03  0.41800000000E+01 0.  1.
        -11    1    1    2    0    0 -0.61890809405E+02 -0.11131631547E+03  0.77333392387E+02  0.14900418772E+03  0.00000000000E+00 0.  1.
         11    1    1    2    0    0 -0.13799888856E+02 -0.92258931557E+01  0.79185318587E+02  0.80906543102E+02  0.00000000000E+00 0. -1.
</event>
<event>
 7    1  0.2693725E-009  0.1552475E+03  0.7561462E-02  0.1194169E+00
          2   -1    0    0  501    0  0.00000000000E+00  0.00000000000E+00  0.12374115273E+04  0.12374115273E+04  0.00000000000E+00 0. -1.
         -2   -1    0    0    0  501 -0.00000000000E+00 -0.00000000000E+00 -0.22618140804E+02  0.22618140804E+02  0.00000000000E+00 0.  1.
         25    2    1    2    0    0 -0.11319930226E+02 -0.12520698760E+03  0.60358956970E+03  0.62910516646E+03  0.12509201116E+03 0.  0.
          5    1    3    3  502    0  0.24936398729E+02 -0.11522476567E+03  0.28752636992E+03  0.31078522552E+03  0.41800000000E+01 0.  1.
         -5    1    3    3    0  502 -0.36256328955E+02 -0.99822219335E+01  0.31606319978E+03  0.31831994094E+03  0.41800000000E+01 0.  1.
        -11    1    1    2    0    0  0.42503384741E+02  0.11381517455E+03  0.43640148204E+03  0.45299744503E+03  0.00000000000E+00 0. -1.
         11    1    1    2    0    0 -0.31183454516E+02  0.11391813051E+02  0.17480233474E+03  0.17792705660E+03  0.00000000000E+00 0.  1.
</event>
<event>
 7    1  0.2693725E-009  0.1204582E+03  0.7561462E-02  0.1242343E+00
          2   -1    0    0  501    0  0.00000000000E+00  0.00000000000E+00  0.26378157066E+03  0.26378157066E+03  0.00000000000E+00 0. -1.
         -2   -1    0    0    0  501 -0.00000000000E+00 -0.00000000000E+00 -0.61307011285E+02  0.61307011285E+02  0.00000000000E+00 0.  1.
         25    2    1    2    0    0 -0.54700080381E+02 -0.91615508869E+01  0.63224861051E+02  0.15073265183E+03  0.12508763514E+03 0.  0.
          5    1    3    3  502    0 -0.26457550224E+01  0.53892362539E+02  0.33412429635E+02  0.63602276797E+02  0.41800000000E+01 0. -1.
         -5    1    3    3    0  502 -0.52054325359E+02 -0.63053913426E+02  0.29812431416E+02  0.87130375035E+02  0.41800000000E+01 0. -1.
        -11    1    1    2    0    0  0.64171133605E+02 -0.25456421882E+02  0.91515158098E+02  0.11463414834E+03  0.00000000000E+00 0. -1.
         11    1    1    2    0    0 -0.94710532241E+01  0.34617972769E+02  0.47734540224E+02  0.59721781773E+02  0.00000000000E+00 0.  1.
</event>
<event>
 7    1  0.2693725E-009  0.1302777E+03  0.7561462E-02  0.1227044E+00
          1   -1    0    0  501    0  0.00000000000E+00  0.00000000000E+00  0.13285486183E+04  0.13285486183E+04  0.00000000000E+00 0. -1.
         -1   -1    0    0    0  501 -0.00000000000E+00 -0.00000000000E+00 -0.17326845471E+02  0.17326845471E+02  0.00000000000E+00 0.  1.
         25    2    1    2    0    0 -0.19377978656E+01 -0.82204938783E+02  0.99483125317E+03  0.10060310770E+04  0.12509156060E+03 0.  0.
          5    1    3    3  502    0 -0.39016055642E+02  0.10641437770E+02  0.15437183502E+03  0.15963592529E+03  0.41800000000E+01 0.  1.
         -5    1    3    3    0  502  0.37078257777E+02 -0.92846376552E+02  0.84045941815E+03  0.84639515169E+03  0.41800000000E+01 0.  1.
        -11    1    1    2    0    0  0.41920527584E+02  0.21411435013E+02  0.83530935902E+02  0.95881163087E+02  0.00000000000E+00 0. -1.
         11    1    1    2    0    0 -0.39982729718E+02  0.60793503769E+02  0.23285958379E+03  0.24396322374E+03  0.00000000000E+00 0.  1.
</event>
<event>
 7    1  0.2693725E-009  0.8217847E+02  0.7561462E-02  0.1322981E+00
          4   -1    0    0  501    0  0.00000000000E+00  0.00000000000E+00  0.13465805941E+03  0.13465805941E+03  0.00000000000E+00 0. -1.
         -4   -1    0    0    0  501 -0.00000000000E+00 -0.00000000000E+00 -0.12634811514E+03  0.12634811514E+03  0.00000000000E+00 0.  1.
         25    2    1    2    0    0  0.19199032087E+02 -0.38907456123E+01 -0.66021973590E+02  0.14279330549E+03  0.12508911368E+03 0.  0.
          5    1    3    3  502    0  0.61184837119E+02  0.33804080891E+02 -0.37303833624E+02  0.79343232737E+02  0.41800000000E+01 0.  1.
         -5    1    3    3    0  502 -0.41985805032E+02 -0.37694826504E+02 -0.28718139966E+02  0.63450072754E+02  0.41800000000E+01 0.  1.
        -11    1    1    2    0    0 -0.23978506182E+02 -0.77235951776E+01  0.92643851345E+02  0.96007842770E+02  0.00000000000E+00 0. -1.
         11    1    1    2    0    0  0.47794740947E+01  0.11614340790E+02 -0.18311933482E+02  0.22205026288E+02  0.00000000000E+00 0.  1.
</event>
<event>
 7    1  0.2693725E-009  0.7258166E+02  0.7561462E-02  0.1351528E+00
          2   -1    0    0  501    0  0.00000000000E+00  0.00000000000E+00  0.10846635680E+03  0.10846635680E+03  0.00000000000E+00 0. -1.
         -2   -1    0    0    0  501 -0.00000000000E+00 -0.00000000000E+00 -0.24801057557E+03  0.24801057557E+03  0.00000000000E+00 0.  1.
         25    2    1    2    0    0  0.47895486407E+02  0.15617275755E+02  0.47127313247E+02  0.14285267263E+03  0.12509206811E+03 0.  0.
          5    1    3    3  502    0 -0.19672530793E+02  0.17983815564E+02  0.67025744966E+02  0.72251982522E+02  0.41800000000E+01 0. -1.
         -5    1    3    3    0  502  0.67568017200E+02 -0.23665398093E+01 -0.19898431719E+02  0.70600690109E+02  0.41800000000E+01 0. -1.
        -11    1    1    2    0    0 -0.99918247959E+01 -0.21531291533E+01  0.91474203391E+01  0.13716698829E+02  0.00000000000E+00 0. -1.
         11    1    1    2    0    0 -0.37903661611E+02 -0.13464146602E+02 -0.19581895236E+03  0.19990756091E+03  0.00000000000E+00 0.  1.
</event>
<event>
 7    1  0.2693725E-009  0.1169571E+03  0.7561462E-02  0.1248203E+00
         -2   -1    0    0    0  501 -0.00000000000E+00  0.00000000000E+00  0.20273226499E+03  0.20273226499E+03  0.00000000000E+00 0.  1.
          2   -1    0    0  501    0  0.00000000000E+00 -0.00000000000E+00 -0.12395729845E+03  0.12395729845E+03  0.00000000000E+00 0. -1.
         25    2    1    2    0    0  0.58135691063E+02  0.48646350040E+02 -0.47395891243E+02  0.15375280058E+03  0.12508927705E+03 0.  0.
          5    1    3    3  502    0  0.29383424130E+02 -0.39392592542E+02 -0.34408963306E+02  0.60138266658E+02  0.41800000000E+01 0. -1.
         -5    1    3    3    0  502  0.28752266933E+02  0.88038942582E+02 -0.12986927937E+02  0.93614533925E+02  0.41800000000E+01 0. -1.
        -11    1    1    2    0    0 -0.16201418050E+02  0.10553725438E+02  0.89657540318E+02  0.91718818153E+02  0.00000000000E+00 0.  1.
         11    1    1    2    0    0 -0.41934273013E+02 -0.59200075478E+02  0.36513317468E+02  0.81217944706E+02  0.00000000000E+00 0. -1.
</event>
<event>
 7    1  0.2693725E-009  0.1453702E+03  0.7561462E-02  0.1206280E+00
         -1   -1    0    0    0  501 -0.00000000000E+00  0.00000000000E+00  0.34822079781E+03  0.34822079781E+03  0.00000000000E+00 0.  1.
          1   -1    0    0  501    0  0.00000000000E+00 -0.00000000000E+00 -0.83230699230E+02  0.83230699230E+02  0.00000000000E+00 0. -1.
         25    2    1    2    0    0 -0.10967863222E+03  0.99568044988E+01  0.51263457554E+02  0.17436391916E+03  0.12508514661E+03 0.  0.
          5    1    3    3  502    0 -0.12412487886E+03 -0.11600294537E+02  0.69102038078E+02  0.14259774350E+03  0.41800000000E+01 0.  1.
         -5    1    3    3    0  502  0.14446246637E+02  0.21557099035E+02 -0.17838580524E+02  0.31766175657E+02  0.41800000000E+01 0.  1.
        -11    1    1    2    0    0  0.70223204984E+02 -0.47881196940E+02  0.15527788302E+03  0.17701731128E+03  0.00000000000E+00 0.  1.
         11    1    1    2    0    0  0.39455427241E+02  0.37924392441E+02  0.58448758008E+02  0.80070266600E+02  0.00000000000E+00 0. -1.
</event>
<event>
 7    1  0.2693725E-009  0.4884281E+02  0.7561462E-02  0.1451685E+00
          1   -1    0    0  501    0  0.00000000000E+00  0.00000000000E+00  0.17072677873E+03  0.17072677873E+03  0.00000000000E+00 0. -1.
         -1   -1    0    0    0  501 -0.00000000000E+00 -0.00000000000E+00 -0.95582639809E+02  0.95582639809E+02  0.00000000000E+00 0.  1.
         25    2    1    2    0    0 -0.47682157609E+00 -0.30054411020E+02  0.10762675600E+03  0.16773552170E+03  0.12509273221E+03 0.  0.
          5    1    3    3  502    0 -0.23962674372E+02 -0.34660949215E+02 -0.13306334695E+02  0.44386057570E+02  0.41800000000E+01 0. -1.
         -5    1    3    3    0  502  0.23485852796E+02  0.46065381954E+01  0.12093309069E+03  0.12334946413E+03  0.41800000000E+01 0. -1.
        -11    1    1    2    0    0 -0.35690700947E+01  0.17312838939E+02 -0.62906232785E+02  0.65342687247E+02  0.00000000000E+00 0.  1.
         11    1    1    2    0    0  0.40458916708E+01  0.12741572081E+02  0.30423615712E+02  0.33231209600E+02  0.00000000000E+00 0. -1.
</event>
<event>
 7    1  0.2693725E-009  0.1493176E+03  0.7561462E-02  0.1201314E+00
          1   -1    0    0  501    0  0.00000000000E+00  0.00000000000E+00  0.95026564684E+02  0.95026564684E+02  0.00000000000E+00 0. -1.
         -1   -1    0    0    0  501 -0.00000000000E+00 -0.00000000000E+00 -0.28302382631E+03  0.28302382631E+03  0.00000000000E+00 0.  1.
         25    2    1    2    0    0 -0.56453250288E+02  0.10189241084E+03 -0.64317166692E+02  0.18263246151E+03  0.12509550436E+03 0.  0.
          5    1    3    3  502    0 -0.58031758278E+02  0.12979897116E+03 -0.58361410892E+02  0.15374974655E+03  0.41800000000E+01 0.  1.
         -5    1    3    3    0  502  0.15785079904E+01 -0.27906560319E+02 -0.59557558007E+01  0.28882714960E+02  0.41800000000E+01 0.  1.
        -11    1    1    2    0    0  0.51848269678E+02 -0.38520041312E+02 -0.10243910167E+02  0.65398580617E+02  0.00000000000E+00 0.  1.
         11    1    1    2    0    0  0.46049806104E+01 -0.63372369527E+02 -0.11343618477E+03  0.13001934887E+03  0.00000000000E+00 0. -1.
</event>
<event>
 7    1  0.2693725E-009  0.2951115E+03  0.7561462E-02  0.1087710E+00
          1   -1    0    0  501    0  0.00000000000E+00  0.00000000000E+00  0.25821784346E+03  0.25821784346E+03  0.00000000000E+00 0. -1.
         -1   -1    0    0    0  501 -0.00000000000E+00 -0.00000000000E+00 -0.37202072209E+03  0.37202072209E+03  0.00000000000E+00 0.  1.
         25    2    1    2    0    0 -0.18955108233E+03 -0.20801431071E+03  0.74024880307E+01  0.30806039141E+03  0.12508733611E+03 0.  0.
          5    1    3    3  502    0 -0.46378269530E+02 -0.10687880268E+03 -0.45140216726E+02  0.12501653456E+03  0.41800000000E+01 0. -1.
         -5    1    3    3    0  502 -0.14317281280E+03 -0.10113550803E+03  0.52542704757E+02  0.18304385686E+03  0.41800000000E+01 0. -1.
        -11    1    1    2    0    0  0.43015868109E+02  0.11973451525E+03 -0.57681719077E+02  0.13969216072E+03  0.00000000000E+00 0.  1.
         11    1    1    2    0    0  0.14653521422E+03  0.88279795461E+02 -0.63523647585E+02  0.18248601342E+03  0.00000000000E+00 0. -1.
</event>
<event>
 7    1  0.2693725E-009  0.1332784E+03  0.7561462E-02  0.1222671E+00
          2   -1    0    0  501    0  0.00000000000E+00  0.00000000000E+00  0.37520245631E+03  0.37520245631E+03  0.00000000000E+00 0. -1.
         -2   -1    0    0    0  501 -0.00000000000E+00 -0.00000000000E+00 -0.68486642775E+02  0.68486642775E+02  0.00000000000E+00 0.  1.
         25    2    1    2    0    0  0.77503464711E+02 -0.46704585655E+02  0.26846682384E+03  0.30969303155E+03  0.12508890008E+03 0.  0.
          5    1    3    3  502    0 -0.19427986271E+02 -0.45593074384E+02  0.49398586189E+02  0.70098985725E+02  0.41800000000E+01 0.  1.
         -5    1    3    3    0  502  0.96931450982E+02 -0.11115112716E+01  0.21906823765E+03  0.23959404583E+03  0.41800000000E+01 0.  1.
        -11    1    1    2    0    0 -0.26392234183E+02  0.61215009315E+02  0.45012824613E+02  0.80436196891E+02  0.00000000000E+00 0. -1.
         11    1    1    2    0    0 -0.51111230528E+02 -0.14510423660E+02 -0.67638349155E+01  0.53559870646E+02  0.00000000000E+00 0.  1.
</event>
<event>
 7    1  0.2693725E-009  0.1653907E+03  0.7561462E-02  0.1182742E+00
         -1   -1    0    0    0  501 -0.00000000000E+00  0.00000000000E+00  0.77695220298E+03  0.77695220298E+03  0.00000000000E+00 0.  1.
          1   -1    0    0  501    0  0.00000000000E+00 -0.00000000000E+00 -0.42094024427E+02  0.42094024427E+02  0.00000000000E+00 0. -1.
         25    2    1    2    0    0  0.12092485552E+03  0.65347887721E+02  0.51449808949E+03  0.54703658419E+03  0.12509026040E+03 0.  0.
          5    1    3    3  502    0 -0.19815922208E+02  0.94275623981E+01  0.15957848935E+03  0.16113446673E+03  0.41800000000E+01 0.  1.
         -5    1    3    3    0  502  0.14074077772E+03  0.55920325323E+02  0.35491960014E+03  0.38590211746E+03  0.41800000000E+01 0.  1.
        -11    1    1    2    0    0 -0.69666613128E+02 -0.77554143336E+02  0.16806455012E+03  0.19777202821E+03  0.00000000000E+00 0. -1.
         11    1    1    2    0    0 -0.51258242388E+02  0.12206255615E+02  0.52295538942E+02  0.74237615008E+02  0.00000000000E+00 0.  1.
</event>
<event>
 7    1  0.2693725E-009  0.6802003E+02  0.7561462E-02  0.1366958E+00
         -1   -1    0    0    0  501 -0.00000000000E+00  0.00000000000E+00  0.28012092122E+03  0.28012092122E+03  0.00000000000E+00 0.  1.
          1   -1    0    0  501    0  0.00000000000E+00 -0.00000000000E+00 -0.45042018771E+02  0.45042018771E+02  0.00000000000E+00 0. -1.
         25    2    1    2    0    0  0.21788203039E+02 -0.21849572566E+02  0.13718637049E+03  0.18820077143E+03  0.12508917022E+03 0.  0.
          5    1    3    3  502    0 -0.47626085099E+01  0.15022503041E+02 -0.19261038779E+02  0.25235254155E+02  0.41800000000E+01 0.  1.
         -5    1    3    3    0  502  0.26550811549E+02 -0.36872075607E+02  0.15644740927E+03  0.16296551727E+03  0.41800000000E+01 0.  1.
        -11    1    1    2    0    0  0.49105526394E+01  0.40972991321E+02  0.90539784215E+01  0.42247770004E+02  0.00000000000E+00 0. -1.
         11    1    1    2    0    0 -0.26698755678E+02 -0.19123418756E+02  0.88838553536E+02  0.94714398557E+02  0.00000000000E+00 0.  1.
</event>
<event>
 7    1  0.2693725E-009  0.9907494E+02  0.7561462E-02  0.1282253E+00
          1   -1    0    0  501    0  0.00000000000E+00  0.00000000000E+00  0.38524708807E+03  0.38524708807E+03  0.00000000000E+00 0. -1.
         -1   -1    0    0    0  501 -0.00000000000E+00 -0.00000000000E+00 -0.31577873062E+02  0.31577873062E+02  0.00000000000E+00 0.  1.
         25    2    1    2    0    0 -0.23810637210E+02 -0.26714830806E+02  0.21307350503E+03  0.24965652785E+03  0.12508970671E+03 0.  0.
          5    1    3    3  502    0 -0.62784084346E+01  0.42869599099E+02  0.14219441302E+03  0.14870758028E+03  0.41800000000E+01 0. -1.
         -5    1    3    3    0  502 -0.17532228775E+02 -0.69584429905E+02  0.70879092008E+02  0.10094894757E+03  0.41800000000E+01 0. -1.
        -11    1    1    2    0    0  0.42557593266E+02 -0.79856145255E+01  0.10674541554E+03  0.11519332673E+03  0.00000000000E+00 0.  1.
         11    1    1    2    0    0 -0.18746956056E+02  0.34700445332E+02  0.33850294438E+02  0.51975106553E+02  0.00000000000E+00 0. -1.
</event>
<event>
 7    1  0.2693725E-009  0.7969804E+02  0.7561462E-02  0.1329911E+00
          3   -1    0    0  501    0  0.00000000000E+00  0.00000000000E+00  0.21123310734E+03  0.21123310734E+03  0.00000000000E+00 0. -1.
         -3   -1    0    0    0  501 -0.00000000000E+00 -0.00000000000E+00 -0.80123393705E+02  0.80123393705E+02  0.00000000000E+00 0.  1.
         25    2    1    2    0    0 -0.46537226534E+02  0.40015585104E+02  0.11367925595E+03  0.17982626630E+03  0.12509017672E+03 0.  0.
          5    1    3    3  502    0 -0.21538476315E+02  0.34137313985E+02  0.13822387188E+03  0.14405753478E+03  0.41800000000E+01 0.  1.
         -5    1    3    3    0  502 -0.24998750219E+02  0.58782711190E+01 -0.24544615926E+02  0.35768731524E+02  0.41800000000E+01 0.  1.
        -11    1    1    2    0    0  0.56375478411E+02 -0.51956016889E+01  0.39605496543E+02  0.69092577022E+02  0.00000000000E+00 0. -1.
         11    1    1    2    0    0 -0.98382518774E+01 -0.34819983415E+02 -0.22175038859E+02  0.42437657728E+02  0.00000000000E+00 0.  1.
</event>
<event>
 7    1  0.2693725E-009  0.2976471E+03  0.7561462E-02  0.1086423E+00
         -2   -1    0    0    0  501 -0.00000000000E+00  0.00000000000E+00  0.12641238620E+03  0.12641238620E+03  0.00000000000E+00 0.  1.
          2   -1    0    0  501    0  0.00000000000E+00 -0.00000000000E+00 -0.84338380038E+03  0.84338380038E+03  0.00000000000E+00 0. -1.
         25    2    1    2    0    0  0.20222325791E+03 -0.20330898262E+03 -0.19653667881E+03  0.36946329571E+03  0.12509065636E+03 0.  0.
          5    1    3    3  502    0  0.14035237076E+03 -0.18664687087E+03 -0.19653345648E+03  0.30525188664E+03  0.41800000000E+01 0.  1.
         -5    1    3    3    0  502  0.61870887150E+02 -0.16662111749E+02 -0.32223315184E-02  0.64211409072E+02  0.41800000000E+01 0.  1.
        -11    1    1    2    0    0 -0.14249837698E+03  0.87513566767E+02 -0.32411729563E+03  0.36471418006E+03  0.00000000000E+00 0.  1.
         11    1    1    2    0    0 -0.59724880932E+02  0.11579541585E+03 -0.19631743974E+03  0.23561871080E+03  0.00000000000E+00 0. -1.
</event>
<event>
 7    1  0.2693725E-009  0.2846994E+03  0.7561462E-02  0.1093150E+00
          1   -1    0    0  501    0  0.00000000000E+00  0.00000000000E+00  0.78352966570E+03  0.78352966570E+03  0.00000000000E+00 0. -1.
         -1   -1    0    0    0  501 -0.00000000000E+00 -0.00000000000E+00 -0.22161630476E+03  0.22161630476E+03  0.00000000000E+00 0.  1.
         25    2    1    2    0    0 -0.18944432842E+03 -0.18276245007E+03  0.65069241938E+03  0.71298188093E+03  0.12510504054E+03 0.  0.
          5    1    3    3  502    0 -0.52553647154E+02  0.11307984579E+02  0.11945174464E+03  0.13105704118E+03  0.41800000000E+01 0.  1.
         -5    1    3    3    0  502 -0.13689068127E+03 -0.19407043465E+03  0.53124067474E+03  0.58192483975E+03  0.41800000000E+01 0.  1.
        -11    1    1    2    0    0  0.66618556483E+02  0.12136562407E+02 -0.28396610690E+02  0.73428167032E+02  0.00000000000E+00 0.  1.
         11    1    1    2    0    0  0.12282577194E+03  0.17062588766E+03 -0.60382447755E+02  0.21873592250E+03  0.00000000000E+00 0. -1.
</event>
<event>
 7    1  0.2693725E-009  0.7367131E+02  0.7561462E-02  0.1348036E+00
          1   -1    0    0  501    0  0.00000000000E+00  0.00000000000E+00  0.43405030199E+02  0.43405030199E+02  0.00000000000E+00 0. -1.
         -1   -1    0    0    0  501 -0.00000000000E+00 -0.00000000000E+00 -0.24531348050E+03  0.24531348050E+03  0.00000000000E+00 0.  1.
         25    2    1    2    0    0 -0.18131598838E+02 -0.31856903660E+01 -0.10460524427E+03  0.16409942859E+03  0.12508981506E+03 0.  0.
          5    1    3    3  502    0  0.25787035780E+02 -0.32872968792E+02  0.49904636658E+01  0.42284517487E+02  0.41800000000E+01 0.  1.
         -5    1    3    3    0  502 -0.43918634618E+02  0.29687278426E+02 -0.10959570794E+03  0.12181491110E+03  0.41800000000E+01 0.  1.
        -11    1    1    2    0    0  0.20667197015E+02  0.23735479608E+02 -0.98963116213E+02  0.10384702401E+03  0.00000000000E+00 0.  1.
         11    1    1    2    0    0 -0.25355981773E+01 -0.20549789242E+02  0.16599101877E+01  0.20772058103E+02  0.00000000000E+00 0. -1.
</event>
<event>
 7    1  0.2693725E-009  0.1118317E+03  0.7561462E-02  0.1257215E+00
          2   -1    0    0  501    0  0.00000000000E+00  0.00000000000E+00  0.51979457401E+03  0.51979457401E+03  0.00000000000E+00 0.  1.
         -2   -1    0    0    0  501 -0.00000000000E+00 -0.00000000000E+00 -0.27348868184E+02  0.27348868184E+02  0.00000000000E+00 0. -1.
         25    2    1    2    0    0  0.30883031334E+01 -0.38298515690E+02  0.20373208902E+03  0.24214478490E+03  0.12510403206E+03 0.  0.
          5    1    3    3  502    0  0.71110734265E+01  0.45513010799E+02  0.61479552597E+02  0.76936397789E+02  0.41800000000E+01 0.  1.
         -5    1    3    3    0  502 -0.40227702931E+01 -0.83811526490E+02  0.14225253642E+03  0.16520838711E+03  0.41800000000E+01 0.  1.
        -11    1    1    2    0    0  0.40050150471E+02  0.28511459548E+02  0.10359530385E+03  0.11466867427E+03  0.00000000000E+00 0.  1.
         11    1    1    2    0    0 -0.43138453604E+02  0.97870561422E+01  0.18511831296E+03  0.19032998303E+03  0.00000000000E+00 0. -1.
</event>
<event>
 7    1  0.2693725E-009  0.3501811E+03  0.7561462E-02  0.1062541E+00
         -2   -1    0    0    0  501 -0.00000000000E+00  0.00000000000E+00  0.72751943837E+02  0.72751943837E+02  0.00000000000E+00 0.  1.
          2   -1    0    0  501    0  0.00000000000E+00 -0.00000000000E+00 -0.17932400807E+04  0.17932400807E+04  0.00000000000E+00 0. -1.
         25    2    1    2    0    0  0.29971191721E+03 -0.16082895149E+03 -0.81048432590E+03  0.88782085079E+03  0.12509130915E+03 0.  0.
          5    1    3    3  502    0  0.56165078631E+02 -0.81833954353E+02 -0.31163978699E+03  0.32709041774E+03  0.41800000000E+01 0.  1.
         -5    1    3    3    0  502  0.24354683858E+03 -0.78994997132E+02 -0.49884453891E+03  0.56073043306E+03  0.41800000000E+01 0.  1.
        -11    1    1    2    0    0 -0.90066046364E+02  0.19611143976E+02 -0.13897071701E+03  0.16676135602E+03  0.00000000000E+00 0. -1.
         11    1    1    2    0    0 -0.20964587085E+03  0.14121780751E+03 -0.77103309399E+03  0.81140981776E+03  0.00000000000E+00 0.  1.
</event>
<event>
 7    1  0.2733329E-009  0.1470271E+03  0.7561462E-02  0.1204174E+00
         -1   -1    0    0    0  501 -0.00000000000E+00  0.00000000000E+00  0.13667036709E+03  0.13667036709E+03  0.00000000000E+00 0.  1.
          1   -1    0    0  501    0  0.00000000000E+00 -0.00000000000E+00 -0.20502780422E+03  0.20502780422E+03  0.00000000000E+00 0. -1.
         25    2    1    2    0    0  0.11676604826E+03  0.13421152437E+02 -0.86394858981E+02  0.19216146670E+03  0.12509004864E+03 0.  0.
          5    1    3    3  502    0 -0.87653147792E+01  0.41497298547E+02 -0.16455566157E+02  0.45684949244E+02  0.41800000000E+01 0.  1.
         -5    1    3    3    0  502  0.12553136304E+03 -0.28076146110E+02 -0.69939292824E+02  0.14647651746E+03  0.41800000000E+01 0.  1.
        -11    1    1    2    0    0 -0.58459537939E+02 -0.24499100112E+02  0.51262162273E+02  0.81520137164E+02  0.00000000000E+00 0.  1.
         11    1    1    2    0    0 -0.58306510319E+02  0.11077947676E+02 -0.33224740423E+02  0.68016567441E+02  0.00000000000E+00 0. -1.
</event>
<event>
 7    1  0.2693725E-009  0.1403028E+03  0.7561462E-02  0.1212922E+00
         -2   -1    0    0    0  501 -0.00000000000E+00  0.00000000000E+00  0.47182807136E+02  0.47182807136E+02  0.00000000000E+00 0.  1.
          2   -1    0    0  501    0  0.00000000000E+00 -0.00000000000E+00 -0.49336712751E+03  0.49336712751E+03  0.00000000000E+00 0. -1.
         25    2    1    2    0    0  0.35308124857E+01  0.10536837836E+03 -0.20091646402E+03  0.25909522428E+03  0.12509175806E+03 0.  0.
          5    1    3    3  502    0 -0.16580983298E+02  0.11746832257E+03 -0.20300418159E+03  0.23516357277E+03  0.41800000000E+01 0. -1.
         -5    1    3    3    0  502  0.20111795784E+02 -0.12099944213E+02  0.20877175632E+01  0.23931651515E+02  0.41800000000E+01 0. -1.
        -11    1    1    2    0    0 -0.41941634374E+02 -0.24603751118E+02 -0.85970901246E+02  0.98769636651E+02  0.00000000000E+00 0.  1.
         11    1    1    2    0    0  0.38410821888E+02 -0.80764627242E+02 -0.15929695510E+03  0.18268507371E+03  0.00000000000E+00 0. -1.
</event>
<event>
 7    1  0.2693725E-009  0.1345164E+03  0.7561462E-02  0.1220904E+00
          2   -1    0    0  501    0  0.00000000000E+00  0.00000000000E+00  0.13222477279E+03  0.13222477279E+03  0.00000000000E+00 0. -1.
         -2   -1    0    0    0  501 -0.00000000000E+00 -0.00000000000E+00 -0.21993707973E+03  0.21993707973E+03  0.00000000000E+00 0.  1.
         25    2    1    2    0    0 -0.45504557997E+02  0.68359599324E+02  0.56872790945E+02  0.16008115311E+03  0.12509101332E+03 0.  0.
          5    1    3    3  502    0 -0.50124273665E+02  0.10160900222E+03  0.55482734145E+02  0.12622455518E+03  0.41800000000E+01 0.  1.
         -5    1    3    3    0  502  0.46197156680E+01 -0.33249402895E+02  0.13900568002E+01  0.33856597933E+02  0.41800000000E+01 0.  1.
        -11    1    1    2    0    0  0.63371451608E+02 -0.78810561703E+02 -0.13645089668E+03  0.16984078638E+03  0.00000000000E+00 0.  1.
         11    1    1    2    0    0 -0.17866893611E+02  0.10450962379E+02 -0.81342012155E+01  0.22239913025E+02  0.00000000000E+00 0. -1.
</event>
<event>
 7    1  0.2693725E-009  0.3935194E+03  0.7561462E-02  0.1046047E+00
         -2   -1    0    0    0  501 -0.00000000000E+00  0.00000000000E+00  0.10569889538E+04  0.10569889538E+04  0.00000000000E+00 0.  1.
          2   -1    0    0  501    0  0.00000000000E+00 -0.00000000000E+00 -0.60832408879E+03  0.60832408879E+03  0.00000000000E+00 0. -1.
         25    2    1    2    0    0  0.46985666569E+02  0.38187688395E+03  0.94646726001E+03  0.10293129605E+04  0.12508912439E+03 0.  0.
          5    1    3    3  502    0 -0.32501540249E+02  0.93733915661E+02  0.16439654548E+03  0.19205752688E+03  0.41800000000E+01 0.  1.
         -5    1    3    3    0  502  0.79487206817E+02  0.28814296829E+03  0.78207071453E+03  0.83725543363E+03  0.41800000000E+01 0.  1.
        -11    1    1    2    0    0 -0.59958108471E+02 -0.32303438500E+03 -0.45848348226E+03  0.56405078864E+03  0.00000000000E+00 0. -1.
         11    1    1    2    0    0  0.12972441903E+02 -0.58842498956E+02 -0.39318912721E+02  0.71949293464E+02  0.00000000000E+00 0.  1.
</event>
<event>
 7    1  0.2693725E-009  0.1330947E+03  0.7561462E-02  0.1222935E+00
          2   -1    0    0  501    0  0.00000000000E+00  0.00000000000E+00  0.16503535342E+03  0.16503535342E+03  0.00000000000E+00 0. -1.
         -2   -1    0    0    0  501 -0.00000000000E+00 -0.00000000000E+00 -0.15003106706E+03  0.15003106706E+03  0.00000000000E+00 0.  1.
         25    2    1    2    0    0 -0.89002376509E+02  0.15014570848E+02 -0.53661880356E+02  0.16332300098E+03  0.12509174587E+03 0.  0.
          5    1    3    3  502    0  0.16360633030E+02  0.19748727936E+02  0.21515755138E+02  0.33735481135E+02  0.41800000000E+01 0.  1.
         -5    1    3    3    0  502 -0.10536300954E+03 -0.47341570872E+01 -0.75177635495E+02  0.12958751985E+03  0.41800000000E+01 0.  1.
        -11    1    1    2    0    0  0.96451179868E+02  0.20297998512E+02  0.43443669047E+02  0.10771346815E+03  0.00000000000E+00 0. -1.
         11    1    1    2    0    0 -0.74488033597E+01 -0.35312569361E+02  0.25222497668E+02  0.44029951339E+02  0.00000000000E+00 0.  1.
</event>
<event>
 7    1  0.2693725E-009  0.1664337E+03  0.7561462E-02  0.1181619E+00
          2   -1    0    0  501    0  0.00000000000E+00  0.00000000000E+00  0.43960275153E+03  0.43960275153E+03  0.00000000000E+00 0. -1.
         -2   -1    0    0    0  501 -0.00000000000E+00 -0.00000000000E+00 -0.85835965961E+02  0.85835965961E+02  0.00000000000E+00 0.  1.
         25    2    1    2    0    0 -0.19928072143E+02 -0.13608059442E+03  0.72662145443E+02  0.19961268967E+03  0.12510148784E+03 0.  0.
          5    1    3    3  502    0  0.25820556281E+02  0.33732960096E+01 -0.13233498748E+02  0.29507255747E+02  0.41800000000E+01 0. -1.
         -5    1    3    3    0  502 -0.45748628423E+02 -0.13945389043E+03  0.85895644191E+02  0.17010543392E+03  0.41800000000E+01 0. -1.
        -11    1    1    2    0    0  0.49292050966E+02  0.10940624636E+03  0.24202356820E+03  0.27013855814E+03  0.00000000000E+00 0. -1.
         11    1    1    2    0    0 -0.29363978823E+02  0.26674348059E+02  0.39081071932E+02  0.55687469686E+02  0.00000000000E+00 0.  1.
</event>
<event>
 7    1  0.2693725E-009  0.1055021E+03  0.7561462E-02  0.1269134E+00
          2   -1    0    0  501    0  0.00000000000E+00  0.00000000000E+00  0.12768054274E+03  0.12768054274E+03  0.00000000000E+00 0. -1.
         -2   -1    0    0    0  501 -0.00000000000E+00 -0.00000000000E+00 -0.14264477719E+03  0.14264477719E+03  0.00000000000E+00 0.  1.
         25    2    1    2    0    0 -0.42098256135E+02 -0.55686607195E+02 -0.48249723923E+02  0.15115945914E+03  0.12509150586E+03 0.  0.
          5    1    3    3  502    0  0.33356068987E+02  0.22720875089E+01 -0.44542399490E+02  0.55850581665E+02  0.41800000000E+01 0. -1.
         -5    1    3    3    0  502 -0.75454325122E+02 -0.57958694704E+02 -0.37073244326E+01  0.95308877477E+02  0.41800000000E+01 0. -1.
        -11    1    1    2    0    0  0.50254539399E+02  0.39397289896E+02 -0.16666451994E+02  0.65995725645E+02  0.00000000000E+00 0.  1.
         11    1    1    2    0    0 -0.81562832644E+01  0.16289317299E+02  0.49951941470E+02  0.53170135145E+02  0.00000000000E+00 0. -1.
</event>
<event>
 7    1  0.2693725E-009  0.1169505E+03  0.7561462E-02  0.1248214E+00
          1   -1    0    0  501    0  0.00000000000E+00  0.00000000000E+00  0.13234606243E+03  0.13234606243E+03  0.00000000000E+00 0. -1.
         -1   -1    0    0    0  501 -0.00000000000E+00 -0.00000000000E+00 -0.13178045057E+03  0.13178045057E+03  0.00000000000E+00 0.  1.
         25    2    1    2    0    0  0.21267772827E+02 -0.72905711050E+02  0.84657071125E+01  0.14658244789E+03  0.12508870840E+03 0.  0.
          5    1    3    3  502    0  0.18576756997E+02  0.17662568718E+02  0.42413082082E+02  0.49733330533E+02  0.41800000000E+01 0. -1.
         -5    1    3    3    0  502  0.26910158300E+01 -0.90568279768E+02 -0.33947374969E+02  0.96849117361E+02  0.41800000000E+01 0. -1.
        -11    1    1    2    0    0 -0.55190442948E+02  0.30969836849E+02 -0.24909243458E+01  0.63334986314E+02  0.00000000000E+00 0. -1.
         11    1    1    2    0    0  0.33922670121E+02  0.41935874200E+02 -0.54091709080E+01  0.54209078787E+02  0.00000000000E+00 0.  1.
</event>
<event>
 7    1  0.2693725E-009  0.1296395E+03  0.7561462E-02  0.1227992E+00
          2   -1    0    0  501    0  0.00000000000E+00  0.00000000000E+00  0.21993912551E+02  0.21993912551E+02  0.00000000000E+00 0. -1.
         -2   -1    0    0    0  501 -0.00000000000E+00 -0.00000000000E+00 -0.20493838177E+04  0.20493838177E+04  0.00000000000E+00 0.  1.
         25    2    1    2    0    0 -0.70927279868E+02 -0.61388128479E+02 -0.18208846624E+04  0.18275840438E+04  0.12507318611E+03 0.  0.
          5    1    3    3  502    0 -0.44310221069E+02 -0.91243447015E+02 -0.15888636630E+04  0.15921036318E+04  0.41800000000E+01 0. -1.
         -5    1    3    3    0  502 -0.26617058799E+02  0.29855318536E+02 -0.23202099940E+03  0.23548041198E+03  0.41800000000E+01 0. -1.
        -11    1    1    2    0    0 -0.95253630362E+01  0.29504160659E+02 -0.10946330826E+03  0.11376925723E+03  0.00000000000E+00 0.  1.
         11    1    1    2    0    0  0.80452642904E+02  0.31883967820E+02 -0.97041934494E+02  0.13002442926E+03  0.00000000000E+00 0. -1.
</event>
<event>
 7    1  0.2693725E-009  0.1258442E+03  0.7561462E-02  0.1233756E+00
          2   -1    0    0  501    0  0.00000000000E+00  0.00000000000E+00  0.93899134007E+02  0.93899134007E+02  0.00000000000E+00 0. -1.
         -2   -1    0    0    0  501 -0.00000000000E+00 -0.00000000000E+00 -0.20922211386E+03  0.20922211386E+03  0.00000000000E+00 0.  1.
         25    2    1    2    0    0 -0.80146784183E+02 -0.28205345329E+02 -0.38374111196E+02  0.15601064637E+03  0.12509077044E+03 0.  0.
          5    1    3    3  502    0 -0.42444438117E+02  0.38463542106E+02  0.18701721359E+02  0.60400340895E+02  0.41800000000E+01 0. -1.
         -5    1    3    3    0  502 -0.37702346065E+02 -0.66668887436E+02 -0.57075832554E+02  0.95610305472E+02  0.41800000000E+01 0. -1.
        -11    1    1    2    0    0 -0.86256196140E+01 -0.16153912361E+02  0.43506382804E+01  0.18822280726E+02  0.00000000000E+00 0. -1.
         11    1    1    2    0    0  0.88772403797E+02  0.44359257690E+02 -0.81299506937E+02  0.12828832077E+03  0.00000000000E+00 0.  1.
</event>
<event>
 7    1  0.2693725E-009  0.9292290E+02  0.7561462E-02  0.1295924E+00
          2   -1    0    0  501    0  0.00000000000E+00  0.00000000000E+00  0.58251275330E+03  0.58251275330E+03  0.00000000000E+00 0. -1.
         -2   -1    0    0    0  501 -0.00000000000E+00 -0.00000000000E+00 -0.26040559379E+02  0.26040559379E+02  0.00000000000E+00 0.  1.
         25    2    1    2    0    0 -0.42794533618E+02 -0.44109376690E+02  0.39015164753E+03  0.41429577648E+03  0.12508266513E+03 0.  0.
          5    1    3    3  502    0 -0.24326061749E+02  0.23655294583E+02  0.28937257019E+03  0.29138511804E+03  0.41800000000E+01 0. -1.
         -5    1    3    3    0  502 -0.18468471869E+02 -0.67764671273E+02  0.10077907734E+03  0.12291065843E+03  0.41800000000E+01 0. -1.
        -11    1    1    2    0    0  0.45920481170E+02  0.99381521204E+01  0.14816632674E+03  0.15543718294E+03  0.00000000000E+00 0. -1.
         11    1    1    2    0    0 -0.31259475517E+01  0.34171224570E+02  0.18154219650E+02  0.38820353268E+02  0.00000000000E+00 0.  1.
</event>
<event>
 7    1  0.2693725E-009  0.1650610E+03  0.7561462E-02  0.1183099E+00
         -2   -1    0    0    0  501 -0.00000000000E+00  0.00000000000E+00  0.54833113352E+02  0.54833113352E+02  0.00000000000E+00 0. -1.
          2   -1    0    0  501    0  0.00000000000E+00 -0.00000000000E+00 -0.72959750345E+03  0.72959750345E+03  0.00000000000E+00 0.  1.
         25    2    1    2    0    0 -0.49424570816E+02 -0.13216927522E+03 -0.52862552683E+03  0.56125253023E+03  0.12509176454E+03 0.  0.
          5    1    3    3  502    0  0.26525002582E+02  0.87301946840E+01 -0.70068794821E+02  0.75544030001E+02  0.41800000000E+01 0. -1.
         -5    1    3    3    0  502 -0.75949573398E+02 -0.14089946990E+03 -0.45855673201E+03  0.48570850023E+03  0.41800000000E+01 0. -1.
        -11    1    1    2    0    0  0.40897142886E+02  0.12092702881E+03 -0.15912481086E+03  0.20400153927E+03  0.00000000000E+00 0.  1.
         11    1    1    2    0    0  0.85274279301E+01  0.11242246405E+02  0.12985947599E+02  0.19176547301E+02  0.00000000000E+00 0. -1.
</event>
<event>
 7    1  0.2693725E-009  0.1114860E+03  0.7561462E-02  0.1257843E+00
         -1   -1    0    0    0  501 -0.00000000000E+00  0.00000000000E+00  0.25247936871E+02  0.25247936871E+02  0.00000000000E+00 0.  1.
          1   -1    0    0  501    0  0.00000000000E+00 -0.00000000000E+00 -0.59634233687E+03  0.59634233687E+03  0.00000000000E+00 0. -1.
         25    2    1    2    0    0  0.38805162976E+02  0.25413983144E+02 -0.40410373921E+03  0.42555748385E+03  0.12509048248E+03 0.  0.
          5    1    3    3  502    0  0.79564816360E+02 -0.75084511557E+01 -0.22026894237E+03  0.23435617383E+03  0.41800000000E+01 0.  1.
         -5    1    3    3    0  502 -0.40759653384E+02  0.32922434300E+02 -0.18383479684E+03  0.19120131002E+03  0.41800000000E+01 0.  1.
        -11    1    1    2    0    0  0.17489017887E+02  0.13376550994E+02 -0.88181457126E+01  0.23718295827E+02  0.00000000000E+00 0.  1.
         11    1    1    2    0    0 -0.56294180863E+02 -0.38790534138E+02 -0.15817251508E+03  0.17231449407E+03  0.00000000000E+00 0. -1.
</event>
<event>
 7    1  0.2693725E-009  0.1125825E+03  0.7561462E-02  0.1255861E+00
          2   -1    0    0  501    0  0.00000000000E+00  0.00000000000E+00  0.54044426655E+03  0.54044426655E+03  0.00000000000E+00 0.  1.
         -2   -1    0    0    0  501 -0.00000000000E+00 -0.00000000000E+00 -0.23746849800E+02  0.23746849800E+02  0.00000000000E+00 0. -1.
         25    2    1    2    0    0 -0.67340239168E+01 -0.31067439197E+02  0.28537560503E+03  0.31320516294E+03  0.12509078819E+03 0.  0.
          5    1    3    3  502    0 -0.49294652702E+02  0.26652395031E+02  0.14519265524E+03  0.15568780454E+03  0.41800000000E+01 0.  1.
         -5    1    3    3    0  502  0.42560628786E+02 -0.57719834228E+02  0.14018294978E+03  0.15751735839E+03  0.41800000000E+01 0.  1.
        -11    1    1    2    0    0 -0.36895943659E+02 -0.89123212383E+01  0.81713759571E+02  0.90099270983E+02  0.00000000000E+00 0.  1.
         11    1    1    2    0    0  0.43629967576E+02  0.39979760435E+02  0.14960805215E+03  0.16088668243E+03  0.00000000000E+00 0. -1.
</event>
<event>
 7    1  0.2693725E-009  0.9515525E+02  0.7561462E-02  0.1290827E+00
          2   -1    0    0  501    0  0.00000000000E+00  0.00000000000E+00  0.73790694393E+03  0.73790694393E+03  0.00000000000E+00 0.  1.
         -2   -1    0    0    0  501 -0.00000000000E+00 -0.00000000000E+00 -0.19017747134E+02  0.19017747134E+02  0.00000000000E+00 0. -1.
         25    2    1    2    0    0  0.40193828712E+02  0.18356876176E+02  0.34491917667E+03  0.36955046059E+03  0.12508311524E+03 0.  0.
          5    1    3    3  502    0  0.13044205894E+02 -0.30507479429E+02  0.18231396402E+02  0.38088237335E+02  0.41800000000E+01 0.  1.
         -5    1    3    3    0  502  0.27149622818E+02  0.48864355605E+02  0.32668778027E+03  0.33146222326E+03  0.41800000000E+01 0.  1.
        -11    1    1    2    0    0 -0.59104060629E+02  0.16319222535E+02  0.21515578701E+03  0.22372219311E+03  0.00000000000E+00 0.  1.
         11    1    1    2    0    0  0.18910231917E+02 -0.34676098711E+02  0.15881423311E+03  0.16365203736E+03  0.00000000000E+00 0. -1.
</event>
<event>
 7    1  0.2693725E-009  0.6847072E+02  0.7561462E-02  0.1365372E+00
          2   -1    0    0  501    0  0.00000000000E+00  0.00000000000E+00  0.89338444989E+02  0.89338444989E+02  0.00000000000E+00 0. -1.
         -2   -1    0    0    0  501 -0.00000000000E+00 -0.00000000000E+00 -0.17390168575E+03  0.17390168575E+03  0.00000000000E+00 0.  1.
         25    2    1    2    0    0  0.51571159158E+02 -0.29176902891E+02 -0.70473738294E+02  0.15531926106E+03  0.12508656582E+03 0.  0.
          5    1    3    3  502    0  0.50366957964E+02 -0.44934735290E+01  0.25032907376E+02  0.56578623265E+02  0.41800000000E+01 0. -1.
         -5    1    3    3    0  502  0.12042011945E+01 -0.24683429362E+02 -0.95506645671E+02  0.98740637798E+02  0.41800000000E+01 0. -1.
        -11    1    1    2    0    0 -0.20296559509E+02  0.20118750488E+02  0.37358184075E+02  0.47035607432E+02  0.00000000000E+00 0. -1.
         11    1    1    2    0    0 -0.31274599649E+02  0.90581524031E+01 -0.51447686546E+02  0.60885262249E+02  0.00000000000E+00 0.  1.
</event>
<event>
 7    1  0.2693725E-009  0.1413701E+03  0.7561462E-02  0.1211497E+00
         -1   -1    0    0    0  501 -0.00000000000E+00  0.00000000000E+00  0.24086445727E+02  0.24086445727E+02  0.00000000000E+00 0.  1.
          1   -1    0    0  501    0  0.00000000000E+00 -0.00000000000E+00 -0.88664399442E+03  0.88664399442E+03  0.00000000000E+00 0. -1.
         25    2    1    2    0    0 -0.61656565140E+02 -0.69987194251E+02 -0.55595229119E+03  0.57743401060E+03  0.12508935660E+03 0.  0.
          5    1    3    3  502    0 -0.90612621785E+02 -0.17980385805E+02 -0.27231784936E+03  0.28759072478E+03  0.41800000000E+01 0.  1.
         -5    1    3    3    0  502  0.28956056646E+02 -0.52006808446E+02 -0.28363444183E+03  0.28984328582E+03  0.41800000000E+01 0.  1.
        -11    1    1    2    0    0 -0.20857517952E+02  0.35479553867E+02 -0.90830347587E+02  0.99719540916E+02  0.00000000000E+00 0.  1.
         11    1    1    2    0    0  0.82514083092E+02  0.34507640384E+02 -0.21577490992E+03  0.23357688863E+03  0.00000000000E+00 0. -1.
</event>
<event>
 7    1  0.2693725E-009  0.1288090E+03  0.7561462E-02  0.1229234E+00
          1   -1    0    0  501    0  0.00000000000E+00  0.00000000000E+00  0.46351155391E+03  0.46351155391E+03  0.00000000000E+00 0. -1.
         -1   -1    0    0    0  501 -0.00000000000E+00 -0.00000000000E+00 -0.54798670540E+02  0.54798670540E+02  0.00000000000E+00 0.  1.
         25    2    1    2    0    0  0.10730189714E+03 -0.38892085892E+01  0.14582902819E+03  0.22009832738E+03  0.12509334585E+03 0.  0.
          5    1    3    3  502    0 -0.77745569063E+01 -0.15715458516E+02  0.89620814982E+02  0.91415437698E+02  0.41800000000E+01 0. -1.
         -5    1    3    3    0  502  0.11507645405E+03  0.11826249927E+02  0.56208213211E+02  0.12868288968E+03  0.41800000000E+01 0. -1.
        -11    1    1    2    0    0 -0.15307023529E+02 -0.23325306696E+02  0.13464554631E+02  0.30978526969E+02  0.00000000000E+00 0.  1.
         11    1    1    2    0    0 -0.91994873612E+02  0.27214515285E+02  0.24941930054E+03  0.26723337010E+03  0.00000000000E+00 0. -1.
</event>
<event>
 7    1  0.2693725E-009  0.1339212E+03  0.7561462E-02  0.1221751E+00
          2   -1    0    0  501    0  0.00000000000E+00  0.00000000000E+00  0.10834063310E+04  0.10834063310E+04  0.00000000000E+00 0. -1.
         -2   -1    0    0    0  501 -0.00000000000E+00 -0.00000000000E+00 -0.21376739751E+02  0.21376739751E+02  0.00000000000E+00 0.  1.
         25    2    1    2    0    0  0.93621293142E+02  0.31896370845E+02  0.77165822547E+03  0.78796278092E+03  0.12508637886E+03 0.  0.
          5    1    3    3  502    0  0.37701698696E+02  0.77206870024E+02  0.47018032994E+03  0.47798465867E+03  0.41800000000E+01 0.  1.
         -5    1    3    3    0  502  0.55919594446E+02 -0.45310499178E+02  0.30147789554E+03  0.30997812225E+03  0.41800000000E+01 0.  1.
        -11    1    1    2    0    0 -0.24384016650E+01 -0.17193858859E+02  0.69078781816E+01  0.18689391807E+02  0.00000000000E+00 0.  1.
         11    1    1    2    0    0 -0.91182891477E+02 -0.14702511986E+02  0.28346348763E+03  0.29813089806E+03  0.00000000000E+00 0. -1.
</event>
<event>
 7    1  0.2693725E-009  0.9708869E+02  0.7561462E-02  0.1286540E+00
         -1   -1    0    0    0  501 -0.00000000000E+00  0.00000000000E+00  0.12675780598E+03  0.12675780598E+03  0.00000000000E+00 0.  1.
          1   -1    0    0  501    0  0.00000000000E+00 -0.00000000000E+00 -0.11886614320E+03  0.11886614320E+03  0.00000000000E+00 0. -1.
         25    2    1    2    0    0  0.43530944761E+02 -0.70555676012E+01  0.52551807978E+02  0.14266943285E+03  0.12509256718E+03 0.  0.
          5    1    3    3  502    0  0.81705090240E+02  0.14690098501E+02  0.52918620741E+02  0.98536153701E+02  0.41800000000E+01 0. -1.
         -5    1    3    3    0  502 -0.38174145479E+02 -0.21745666102E+02 -0.36681276263E+00  0.44133279154E+02  0.41800000000E+01 0. -1.
        -11    1    1    2    0    0 -0.40708570920E+02  0.25651492052E+02  0.64000852638E+01  0.48540167719E+02  0.00000000000E+00 0.  1.
         11    1    1    2    0    0 -0.28223738406E+01 -0.18595924451E+02 -0.51060230461E+02  0.54414348613E+02  0.00000000000E+00 0. -1.
</event>
<event>
 7    1  0.2693725E-009  0.1078916E+03  0.7561462E-02  0.1264525E+00
         -2   -1    0    0    0  501 -0.00000000000E+00  0.00000000000E+00  0.57399593595E+02  0.57399593595E+02  0.00000000000E+00 0.  1.
          2   -1    0    0  501    0  0.00000000000E+00 -0.00000000000E+00 -0.49322318233E+03  0.49322318233E+03  0.00000000000E+00 0. -1.
         25    2    1    2    0    0 -0.32820454102E+02 -0.78756492330E+02 -0.75354893054E+02  0.16913138486E+03  0.12508916079E+03 0.  0.
          5    1    3    3  502    0  0.98154190229E+01  0.15293775531E+02 -0.62217841675E+02  0.64952091908E+02  0.41800000000E+01 0. -1.
         -5    1    3    3    0  502 -0.42635873125E+02 -0.94050267861E+02 -0.13137051379E+02  0.10417929296E+03  0.41800000000E+01 0. -1.
        -11    1    1    2    0    0 -0.59824761122E+01  0.34134180442E+02 -0.30189372814E+02  0.45960097104E+02  0.00000000000E+00 0.  1.
         11    1    1    2    0    0  0.38802930214E+02  0.44622311888E+02 -0.33027932286E+03  0.33553129395E+03  0.00000000000E+00 0. -1.
</event>
<event>
 7    1  0.2693725E-009  0.7966320E+02  0.7561462E-02  0.1330010E+00
          2   -1    0    0  501    0  0.00000000000E+00  0.00000000000E+00  0.17230918521E+03  0.17230918521E+03  0.00000000000E+00 0. -1.
         -2   -1    0    0    0  501 -0.00000000000E+00 -0.00000000000E+00 -0.84263191743E+02  0.84263191743E+02  0.00000000000E+00 0.  1.
         25    2    1    2    0    0 -0.17631879151E+02  0.48424327024E+02  0.48866606827E+02  0.14384823087E+03  0.12509424308E+03 0.  0.
          5    1    3    3  502    0 -0.16998795887E+02  0.48776311040E+02 -0.33282506143E+02  0.61589651691E+02  0.41800000000E+01 0. -1.
         -5    1    3    3    0  502 -0.63308326418E+00 -0.35198401625E+00  0.82149112970E+02  0.82258579182E+02  0.41800000000E+01 0. -1.
        -11    1    1    2    0    0  0.54247393436E+02 -0.24502079832E+02  0.10555781720E+02  0.60452924979E+02  0.00000000000E+00 0.  1.
         11    1    1    2    0    0 -0.36615514285E+02 -0.23922247192E+02  0.28623604924E+02  0.52271221106E+02  0.00000000000E+00 0. -1.
</event>
<event>
 7    1  0.2693725E-009  0.1246780E+03  0.7561462E-02  0.1235573E+00
         -2   -1    0    0    0  501 -0.00000000000E+00  0.00000000000E+00  0.43203374744E+02  0.43203374744E+02  0.00000000000E+00 0.  1.
          2   -1    0    0  501    0  0.00000000000E+00 -0.00000000000E+00 -0.42196479891E+03  0.42196479891E+03  0.00000000000E+00 0. -1.
         25    2    1    2    0    0  0.65885594677E+02  0.45171613098E+02 -0.23052466259E+03  0.27417328878E+03  0.12509191022E+03 0.  0.
          5    1    3    3  502    0  0.79777461315E+02 -0.30394199483E+01 -0.71099539903E+02  0.10698737487E+03  0.41800000000E+01 0.  1.
         -5    1    3    3    0  502 -0.13891866638E+02  0.48211033046E+02 -0.15942512269E+03  0.16718591391E+03  0.41800000000E+01 0.  1.
        -11    1    1    2    0    0  0.21267076173E+02 -0.17746970176E+02 -0.47581601203E+02  0.55056809319E+02  0.00000000000E+00 0.  1.
         11    1    1    2    0    0 -0.87152670850E+02 -0.27424642922E+02 -0.10065516038E+03  0.13593807556E+03  0.00000000000E+00 0. -1.
</event>
<event>
 7    1  0.2693725E-009  0.8751166E+02  0.7561462E-02  0.1308992E+00
         -2   -1    0    0    0  501 -0.00000000000E+00  0.00000000000E+00  0.14963337312E+03  0.14963337312E+03  0.00000000000E+00 0.  1.
          2   -1    0    0  501    0  0.00000000000E+00 -0.00000000000E+00 -0.15584100060E+03  0.15584100060E+03  0.00000000000E+00 0. -1.
         25    2    1    2    0    0  0.42303526375E+02  0.30113442117E+02  0.90565263719E+02  0.16292734842E+03  0.12508735400E+03 0.  0.
          5    1    3    3  502    0  0.79982286232E+02  0.28696231299E+02  0.27645942880E+02  0.89456192404E+02  0.41800000000E+01 0. -1.
         -5    1    3    3    0  502 -0.37678759858E+02  0.14172108183E+01  0.62919320839E+02  0.73471156012E+02  0.41800000000E+01 0. -1.
        -11    1    1    2    0    0 -0.13042268531E+02 -0.76486013652E+01  0.17112952663E+02  0.22835389643E+02  0.00000000000E+00 0.  1.
         11    1    1    2    0    0 -0.29261257843E+02 -0.22464840752E+02 -0.11388584386E+03  0.11971163566E+03  0.00000000000E+00 0. -1.
</event>
<event>
 7    1  0.2693725E-009  0.1055127E+03  0.7561462E-02  0.1269113E+00
         -1   -1    0    0    0  501 -0.00000000000E+00  0.00000000000E+00  0.22600364156E+03  0.22600364156E+03  0.00000000000E+00 0.  1.
          1   -1    0    0  501    0  0.00000000000E+00 -0.00000000000E+00 -0.90523976880E+02  0.90523976880E+02  0.00000000000E+00 0. -1.
         25    2    1    2    0    0  0.24266678456E+02  0.85655343818E+02  0.95194821924E+02  0.18065245864E+03  0.12509015583E+03 0.  0.
          5    1    3    3  502    0  0.40120517706E+02  0.97464326866E+01  0.94256486211E+02  0.10298740935E+03  0.41800000000E+01 0. -1.
         -5    1    3    3    0  502 -0.15853839250E+02  0.75908911131E+02  0.93833571327E+00  0.77665049295E+02  0.41800000000E+01 0. -1.
        -11    1    1    2    0    0  0.34771692990E+01 -0.24089775791E+02  0.60642972069E+02  0.65345069174E+02  0.00000000000E+00 0.  1.
         11    1    1    2    0    0 -0.27743847755E+02 -0.61565568027E+02 -0.20358129310E+02  0.70530090627E+02  0.00000000000E+00 0. -1.
</event>
<event>
 7    1  0.2693725E-009  0.1870750E+03  0.7561462E-02  0.1161126E+00
         -1   -1    0    0    0  501 -0.00000000000E+00  0.00000000000E+00  0.25862518977E+03  0.25862518977E+03  0.00000000000E+00 0.  1.
          1   -1    0    0  501    0  0.00000000000E+00 -0.00000000000E+00 -0.15079262802E+03  0.15079262802E+03  0.00000000000E+00 0. -1.
         25    2    1    2    0    0  0.41989161025E+02 -0.15806114979E+03  0.71963266597E+02  0.21810944672E+03  0.12508637932E+03 0.  0.
          5    1    3    3  502    0 -0.43143405669E+02 -0.53728460319E+02  0.97606491316E+01  0.69719750232E+02  0.41800000000E+01 0.  1.
         -5    1    3    3    0  502  0.85132566694E+02 -0.10433268947E+03  0.62202617466E+02  0.14838969649E+03  0.41800000000E+01 0.  1.
        -11    1    1    2    0    0 -0.10762825485E+02  0.16411605487E+01  0.29755617608E+02  0.31684832327E+02  0.00000000000E+00 0.  1.
         11    1    1    2    0    0 -0.31226335540E+02  0.15641998924E+03  0.61136775436E+01  0.15962353874E+03  0.00000000000E+00 0. -1.
</event>
<event>
 7    1  0.2693725E-009  0.2587911E+03  0.7561462E-02  0.1107872E+00
          1   -1    0    0  501    0  0.00000000000E+00  0.00000000000E+00  0.49353587326E+03  0.49353587326E+03  0.00000000000E+00 0. -1.
         -1   -1    0    0    0  501 -0.00000000000E+00 -0.00000000000E+00 -0.14618988861E+03  0.14618988861E+03  0.00000000000E+00 0.  1.
         25    2    1    2    0    0 -0.14703314720E+02  0.24517971741E+03  0.17321350744E+03  0.32554526779E+03  0.12509005128E+03 0.  0.
          5    1    3    3  502    0 -0.58444900205E+02  0.18653271970E+03  0.91767632213E+02  0.21598387116E+03  0.41800000000E+01 0.  1.
         -5    1    3    3    0  502  0.43741585485E+02  0.58646997710E+02  0.81445875227E+02  0.10956139663E+03  0.41800000000E+01 0.  1.
        -11    1    1    2    0    0  0.27579581809E+02 -0.13061768577E+03  0.14113053643E+03  0.19426641882E+03  0.00000000000E+00 0.  1.
         11    1    1    2    0    0 -0.12876267089E+02 -0.11456203164E+03  0.33001940777E+02  0.11991407525E+03  0.00000000000E+00 0. -1.
</event>
<event>
 7    1  0.2693725E-009  0.1080841E+03  0.7561462E-02  0.1264159E+00
          1   -1    0    0  501    0  0.00000000000E+00  0.00000000000E+00  0.40340099532E+03  0.40340099532E+03  0.00000000000E+00 0. -1.
         -1   -1    0    0    0  501 -0.00000000000E+00 -0.00000000000E+00 -0.33221881531E+02  0.33221881531E+02  0.00000000000E+00 0.  1.
         25    2    1    2    0    0  0.45150596614E+01  0.34898975698E+02  0.24704632254E+03  0.27913885161E+03  0.12509312024E+03 0.  0.
          5    1    3    3  502    0 -0.27981791824E+02  0.73442775113E+02  0.13643201876E+03  0.15750552381E+03  0.41800000000E+01 0. -1.
         -5    1    3    3    0  502  0.32496851485E+02 -0.38543799415E+02  0.11061430378E+03  0.12163332780E+03  0.41800000000E+01 0. -1.
        -11    1    1    2    0    0 -0.39419218619E+02 -0.29024979142E+01  0.20658815758E+02  0.44599169938E+02  0.00000000000E+00 0.  1.
         11    1    1    2    0    0  0.34904158958E+02 -0.31996477784E+02  0.10247397549E+03  0.11288485530E+03  0.00000000000E+00 0. -1.
</event>
<event>
 7    1  0.2693725E-009  0.1010663E+03  0.7561462E-02  0.1278069E+00
         -2   -1    0    0    0  501 -0.00000000000E+00  0.00000000000E+00  0.22444570441E+03  0.22444570441E+03  0.00000000000E+00 0. -1.
          2   -1    0    0  501    0  0.00000000000E+00 -0.00000000000E+00 -0.67657970489E+02  0.67657970489E+02  0.00000000000E+00 0.  1.
         25    2    1    2    0    0 -0.43850478953E+02  0.29396495664E+02  0.11461505031E+03  0.17768200321E+03  0.12508903248E+03 0.  0.
          5    1    3    3  502    0  0.34150124236E+02  0.13907139708E+02 -0.12023876518E+01  0.37128932873E+02  0.41800000000E+01 0.  1.
         -5    1    3    3    0  502 -0.78000603189E+02  0.15489355956E+02  0.11581743796E+03  0.14055307034E+03  0.41800000000E+01 0.  1.
        -11    1    1    2    0    0 -0.17419442394E+02  0.30571859625E-01  0.43055357476E+02  0.46445685648E+02  0.00000000000E+00 0. -1.
         11    1    1    2    0    0  0.61269921347E+02 -0.29427067524E+02 -0.88267386306E+00  0.67975986039E+02  0.00000000000E+00 0.  1.
</event>
<event>
 7    1  0.2693725E-009  0.1093108E+03  0.7561462E-02  0.1261851E+00
          2   -1    0    0  501    0  0.00000000000E+00  0.00000000000E+00  0.26255157478E+03  0.26255157478E+03  0.00000000000E+00 0. -1.
         -2   -1    0    0    0  501 -0.00000000000E+00 -0.00000000000E+00 -0.46356603665E+02  0.46356603665E+02  0.00000000000E+00 0.  1.
         25    2    1    2    0    0  0.18789757091E+02 -0.62661369555E+01  0.10875604413E+03  0.16692866617E+03  0.12507990650E+03 0.  0.
          5    1    3    3  502    0 -0.53128100094E+02 -0.10581493715E+02  0.50576929347E+02  0.74229786549E+02  0.41800000000E+01 0.  1.
         -5    1    3    3    0  502  0.71917857185E+02  0.43153567597E+01  0.58179114786E+02  0.92698879623E+02  0.41800000000E+01 0.  1.
        -11    1    1    2    0    0  0.24041813104E+02  0.33596204691E+02  0.39628622193E+02  0.57246322536E+02  0.00000000000E+00 0.  1.
         11    1    1    2    0    0 -0.42831570194E+02 -0.27330067736E+02  0.67810304792E+02  0.84733189742E+02  0.00000000000E+00 0. -1.
</event>
<event>
 7    1  0.2693725E-009  0.1964027E+03  0.7561462E-02  0.1152810E+00
         -2   -1    0    0    0  501 -0.00000000000E+00  0.00000000000E+00  0.51981660509E+03  0.51981660509E+03  0.00000000000E+00 0.  1.
          2   -1    0    0  501    0  0.00000000000E+00 -0.00000000000E+00 -0.13047285501E+03  0.13047285501E+03  0.00000000000E+00 0. -1.
         25    2    1    2    0    0  0.87506107071E+02 -0.12938751523E+03  0.40280929933E+03  0.44977916457E+03  0.12509003709E+03 0.  0.
          5    1    3    3  502    0 -0.25349884186E+02 -0.59411117930E+02  0.10018258146E+03  0.11927413630E+03  0.41800000000E+01 0. -1.
         -5    1    3    3    0  502  0.11285599126E+03 -0.69976397304E+02  0.30262671788E+03  0.33050502827E+03  0.41800000000E+01 0. -1.
        -11    1    1    2    0    0  0.15768184233E+02  0.78541602681E+02  0.15989768198E+02  0.81688993584E+02  0.00000000000E+00 0.  1.
         11    1    1    2    0    0 -0.10327429130E+03  0.50845912553E+02 -0.29455317456E+02  0.11882130194E+03  0.00000000000E+00 0. -1.
</event>
<event>
 7    1  0.2693725E-009  0.2273996E+03  0.7561462E-02  0.1128484E+00
         -2   -1    0    0    0  501 -0.00000000000E+00  0.00000000000E+00  0.16599057705E+03  0.16599057705E+03  0.00000000000E+00 0.  1.
          2   -1    0    0  501    0  0.00000000000E+00 -0.00000000000E+00 -0.43112015371E+03  0.43112015371E+03  0.00000000000E+00 0. -1.
         25    2    1    2    0    0  0.20142540770E+03 -0.42344619781E+02  0.10542267101E+02  0.24108831975E+03  0.12508867588E+03 0.  0.
          5    1    3    3  502    0  0.17485492304E+03 -0.75958521330E+02  0.31393958480E+02  0.19325370398E+03  0.41800000000E+01 0. -1.
         -5    1    3    3    0  502  0.26570484664E+02  0.33613901549E+02 -0.20851691378E+02  0.47834615771E+02  0.41800000000E+01 0. -1.
        -11    1    1    2    0    0 -0.43481692905E+02  0.45702639806E+02 -0.11201106658E+03  0.12855297717E+03  0.00000000000E+00 0. -1.
         11    1    1    2    0    0 -0.15794371480E+03 -0.33580200248E+01 -0.16366077718E+03  0.22746943384E+03  0.00000000000E+00 0.  1.
</event>
<event>
 7    1  0.2693725E-009  0.1071478E+03  0.7561462E-02  0.1265945E+00
         -2   -1    0    0    0  501 -0.00000000000E+00  0.00000000000E+00  0.34003994795E+02  0.34003994795E+02  0.00000000000E+00 0.  1.
          2   -1    0    0  501    0  0.00000000000E+00 -0.00000000000E+00 -0.51077568921E+03  0.51077568921E+03  0.00000000000E+00 0. -1.
         25    2    1    2    0    0  0.37083636603E+02  0.26893625040E+02 -0.14161393455E+03  0.19442203576E+03  0.12508780261E+03 0.  0.
          5    1    3    3  502    0 -0.27735244553E+02  0.41788006312E+02 -0.17023646126E+02  0.53129635697E+02  0.41800000000E+01 0.  1.
         -5    1    3    3    0  502  0.64818881156E+02 -0.14894381271E+02 -0.12459028842E+03  0.14129240007E+03  0.41800000000E+01 0.  1.
        -11    1    1    2    0    0 -0.37344202207E+02 -0.56496742613E+02 -0.17825448265E+03  0.19068595110E+03  0.00000000000E+00 0.  1.
         11    1    1    2    0    0  0.26056560432E+00  0.29603117573E+02 -0.15690327722E+03  0.15967169714E+03  0.00000000000E+00 0. -1.
</event>
<event>
 7    1  0.2693725E-009  0.1218990E+03  0.7561462E-02  0.1239997E+00
          1   -1    0    0  501    0  0.00000000000E+00  0.00000000000E+00  0.49004250695E+02  0.49004250695E+02  0.00000000000E+00 0. -1.
         -1   -1    0    0    0  501 -0.00000000000E+00 -0.00000000000E+00 -0.32079532356E+03  0.32079532356E+03  0.00000000000E+00 0.  1.
         25    2    1    2    0    0 -0.50215060271E+02 -0.33584644216E+02 -0.12036114909E+03  0.18380561408E+03  0.12509283332E+03 0.  0.
          5    1    3    3  502    0  0.19272702678E+02  0.35557265413E+02 -0.31547945083E+02  0.51463593259E+02  0.41800000000E+01 0.  1.
         -5    1    3    3    0  502 -0.69487762949E+02 -0.69141909629E+02 -0.88813204011E+02  0.13234202082E+03  0.41800000000E+01 0.  1.
        -11    1    1    2    0    0  0.38709270216E+02 -0.24498937455E+02 -0.88074874980E+02  0.99276327187E+02  0.00000000000E+00 0.  1.
         11    1    1    2    0    0  0.11505790055E+02  0.58083581671E+02 -0.63355048788E+02  0.86717632990E+02  0.00000000000E+00 0. -1.
</event>
<event>
 7    1  0.2693725E-009  0.1133746E+03  0.7561462E-02  0.1254445E+00
         -1   -1    0    0    0  501 -0.00000000000E+00  0.00000000000E+00  0.71185264437E+02  0.71185264437E+02  0.00000000000E+00 0.  1.
          1   -1    0    0  501    0  0.00000000000E+00 -0.00000000000E+00 -0.23253093492E+03  0.23253093492E+03  0.00000000000E+00 0. -1.
         25    2    1    2    0    0  0.34778264353E+01 -0.71057373049E+02 -0.10010988903E+03  0.17530370595E+03  0.12509258130E+03 0.  0.
          5    1    3    3  502    0 -0.15107086882E+02 -0.91218338855E+02 -0.11185485812E+03  0.14518261295E+03  0.41800000000E+01 0.  1.
         -5    1    3    3    0  502  0.18584913318E+02  0.20160965806E+02  0.11744969083E+02  0.30121093008E+02  0.41800000000E+01 0.  1.
        -11    1    1    2    0    0  0.13016532918E+02 -0.14406602496E+02 -0.30398844071E+02  0.36070348564E+02  0.00000000000E+00 0.  1.
         11    1    1    2    0    0 -0.16494359354E+02  0.85463975545E+02 -0.30836937379E+02  0.92342144839E+02  0.00000000000E+00 0. -1.
</event>
<event>
 7    1  0.2693725E-009  0.1067017E+03  0.7561462E-02  0.1266803E+00
          2   -1    0    0  501    0  0.00000000000E+00  0.00000000000E+00  0.91703843038E+02  0.91703843038E+02  0.00000000000E+00 0. -1.
         -2   -1    0    0    0  501 -0.00000000000E+00 -0.00000000000E+00 -0.21369257399E+03  0.21369257399E+03  0.00000000000E+00 0.  1.
         25    2    1    2    0    0  0.42191734361E+02  0.63261496656E+02 -0.11707040157E+03  0.18744398477E+03  0.12509040370E+03 0.  0.
          5    1    3    3  502    0 -0.35235877228E+02  0.29776420217E+02 -0.42575079688E+01  0.46516674635E+02  0.41800000000E+01 0. -1.
         -5    1    3    3    0  502  0.77427611589E+02  0.33485076439E+02 -0.11281289360E+03  0.14092731014E+03  0.41800000000E+01 0. -1.
        -11    1    1    2    0    0  0.44882599640E+01 -0.14232935370E+02 -0.39290737907E+02  0.42029549272E+02  0.00000000000E+00 0.  1.
         11    1    1    2    0    0 -0.46679994325E+02 -0.49028561286E+02  0.34372408526E+02  0.75922882979E+02  0.00000000000E+00 0. -1.
</event>
<event>
 7    1  0.2693725E-009  0.1103317E+03  0.7561462E-02  0.1259957E+00
         -1   -1    0    0    0  501 -0.00000000000E+00  0.00000000000E+00  0.60402255579E+02  0.60402255579E+02  0.00000000000E+00 0.  1.
          1   -1    0    0  501    0  0.00000000000E+00 -0.00000000000E+00 -0.20788243921E+03  0.20788243921E+03  0.00000000000E+00 0. -1.
         25    2    1    2    0    0  0.26214188102E+02 -0.39722906996E+02 -0.68496666980E+02  0.15034698580E+03  0.12508928713E+03 0.  0.
          5    1    3    3  502    0 -0.28779265404E+02 -0.65902314839E+02 -0.29103572529E+02  0.77690743028E+02  0.41800000000E+01 0. -1.
         -5    1    3    3    0  502  0.54993453506E+02  0.26179407843E+02 -0.39393094451E+02  0.72656242774E+02  0.41800000000E+01 0. -1.
        -11    1    1    2    0    0 -0.46675696834E+02  0.45615082348E+01 -0.42856628316E+02  0.63530454295E+02  0.00000000000E+00 0.  1.
         11    1    1    2    0    0  0.20461508732E+02  0.35161398761E+02 -0.36126888333E+02  0.54407254691E+02  0.00000000000E+00 0. -1.
</event>
<event>
 7    1  0.2693725E-009  0.8950798E+02  0.7561462E-02  0.1304048E+00
         -2   -1    0    0    0  501 -0.00000000000E+00  0.00000000000E+00  0.29399987990E+02  0.29399987990E+02  0.00000000000E+00 0.  1.
          2   -1    0    0  501    0  0.00000000000E+00 -0.00000000000E+00 -0.51429528812E+03  0.51429528812E+03  0.00000000000E+00 0. -1.
         25    2    1    2    0    0  0.29319214018E+02 -0.20413473621E+02 -0.31931358240E+03  0.34479669646E+03  0.12508905536E+03 0.  0.
          5    1    3    3  502    0  0.60049708570E+02  0.24712035766E+02 -0.10440573945E+03  0.12302309962E+03  0.41800000000E+01 0. -1.
         -5    1    3    3    0  502 -0.30730494552E+02 -0.45125509388E+02 -0.21490784295E+03  0.22177359684E+03  0.41800000000E+01 0. -1.
        -11    1    1    2    0    0  0.95271930598E+01 -0.68478538543E+01  0.10980495856E+02  0.16069592380E+02  0.00000000000E+00 0.  1.
         11    1    1    2    0    0 -0.38846407077E+02  0.27261327476E+02 -0.17656221359E+03  0.18282898727E+03  0.00000000000E+00 0. -1.
</event>
<event>
 7    1  0.2693725E-009  0.1398607E+03  0.7561462E-02  0.1213517E+00
         -1   -1    0    0    0  501 -0.00000000000E+00  0.00000000000E+00  0.69931546767E+02  0.69931546767E+02  0.00000000000E+00 0.  1.
          1   -1    0    0  501    0  0.00000000000E+00 -0.00000000000E+00 -0.40613238818E+03  0.40613238818E+03  0.00000000000E+00 0. -1.
         25    2    1    2    0    0 -0.10000295438E+03  0.70804104085E+02 -0.12272299206E+03  0.21382472886E+03  0.12508505046E+03 0.  0.
          5    1    3    3  502    0 -0.91109739437E+02  0.91685648735E+02 -0.13561235879E+03  0.18739110721E+03  0.41800000000E+01 0. -1.
         -5    1    3    3    0  502 -0.88932149480E+01 -0.20881544650E+02  0.12889366723E+02  0.26433621651E+02  0.41800000000E+01 0. -1.
        -11    1    1    2    0    0  0.66805800179E+02 -0.26297505632E+02 -0.18781867080E+03  0.20107318777E+03  0.00000000000E+00 0. -1.
         11    1    1    2    0    0  0.33197154206E+02 -0.44506598453E+02 -0.25659178555E+02  0.61166018321E+02  0.00000000000E+00 0.  1.
</event>
<event>
 7    1  0.2693725E-009  0.1377190E+03  0.7561462E-02  0.1216432E+00
          2   -1    0    0  501    0  0.00000000000E+00  0.00000000000E+00  0.51914388878E+03  0.51914388878E+03  0.00000000000E+00 0. -1.
         -2   -1    0    0    0  501 -0.00000000000E+00 -0.00000000000E+00 -0.46313223814E+02  0.46313223814E+02  0.00000000000E+00 0.  1.
         25    2    1    2    0    0  0.68097319022E+02  0.74000459202E+02  0.17243520238E+03  0.23557334052E+03  0.12509031507E+03 0.  0.
          5    1    3    3  502    0  0.51104540250E+02  0.10938033380E+03  0.12442609715E+03  0.17342161776E+03  0.41800000000E+01 0. -1.
         -5    1    3    3    0  502  0.16992778772E+02 -0.35379874595E+02  0.48009105229E+02  0.62151722756E+02  0.41800000000E+01 0. -1.
        -11    1    1    2    0    0 -0.11632374970E+02 -0.54036275828E+02  0.57681183246E+02  0.79889612300E+02  0.00000000000E+00 0.  1.
         11    1    1    2    0    0 -0.56464944052E+02 -0.19964183374E+02  0.24271427935E+03  0.24999415978E+03  0.00000000000E+00 0. -1.
</event>
<event>
 7    1  0.3207280E-009  0.1093016E+03  0.7561462E-02  0.1261869E+00
          2   -1    0    0  501    0  0.00000000000E+00  0.00000000000E+00  0.81862799548E+03  0.81862799548E+03  0.00000000000E+00 0. -1.
         -2   -1    0    0    0  501 -0.00000000000E+00 -0.00000000000E+00 -0.20989216137E+02  0.20989216137E+02  0.00000000000E+00 0.  1.
         25    2    1    2    0    0  0.52213103733E+02 -0.49457071591E+02  0.49567399763E+03  0.51624891728E+03  0.12509205626E+03 0.  0.
          5    1    3    3  502    0  0.77514963759E+02 -0.29452409895E+02  0.46211769235E+03  0.46951703700E+03  0.41800000000E+01 0. -1.
         -5    1    3    3    0  502 -0.25301860026E+02 -0.20004661696E+02  0.33556305281E+02  0.46731880280E+02  0.41800000000E+01 0. -1.
        -11    1    1    2    0    0 -0.66467264598E+02  0.18536459845E+02  0.12156807134E+03  0.13978660013E+03  0.00000000000E+00 0.  1.
         11    1    1    2    0    0  0.14254160865E+02  0.30920611746E+02  0.18039671037E+03  0.18358169420E+03  0.00000000000E+00 0. -1.
</event>
<event>
 7    1  0.2693725E-009  0.8018807E+02  0.7561462E-02  0.1328519E+00
          3   -1    0    0  501    0  0.00000000000E+00  0.00000000000E+00  0.13176023543E+03  0.13176023543E+03  0.00000000000E+00 0. -1.
         -3   -1    0    0    0  501 -0.00000000000E+00 -0.00000000000E+00 -0.16243719725E+03  0.16243719725E+03  0.00000000000E+00 0.  1.
         25    2    1    2    0    0 -0.35849818516E+02  0.72094154029E+01 -0.10896311740E+03  0.16987708128E+03  0.12509227248E+03 0.  0.
          5    1    3    3  502    0 -0.78149959462E+00 -0.19739379315E+02  0.23018334043E+02  0.30619763870E+02  0.41800000000E+01 0.  1.
         -5    1    3    3    0  502 -0.35068318921E+02  0.26948794718E+02 -0.13198145144E+03  0.13925731741E+03  0.41800000000E+01 0.  1.
        -11    1    1    2    0    0 -0.11680007493E+02 -0.37581466303E+02  0.24355617980E+02  0.46281587178E+02  0.00000000000E+00 0.  1.
         11    1    1    2    0    0  0.47529826009E+02  0.30372050900E+02  0.53930537599E+02  0.78038764226E+02  0.00000000000E+00 0. -1.
</event>
<event>
 7    1  0.2693725E-009  0.9915692E+02  0.7561462E-02  0.1282079E+00
          1   -1    0    0  501    0  0.00000000000E+00  0.00000000000E+00  0.18056001929E+03  0.18056001929E+03  0.00000000000E+00 0. -1.
         -1   -1    0    0    0  501 -0.00000000000E+00 -0.00000000000E+00 -0.70631213984E+02  0.70631213984E+02  0.00000000000E+00 0.  1.
         25    2    1    2    0    0  0.24615960355E+02 -0.78327915884E+01  0.54660150784E+02  0.13893123843E+03  0.12508740464E+03 0.  0.
          5    1    3    3  502    0  0.43867334761E+02  0.36366408551E+02 -0.10170099300E+02  0.58032422401E+02  0.41800000000E+01 0. -1.
         -5    1    3    3    0  502 -0.19251374405E+02 -0.44199200140E+02  0.64830250085E+02  0.80898816033E+02  0.41800000000E+01 0. -1.
        -11    1    1    2    0    0  0.32218739498E+02 -0.91110542954E+01  0.37665781987E+02  0.50396127013E+02  0.00000000000E+00 0. -1.
         11    1    1    2    0    0 -0.56834699853E+02  0.16943845884E+02  0.17602872530E+02  0.61863867823E+02  0.00000000000E+00 0.  1.
</event>
<event>
 7    1  0.2693725E-009  0.1036338E+03  0.7561462E-02  0.1272835E+00
          1   -1    0    0  501    0  0.00000000000E+00  0.00000000000E+00  0.95327698965E+02  0.95327698965E+02  0.00000000000E+00 0. -1.
         -1   -1    0    0    0  501 -0.00000000000E+00 -0.00000000000E+00 -0.15351035690E+03  0.15351035690E+03  0.00000000000E+00 0.  1.
         25    2    1    2    0    0 -0.37453673642E+01  0.48037098472E+02 -0.79053859980E+00  0.13405084107E+03  0.12508961761E+03 0.  0.
          5    1    3    3  502    0  0.60288528103E+02  0.17613715057E+02 -0.27379087849E+01  0.63007286273E+02  0.41800000000E+01 0. -1.
         -5    1    3    3    0  502 -0.64033895467E+02  0.30423383415E+02  0.19473701851E+01  0.71043554794E+02  0.41800000000E+01 0. -1.
        -11    1    1    2    0    0 -0.12626062067E+02  0.79840418883E+01 -0.54325928857E+02  0.56342425528E+02  0.00000000000E+00 0.  1.
         11    1    1    2    0    0  0.16371429431E+02 -0.56021140360E+02 -0.30661904779E+01  0.58444789271E+02  0.00000000000E+00 0. -1.
</event>
<event>
 7    1  0.2693725E-009  0.7459446E+02  0.7561462E-02  0.1345131E+00
         -2   -1    0    0    0  501 -0.00000000000E+00  0.00000000000E+00  0.42216679384E+02  0.42216679384E+02  0.00000000000E+00 0.  1.
          2   -1    0    0  501    0  0.00000000000E+00 -0.00000000000E+00 -0.38882659055E+03  0.38882659055E+03  0.00000000000E+00 0. -1.
         25    2    1    2    0    0 -0.14579237260E+01  0.15414567549E+02 -0.30275692092E+03  0.32794621899E+03  0.12508890818E+03 0.  0.
          5    1    3    3  502    0  0.21759718247E+02  0.50064262241E+02 -0.26787617944E+03  0.27341367121E+03  0.41800000000E+01 0. -1.
         -5    1    3    3    0  502 -0.23217641973E+02 -0.34649694692E+02 -0.34880741474E+02  0.54532547775E+02  0.41800000000E+01 0. -1.
        -11    1    1    2    0    0  0.57965534093E+01 -0.33462189966E+02 -0.65985126040E+02  0.74211556022E+02  0.00000000000E+00 0. -1.
         11    1    1    2    0    0 -0.43386296833E+01  0.18047622417E+02  0.22132135792E+02  0.28885494927E+02  0.00000000000E+00 0.  1.
</event>
<event>
 7    1  0.2693725E-009  0.2353680E+03  0.7561462E-02  0.1122918E+00
         -2   -1    0    0    0  501 -0.00000000000E+00  0.00000000000E+00  0.47627996617E+02  0.47627996617E+02  0.00000000000E+00 0.  1.
          2   -1    0    0  501    0  0.00000000000E+00 -0.00000000000E+00 -0.13405229675E+04  0.13405229675E+04  0.00000000000E+00 0. -1.
         25    2    1    2    0    0 -0.18869170918E+03  0.12492409909E+03 -0.72029556919E+03  0.76529954212E+03  0.12508833088E+03 0.  0.
          5    1    3    3  502    0 -0.16432686609E+02  0.29973164955E+02 -0.29146592858E+03  0.29349324308E+03  0.41800000000E+01 0.  1.
         -5    1    3    3    0  502 -0.17225902257E+03  0.94950934134E+02 -0.42882964061E+03  0.47180629904E+03  0.41800000000E+01 0.  1.
        -11    1    1    2    0    0  0.16467274942E+03 -0.68715682397E+02 -0.36242499325E+03  0.40396885417E+03  0.00000000000E+00 0.  1.
         11    1    1    2    0    0  0.24018959764E+02 -0.56208416692E+02 -0.21017440845E+03  0.21888256784E+03  0.00000000000E+00 0. -1.
</event>
<event>
 7    1  0.2693725E-009  0.6838575E+02  0.7561462E-02  0.1365670E+00
          2   -1    0    0  501    0  0.00000000000E+00  0.00000000000E+00  0.20352191230E+03  0.20352191230E+03  0.00000000000E+00 0. -1.
         -2   -1    0    0    0  501 -0.00000000000E+00 -0.00000000000E+00 -0.11877836614E+03  0.11877836614E+03  0.00000000000E+00 0.  1.
         25    2    1    2    0    0 -0.46713856282E+02 -0.47034420887E+02  0.13696640689E+03  0.19697485577E+03  0.12507947902E+03 0.  0.
          5    1    3    3  502    0 -0.42374745585E+02 -0.47350057185E+02  0.16050470577E+03  0.17267564956E+03  0.41800000000E+01 0.  1.
         -5    1    3    3    0  502 -0.43391106973E+01  0.31563629890E+00 -0.23538298882E+02  0.24299206205E+02  0.41800000000E+01 0.  1.
        -11    1    1    2    0    0  0.33159683452E+02  0.39419136454E+02 -0.79030460649E+02  0.94335818414E+02  0.00000000000E+00 0.  1.
         11    1    1    2    0    0  0.13554172830E+02  0.76152844322E+01  0.26807599921E+02  0.30989604251E+02  0.00000000000E+00 0. -1.
</event>
<event>
 7    1  0.2693725E-009  0.8257304E+02  0.7561462E-02  0.1321904E+00
         -2   -1    0    0    0  501 -0.00000000000E+00  0.00000000000E+00  0.57495826158E+03  0.57495826158E+03  0.00000000000E+00 0.  1.
          2   -1    0    0  501    0  0.00000000000E+00 -0.00000000000E+00 -0.25728522617E+02  0.25728522617E+02  0.00000000000E+00 0. -1.
         25    2    1    2    0    0 -0.13285378612E+02 -0.21252323662E+02  0.42313124011E+03  0.44194495199E+03  0.12508849545E+03 0.  0.
          5    1    3    3  502    0  0.14949191090E+02  0.24522444686E+02  0.34931363187E+03  0.35051720988E+03  0.41800000000E+01 0.  1.
         -5    1    3    3    0  502 -0.28234569702E+02 -0.45774768348E+02  0.73817608232E+02  0.91427742117E+02  0.41800000000E+01 0.  1.
        -11    1    1    2    0    0  0.10879516465E+02 -0.29462702742E+02  0.92934707976E+02  0.98098290902E+02  0.00000000000E+00 0.  1.
         11    1    1    2    0    0  0.24058621468E+01  0.50715026404E+02  0.33163790881E+02  0.60643541300E+02  0.00000000000E+00 0. -1.
</event>
<event>
 7    1  0.2693725E-009  0.1145900E+03  0.7561462E-02  0.1252298E+00
          2   -1    0    0  501    0  0.00000000000E+00  0.00000000000E+00  0.18313879842E+03  0.18313879842E+03  0.00000000000E+00 0. -1.
         -2   -1    0    0    0  501 -0.00000000000E+00 -0.00000000000E+00 -0.20603981130E+03  0.20603981130E+03  0.00000000000E+00 0.  1.
         25    2    1    2    0    0  0.52329918380E+02 -0.24060634643E+02  0.13790171903E+03  0.19488821233E+03  0.12508875528E+03 0.  0.
          5    1    3    3  502    0  0.82447205136E+02  0.71496439689E+00  0.13132527619E+03  0.15511883630E+03  0.41800000000E+01 0.  1.
         -5    1    3    3    0  502 -0.30117286756E+02 -0.24775599040E+02  0.65764428400E+01  0.39769376030E+02  0.41800000000E+01 0.  1.
        -11    1    1    2    0    0 -0.70869834829E+02 -0.70147860019E+01 -0.12175917695E+03  0.14105686046E+03  0.00000000000E+00 0.  1.
         11    1    1    2    0    0  0.18539916449E+02  0.31075420645E+02 -0.39043554959E+02  0.53233536929E+02  0.00000000000E+00 0. -1.
</event>
<event>
 7    1  0.2693725E-009  0.3290566E+03  0.7561462E-02  0.1071555E+00
          1   -1    0    0  501    0  0.00000000000E+00  0.00000000000E+00  0.81960242326E+03  0.81960242326E+03  0.00000000000E+00 0. -1.
         -1   -1    0    0    0  501 -0.00000000000E+00 -0.00000000000E+00 -0.14926692794E+03  0.14926692794E+03  0.00000000000E+00 0.  1.
         25    2    1    2    0    0 -0.30779370857E+03 -0.43650028798E+02  0.50416502924E+03  0.60536980744E+03  0.12509170638E+03 0.  0.
          5    1    3    3  502    0 -0.20201849184E+03 -0.87568579730E+02  0.31994384734E+03  0.38840863154E+03  0.41800000000E+01 0. -1.
         -5    1    3    3    0  502 -0.10577521672E+03  0.43918550932E+02  0.18422118190E+03  0.21696117591E+03  0.41800000000E+01 0. -1.
        -11    1    1    2    0    0  0.77201315068E+02  0.51086233915E+02  0.48791340521E+02  0.10464435605E+03  0.00000000000E+00 0.  1.
         11    1    1    2    0    0  0.23059239350E+03 -0.74362051171E+01  0.11737912556E+03  0.25885518771E+03  0.00000000000E+00 0. -1.
</event>
<event>
 7    1  0.2693725E-009  0.1503180E+03  0.7561462E-02  0.1200083E+00
          4   -1    0    0  501    0  0.00000000000E+00  0.00000000000E+00  0.20583533635E+03  0.20583533635E+03  0.00000000000E+00 0. -1.
         -4   -1    0    0    0  501 -0.00000000000E+00 -0.00000000000E+00 -0.12764008635E+03  0.12764008635E+03  0.00000000000E+00 0.  1.
         25    2    1    2    0    0 -0.10504773746E+03  0.53987621690E+02  0.58293215153E+02  0.18164682413E+03  0.12509108419E+03 0.  0.
          5    1    3    3  502    0  0.23515111989E+02 -0.98741081625E+01  0.20925311718E+02  0.33253564837E+02  0.41800000000E+01 0.  1.
         -5    1    3    3    0  502 -0.12856284945E+03  0.63861729852E+02  0.37367903435E+02  0.14839325930E+03  0.41800000000E+01 0.  1.
        -11    1    1    2    0    0  0.20164283830E+02 -0.40486254729E+02 -0.28232085217E+02  0.53317781274E+02  0.00000000000E+00 0.  1.
         11    1    1    2    0    0  0.84883453628E+02 -0.13501366961E+02  0.48134120056E+02  0.98510817290E+02  0.00000000000E+00 0. -1.
</event>
<event>
 7    1  0.2693725E-009  0.1057306E+03  0.7561462E-02  0.1268687E+00
          1   -1    0    0  501    0  0.00000000000E+00  0.00000000000E+00  0.37640154517E+02  0.37640154517E+02  0.00000000000E+00 0. -1.
         -1   -1    0    0    0  501 -0.00000000000E+00 -0.00000000000E+00 -0.30744527313E+03  0.30744527313E+03  0.00000000000E+00 0.  1.
         25    2    1    2    0    0 -0.93287877116E+01  0.12835154416E+02 -0.16204979634E+03  0.20532620141E+03  0.12508774929E+03 0.  0.
          5    1    3    3  502    0  0.55051033997E+02  0.24429204566E+02 -0.72403278547E+02  0.94271467180E+02  0.41800000000E+01 0.  1.
         -5    1    3    3    0  502 -0.64379821708E+02 -0.11594050150E+02 -0.89646517794E+02  0.11105473423E+03  0.41800000000E+01 0.  1.
        -11    1    1    2    0    0  0.42725552673E+02  0.11465782436E+02 -0.74877321792E+02  0.86968674457E+02  0.00000000000E+00 0.  1.
         11    1    1    2    0    0 -0.33396764962E+02 -0.24300936853E+02 -0.32878000482E+02  0.52790551783E+02  0.00000000000E+00 0. -1.
</event>
<event>
 7    1  0.2693725E-009  0.1403754E+03  0.7561462E-02  0.1212825E+00
          1   -1    0    0  501    0  0.00000000000E+00  0.00000000000E+00  0.49365696071E+03  0.49365696071E+03  0.00000000000E+00 0. -1.
         -1   -1    0    0    0  501 -0.00000000000E+00 -0.00000000000E+00 -0.70456631226E+02  0.70456631226E+02  0.00000000000E+00 0.  1.
         25    2    1    2    0    0  0.11505153447E+03  0.81701811835E+01  0.74756360680E+02  0.18585022786E+03  0.12509271077E+03 0.  0.
          5    1    3    3  502    0  0.58440199433E+01 -0.26690549769E+02 -0.22356859474E+02  0.35550521538E+02  0.41800000000E+01 0. -1.
         -5    1    3    3    0  502  0.10920751453E+03  0.34860730953E+02  0.97113220153E+02  0.15029970632E+03  0.41800000000E+01 0. -1.
        -11    1    1    2    0    0 -0.10395267640E+03 -0.34738887934E+02  0.31800615510E+03  0.33636418351E+03  0.00000000000E+00 0.  1.
         11    1    1    2    0    0 -0.11098858076E+02  0.26568706750E+02  0.30437813698E+02  0.41899180561E+02  0.00000000000E+00 0. -1.
</event>
<event>
 7    1  0.2693725E-009  0.1514836E+03  0.7561462E-02  0.1198662E+00
          2   -1    0    0  501    0  0.00000000000E+00  0.00000000000E+00  0.29601997813E+03  0.29601997813E+03  0.00000000000E+00 0.  1.
         -2   -1    0    0    0  501 -0.00000000000E+00 -0.00000000000E+00 -0.18488547513E+03  0.18488547513E+03  0.00000000000E+00 0. -1.
         25    2    1    2    0    0  0.88303488254E+02  0.64695490277E+02 -0.12502937292E+03  0.20799270722E+03  0.12508241148E+03 0.  0.
          5    1    3    3  502    0  0.41395001156E+02 -0.36013597717E+02 -0.40087432195E+02  0.68080834023E+02  0.41800000000E+01 0.  1.
         -5    1    3    3    0  502  0.46908487098E+02  0.10070908799E+03 -0.84941940726E+02  0.13991187319E+03  0.41800000000E+01 0.  1.
        -11    1    1    2    0    0 -0.28780822648E+02  0.18687219194E+02  0.60935370884E+02  0.69933306359E+02  0.00000000000E+00 0. -1.
         11    1    1    2    0    0 -0.59522665606E+02 -0.83382709471E+02  0.17522850504E+03  0.20297943969E+03  0.00000000000E+00 0.  1.
</event>
<event>
 7    1  0.2693725E-009  0.1175940E+03  0.7561462E-02  0.1247120E+00
          1   -1    0    0  501    0  0.00000000000E+00  0.00000000000E+00  0.37615044707E+03  0.37615044707E+03  0.00000000000E+00 0. -1.
         -1   -1    0    0    0  501 -0.00000000000E+00 -0.00000000000E+00 -0.66455438880E+02  0.66455438880E+02  0.00000000000E+00 0.  1.
         25    2    1    2    0    0  0.58042085301E+02 -0.44790326559E+02  0.28784125760E+03  0.32229592492E+03  0.12508803551E+03 0.  0.
          5    1    3    3  502    0  0.69818205370E+02 -0.71324607947E+02  0.27018719337E+03  0.28806314127E+03  0.41800000000E+01 0.  1.
         -5    1    3    3    0  502 -0.11776120069E+02  0.26534281388E+02  0.17654064229E+02  0.34232783650E+02  0.41800000000E+01 0.  1.
        -11    1    1    2    0    0 -0.77899197374E+01  0.54267976518E+02  0.37973993216E+02  0.66691230950E+02  0.00000000000E+00 0. -1.
         11    1    1    2    0    0 -0.50252165563E+02 -0.94776499585E+01 -0.16120242626E+02  0.53618730075E+02  0.00000000000E+00 0.  1.
</event>
<event>
 7    1  0.2693725E-009  0.1110258E+03  0.7561462E-02  0.1258682E+00
          1   -1    0    0  501    0  0.00000000000E+00  0.00000000000E+00  0.19902842205E+03  0.19902842205E+03  0.00000000000E+00 0. -1.
         -1   -1    0    0    0  501 -0.00000000000E+00 -0.00000000000E+00 -0.19246097420E+03  0.19246097420E+03  0.00000000000E+00 0.  1.
         25    2    1    2    0    0  0.45641143961E+02 -0.39819347926E+02  0.15476281552E+03  0.20800726599E+03  0.12508716618E+03 0.  0.
          5    1    3    3  502    0  0.80445533156E+02 -0.10128237450E+02  0.54679984961E+02  0.97884820855E+02  0.41800000000E+01 0. -1.
         -5    1    3    3    0  502 -0.34804389195E+02 -0.29691110477E+02  0.10008283056E+03  0.11012244513E+03  0.41800000000E+01 0. -1.
        -11    1    1    2    0    0 -0.59204299660E+02  0.72532991577E+01 -0.13161992426E+03  0.14450454633E+03  0.00000000000E+00 0.  1.
         11    1    1    2    0    0  0.13563155699E+02  0.32566048768E+02 -0.16575443409E+02  0.38977583931E+02  0.00000000000E+00 0. -1.
</event>
<event>
 7    1  0.2693725E-009  0.1100520E+03  0.7561462E-02  0.1260474E+00
         -2   -1    0    0    0  501 -0.00000000000E+00  0.00000000000E+00  0.88521470484E+02  0.88521470484E+02  0.00000000000E+00 0.  1.
          2   -1    0    0  501    0  0.00000000000E+00 -0.00000000000E+00 -0.22778305671E+03  0.22778305671E+03  0.00000000000E+00 0. -1.
         25    2    1    2    0    0 -0.81479911970E+02 -0.37849439301E+02 -0.59764901985E+02  0.16519552025E+03  0.12508461253E+03 0.  0.
          5    1    3    3  502    0 -0.22915510553E+02 -0.23289088256E+02 -0.91240947159E+02  0.97004562233E+02  0.41800000000E+01 0.  1.
         -5    1    3    3    0  502 -0.58564401417E+02 -0.14560351045E+02  0.31476045174E+02  0.68190958020E+02  0.41800000000E+01 0.  1.
        -11    1    1    2    0    0 -0.11639284491E+02  0.31219071410E+02 -0.10196531831E+02  0.34843544948E+02  0.00000000000E+00 0.  1.
         11    1    1    2    0    0  0.93119196461E+02  0.66303678905E+01 -0.69300152410E+02  0.11626546199E+03  0.00000000000E+00 0. -1.
</event>
<event>
 7    1  0.2693725E-009  0.1024978E+03  0.7561462E-02  0.1275129E+00
          2   -1    0    0  501    0  0.00000000000E+00  0.00000000000E+00  0.74722126162E+03  0.74722126162E+03  0.00000000000E+00 0. -1.
         -2   -1    0    0    0  501 -0.00000000000E+00 -0.00000000000E+00 -0.18649697030E+02  0.18649697030E+02  0.00000000000E+00 0.  1.
         25    2    1    2    0    0 -0.40021410067E+02 -0.75791192446E+01  0.34404907265E+03  0.36834302119E+03  0.12509060938E+03 0.  0.
          5    1    3    3  502    0 -0.92236306090E+01  0.46156687802E+02  0.25769622947E+03  0.26199300424E+03  0.41800000000E+01 0. -1.
         -5    1    3    3    0  502 -0.30797779458E+02 -0.53735807046E+02  0.86352843180E+02  0.10635001694E+03  0.41800000000E+01 0. -1.
        -11    1    1    2    0    0  0.28101738409E+02  0.46845960961E+02  0.27918735099E+03  0.28448168432E+03  0.00000000000E+00 0. -1.
         11    1    1    2    0    0  0.11919671658E+02 -0.39266841716E+02  0.10533514095E+03  0.11304625315E+03  0.00000000000E+00 0.  1.
</event>
<event>
 7    1  0.2864635E-009  0.1846296E+03  0.7561462E-02  0.1163396E+00
          1   -1    0    0  501    0  0.00000000000E+00  0.00000000000E+00  0.53029688190E+03  0.53029688190E+03  0.00000000000E+00 0. -1.
         -1   -1    0    0    0  501 -0.00000000000E+00 -0.00000000000E+00 -0.79296623665E+02  0.79296623665E+02  0.00000000000E+00 0.  1.
         25    2    1    2    0    0 -0.13042887860E+03 -0.10576792190E+03  0.16962124322E+03  0.26947494304E+03  0.12508730190E+03 0.  0.
          5    1    3    3  502    0  0.19567401867E+02 -0.17855852291E+02  0.39882267431E+00  0.26820628934E+02  0.41800000000E+01 0.  1.
         -5    1    3    3    0  502 -0.14999628047E+03 -0.87912069614E+02  0.16922242054E+03  0.24265431410E+03  0.41800000000E+01 0.  1.
        -11    1    1    2    0    0  0.10989320221E+03  0.95404651282E+02  0.28174847296E+03  0.31711317443E+03  0.00000000000E+00 0. -1.
         11    1    1    2    0    0  0.20535676392E+02  0.10363270622E+02 -0.36945794249E+00  0.23005388108E+02  0.00000000000E+00 0.  1.
</event>
<event>
 7    1  0.2693725E-009  0.4753462E+03  0.7561462E-02  0.1020422E+00
          1   -1    0    0  501    0  0.00000000000E+00  0.00000000000E+00  0.63119926109E+03  0.63119926109E+03  0.00000000000E+00 0. -1.
         -1   -1    0    0    0  501 -0.00000000000E+00 -0.00000000000E+00 -0.37051809131E+03  0.37051809131E+03  0.00000000000E+00 0.  1.
         25    2    1    2    0    0 -0.80170764187E+02  0.45841487927E+03  0.71986811366E+02  0.48723838897E+03  0.12509034219E+03 0.  0.
          5    1    3    3  502    0 -0.96491258661E+02  0.27957795585E+03  0.59327393319E+01  0.29584973583E+03  0.41800000000E+01 0.  1.
         -5    1    3    3    0  502  0.16320494474E+02  0.17883692342E+03  0.66054072034E+02  0.19138865314E+03  0.41800000000E+01 0.  1.
        -11    1    1    2    0    0  0.11285411944E+02 -0.32435365305E+03  0.10005320886E+03  0.33962228633E+03  0.00000000000E+00 0.  1.
         11    1    1    2    0    0  0.68885352243E+02 -0.13406122622E+03  0.88641149551E+02  0.17485667709E+03  0.00000000000E+00 0. -1.
</event>
<event>
 7    1  0.2693725E-009  0.1440249E+03  0.7561462E-02  0.1208014E+00
          1   -1    0    0  501    0  0.00000000000E+00  0.00000000000E+00  0.72721475331E+03  0.72721475331E+03  0.00000000000E+00 0. -1.
         -1   -1    0    0    0  501 -0.00000000000E+00 -0.00000000000E+00 -0.30561492066E+02  0.30561492066E+02  0.00000000000E+00 0.  1.
         25    2    1    2    0    0 -0.58603587740E+02 -0.79222048813E+02  0.30650018018E+03  0.34539868145E+03  0.12508946871E+03 0.  0.
          5    1    3    3  502    0 -0.66880404794E+02 -0.10665377353E+03  0.21235561088E+03  0.24690158733E+03  0.41800000000E+01 0. -1.
         -5    1    3    3    0  502  0.82768170544E+01  0.27431724716E+02  0.94144569298E+02  0.98497094119E+02  0.41800000000E+01 0. -1.
        -11    1    1    2    0    0  0.26828367494E+02 -0.17027673334E+02  0.10763151843E+03  0.11222409154E+03  0.00000000000E+00 0. -1.
         11    1    1    2    0    0  0.31775220246E+02  0.96249722147E+02  0.28252156263E+03  0.30015347239E+03  0.00000000000E+00 0.  1.
</event>
<event>
 7    1  0.2693725E-009  0.2176067E+03  0.7561462E-02  0.1135680E+00
         -2   -1    0    0    0  501 -0.00000000000E+00  0.00000000000E+00  0.35962491351E+03  0.35962491351E+03  0.00000000000E+00 0. -1.
          2   -1    0    0  501    0  0.00000000000E+00 -0.00000000000E+00 -0.14521871295E+03  0.14521871295E+03  0.00000000000E+00 0.  1.
         25    2    1    2    0    0  0.32662072656E+02 -0.18692377331E+03  0.38069498569E+02  0.23044131879E+03  0.12508639681E+03 0.  0.
          5    1    3    3  502    0 -0.27883819366E+02  0.28706255654E+00 -0.58512490220E+01  0.28797557231E+02  0.41800000000E+01 0.  1.
         -5    1    3    3    0  502  0.60545892022E+02 -0.18721083587E+03  0.43920747591E+02  0.20164376156E+03  0.41800000000E+01 0.  1.
        -11    1    1    2    0    0 -0.62755762359E+02  0.14987570187E+03  0.13439470992E+03  0.21086239536E+03  0.00000000000E+00 0.  1.
         11    1    1    2    0    0  0.30093689703E+02  0.37048071447E+02  0.41941992064E+02  0.63539912308E+02  0.00000000000E+00 0. -1.
</event>
<event>
 7    1  0.2693725E-009  0.1722718E+03  0.7561462E-02  0.1175499E+00
          1   -1    0    0  501    0  0.00000000000E+00  0.00000000000E+00  0.12149928159E+04  0.12149928159E+04  0.00000000000E+00 0. -1.
         -1   -1    0    0    0  501 -0.00000000000E+00 -0.00000000000E+00 -0.32982573445E+02  0.32982573445E+02  0.00000000000E+00 0.  1.
         25    2    1    2    0    0 -0.12948269626E+03 -0.87486581452E+02  0.80436267825E+03  0.82889510452E+03  0.12509238815E+03 0.  0.
          5    1    3    3  502    0 -0.80974473547E+02  0.49102171998E+01  0.51274285170E+03  0.51913743841E+03  0.41800000000E+01 0.  1.
         -5    1    3    3    0  502 -0.48508222708E+02 -0.92396798651E+02  0.29161982656E+03  0.30975766611E+03  0.41800000000E+01 0.  1.
        -11    1    1    2    0    0  0.40287130453E+02  0.43944565354E+02  0.53589808918E+02  0.80162617997E+02  0.00000000000E+00 0.  1.
         11    1    1    2    0    0  0.89195565803E+02  0.43542016097E+02  0.32405775525E+03  0.33891766679E+03  0.00000000000E+00 0. -1.
</event>
<event>
 7    1  0.2693725E-009  0.1213786E+03  0.7561462E-02  0.1240840E+00
         -2   -1    0    0    0  501 -0.00000000000E+00  0.00000000000E+00  0.29570545067E+03  0.29570545067E+03  0.00000000000E+00 0.  1.
          2   -1    0    0  501    0  0.00000000000E+00 -0.00000000000E+00 -0.70418168304E+02  0.70418168304E+02  0.00000000000E+00 0. -1.
         25    2    1    2    0    0  0.49012251663E+02 -0.41803203399E+02  0.39342499289E+02  0.14609992688E+03  0.12509055822E+03 0.  0.
          5    1    3    3  502    0  0.87148275913E+02 -0.46826023659E+02  0.14390762250E+02  0.10006030644E+03  0.41800000000E+01 0. -1.
         -5    1    3    3    0  502 -0.38136024250E+02  0.50228202599E+01  0.24951737039E+02  0.46039620440E+02  0.41800000000E+01 0. -1.
        -11    1    1    2    0    0  0.23276048488E+02  0.16192400519E+02  0.10397351918E+03  0.10777040855E+03  0.00000000000E+00 0.  1.
         11    1    1    2    0    0 -0.72288300151E+02  0.25610802879E+02  0.81971263900E+02  0.11225328355E+03  0.00000000000E+00 0. -1.
</event>
<event>
 7    1  0.2693725E-009  0.1515561E+03  0.7561462E-02  0.1198574E+00
         -2   -1    0    0    0  501 -0.00000000000E+00  0.00000000000E+00  0.21088422915E+04  0.21088422915E+04  0.00000000000E+00 0.  1.
          2   -1    0    0  501    0  0.00000000000E+00 -0.00000000000E+00 -0.17648443016E+02  0.17648443016E+02  0.00000000000E+00 0. -1.
         25    2    1    2    0    0 -0.77824113292E+02  0.89154940705E+02  0.16805593588E+04  0.16893587470E+04  0.12509205211E+03 0.  0.
          5    1    3    3  502    0  0.12461331928E+02 -0.23894760477E+02  0.23858868650E+03  0.24014220390E+03  0.41800000000E+01 0. -1.
         -5    1    3    3    0  502 -0.90285445220E+02  0.11304970118E+03  0.14419706723E+04  0.14492165431E+04  0.41800000000E+01 0. -1.
        -11    1    1    2    0    0  0.25479730281E+02 -0.71430598584E+02  0.33489071769E+03  0.34337055766E+03  0.00000000000E+00 0.  1.
         11    1    1    2    0    0  0.52344383012E+02 -0.17724342121E+02  0.75743771987E+02  0.93761429870E+02  0.00000000000E+00 0. -1.
</event>
<event>
 7    1  0.2693725E-009  0.7819224E+02  0.7561462E-02  0.1334261E+00
          3   -1    0    0  501    0  0.00000000000E+00  0.00000000000E+00  0.18509812510E+03  0.18509812510E+03  0.00000000000E+00 0.  1.
         -3   -1    0    0    0  501 -0.00000000000E+00 -0.00000000000E+00 -0.89002307682E+02  0.89002307682E+02  0.00000000000E+00 0. -1.
         25    2    1    2    0    0  0.26520850538E+02 -0.36046117690E+02  0.11029646299E+03  0.17267213943E+03  0.12509068660E+03 0.  0.
          5    1    3    3  502    0 -0.36783901157E+02 -0.26717391881E+02  0.96966207900E+02  0.10717645398E+03  0.41800000000E+01 0.  1.
         -5    1    3    3    0  502  0.63304751695E+02 -0.93287258084E+01  0.13330255094E+02  0.65495685455E+02  0.41800000000E+01 0.  1.
        -11    1    1    2    0    0 -0.45722905670E+01  0.16807557382E+02 -0.51327559945E+02  0.54202566693E+02  0.00000000000E+00 0. -1.
         11    1    1    2    0    0 -0.21948559971E+02  0.19238560308E+02  0.37126914372E+02  0.47225726658E+02  0.00000000000E+00 0.  1.
</event>
<event>
 7    1  0.2693725E-009  0.1415899E+03  0.7561462E-02  0.1211205E+00
          2   -1    0    0  501    0  0.00000000000E+00  0.00000000000E+00  0.95035360788E+02  0.95035360788E+02  0.00000000000E+00 0. -1.
         -2   -1    0    0    0  501 -0.00000000000E+00 -0.00000000000E+00 -0.27504060218E+03  0.27504060218E+03  0.00000000000E+00 0.  1.
         25    2    1    2    0    0  0.38206282718E+02  0.11117018479E+03 -0.73692778073E+02  0.18680467255E+03  0.12508729000E+03 0.  0.
          5    1    3    3  502    0  0.74066804726E+02  0.89187329631E+02 -0.18796395443E+02  0.11752041614E+03  0.41800000000E+01 0.  1.
         -5    1    3    3    0  502 -0.35860522008E+02  0.21982855157E+02 -0.54896382630E+02  0.69284256404E+02  0.41800000000E+01 0.  1.
        -11    1    1    2    0    0  0.36560997805E+01 -0.53584813710E+02 -0.97790824023E+02  0.11156946083E+03  0.00000000000E+00 0.  1.
         11    1    1    2    0    0 -0.41862382498E+02 -0.57585371078E+02 -0.85216392931E+01  0.71701829592E+02  0.00000000000E+00 0. -1.
</event>
<event>
 7    1  0.2693725E-009  0.1245987E+03  0.7561462E-02  0.1235698E+00
         -2   -1    0    0    0  501 -0.00000000000E+00  0.00000000000E+00  0.14423302915E+02  0.14423302915E+02  0.00000000000E+00 0.  1.
          2   -1    0    0  501    0  0.00000000000E+00 -0.00000000000E+00 -0.11545603305E+04  0.11545603305E+04  0.00000000000E+00 0. -1.
         25    2    1    2    0    0 -0.68986095084E+02 -0.89728402178E+01 -0.60072358149E+03  0.61754029139E+03  0.12509035516E+03 0.  0.
          5    1    3    3  502    0 -0.26087054590E+02 -0.65913618087E+02 -0.33018123277E+03  0.33773104438E+03  0.41800000000E+01 0. -1.
         -5    1    3    3    0  502 -0.42899040494E+02  0.56940777869E+02 -0.27054234872E+03  0.27980924701E+03  0.41800000000E+01 0. -1.
        -11    1    1    2    0    0  0.76942630057E+02  0.31302604258E+02 -0.48541175673E+03  0.49246786182E+03  0.00000000000E+00 0. -1.
         11    1    1    2    0    0 -0.79565349732E+01 -0.22329764040E+02 -0.54001689318E+02  0.58975480159E+02  0.00000000000E+00 0.  1.
</event>
<event>
 7    1  0.2693725E-009  0.8974328E+02  0.7561462E-02  0.1303475E+00
         -2   -1    0    0    0  501 -0.00000000000E+00  0.00000000000E+00  0.25206264726E+03  0.25206264726E+03  0.00000000000E+00 0.  1.
          2   -1    0    0  501    0  0.00000000000E+00 -0.00000000000E+00 -0.70746797753E+02  0.70746797753E+02  0.00000000000E+00 0. -1.
         25    2    1    2    0    0  0.66579015516E+01  0.57969540447E+02  0.39565630437E+02  0.14358723977E+03  0.12508821304E+03 0.  0.
          5    1    3    3  502    0 -0.14656191425E+02  0.90384242028E+01  0.76514423863E+02  0.78539331028E+02  0.41800000000E+01 0. -1.
         -5    1    3    3    0  502  0.21314092977E+02  0.48931116245E+02 -0.36948793427E+02  0.65047908745E+02  0.41800000000E+01 0. -1.
        -11    1    1    2    0    0 -0.21163704561E+02 -0.79501280712E+02  0.11919794517E+03  0.14483268332E+03  0.00000000000E+00 0. -1.
         11    1    1    2    0    0  0.14505803010E+02  0.21531740264E+02  0.22552273904E+02  0.34389521922E+02  0.00000000000E+00 0.  1.
</event>
<event>
 7    1  0.2693725E-009  0.8941335E+02  0.7561462E-02  0.1304279E+00
         -2   -1    0    0    0  501 -0.00000000000E+00  0.00000000000E+00  0.58166044373E+02  0.58166044373E+02  0.00000000000E+00 0.  1.
          2   -1    0    0  501    0  0.00000000000E+00 -0.00000000000E+00 -0.35167670428E+03  0.35167670428E+03  0.00000000000E+00 0. -1.
         25    2    1    2    0    0 -0.56034238370E+02  0.66442234266E+02 -0.20754612352E+03  0.25744031746E+03  0.12508284176E+03 0.  0.
          5    1    3    3  502    0 -0.50853567121E+02  0.68050433642E+02 -0.22400725393E+03  0.23961149601E+03  0.41800000000E+01 0. -1.
         -5    1    3    3    0  502 -0.51806712489E+01 -0.16081993758E+01  0.16461130411E+02  0.17828821448E+02  0.41800000000E+01 0. -1.
        -11    1    1    2    0    0  0.22235673008E+02 -0.25531301178E+02 -0.92907095539E+02  0.98883774682E+02  0.00000000000E+00 0. -1.
         11    1    1    2    0    0  0.33798565362E+02 -0.40910933088E+02  0.69425591558E+01  0.53518656507E+02  0.00000000000E+00 0.  1.
</event>
<event>
 7    1  0.2693725E-009  0.1265961E+03  0.7561462E-02  0.1232596E+00
          1   -1    0    0  501    0  0.00000000000E+00  0.00000000000E+00  0.98733403700E+03  0.98733403700E+03  0.00000000000E+00 0. -1.
         -1   -1    0    0    0  501 -0.00000000000E+00 -0.00000000000E+00 -0.29343110818E+02  0.29343110818E+02  0.00000000000E+00 0.  1.
         25    2    1    2    0    0  0.84633943377E+02 -0.23669068066E+02  0.69847522503E+03  0.71500879812E+03  0.12508721859E+03 0.  0.
          5    1    3    3  502    0  0.59437367834E+02  0.84695190665E+01  0.11240425029E+03  0.12750184835E+03  0.41800000000E+01 0.  1.
         -5    1    3    3    0  502  0.25196575543E+02 -0.32138587133E+02  0.58607097473E+03  0.58750694977E+03  0.41800000000E+01 0.  1.
        -11    1    1    2    0    0 -0.35660180309E+02  0.73745000126E+02  0.16288045647E+03  0.18231844834E+03  0.00000000000E+00 0. -1.
         11    1    1    2    0    0 -0.48973763068E+02 -0.50075932059E+02  0.96635244684E+02  0.11934990136E+03  0.00000000000E+00 0.  1.
</event>
<event>
 7    1  0.2693725E-009  0.1693653E+03  0.7561462E-02  0.1178511E+00
         -1   -1    0    0    0  501 -0.00000000000E+00  0.00000000000E+00  0.48897867080E+02  0.48897867080E+02  0.00000000000E+00 0.  1.
          1   -1    0    0  501    0  0.00000000000E+00 -0.00000000000E+00 -0.69557848698E+03  0.69557848698E+03  0.00000000000E+00 0. -1.
         25    2    1    2    0    0 -0.10803609035E+03 -0.87244157431E+02 -0.44800216293E+03  0.48542369303E+03  0.12508750515E+03 0.  0.
          5    1    3    3  502    0  0.26242234603E+02 -0.31923210412E+02 -0.10533075753E+03  0.11322449877E+03  0.41800000000E+01 0. -1.
         -5    1    3    3    0  502 -0.13427832495E+03 -0.55320947019E+02 -0.34267140540E+03  0.37219919426E+03  0.41800000000E+01 0. -1.
        -11    1    1    2    0    0  0.68467105044E+02  0.89012516124E+02 -0.18634733007E+03  0.21756906932E+03  0.00000000000E+00 0. -1.
         11    1    1    2    0    0  0.39568985306E+02 -0.17683586935E+01 -0.12331126904E+02  0.41483591712E+02  0.00000000000E+00 0.  1.
</event>
<event>
 7    1  0.2693725E-009  0.1972031E+03  0.7561462E-02  0.1152120E+00
          3   -1    0    0  501    0  0.00000000000E+00  0.00000000000E+00  0.27973890142E+02  0.27973890142E+02  0.00000000000E+00 0. -1.
         -3   -1    0    0    0  501 -0.00000000000E+00 -0.00000000000E+00 -0.17117169183E+04  0.17117169183E+04  0.00000000000E+00 0.  1.
         25    2    1    2    0    0 -0.12735583119E+03  0.14691257605E+03 -0.93777480135E+03  0.96585307971E+03  0.12509109002E+03 0.  0.
          5    1    3    3  502    0 -0.14387625170E+02  0.44854988308E+02 -0.50216725300E+03  0.50438913165E+03  0.41800000000E+01 0. -1.
         -5    1    3    3    0  502 -0.11296820602E+03  0.10205758774E+03 -0.43560754835E+03  0.46146394807E+03  0.41800000000E+01 0. -1.
        -11    1    1    2    0    0  0.10929046310E+03 -0.11904120102E+03 -0.69073523548E+03  0.70938732608E+03  0.00000000000E+00 0.  1.
         11    1    1    2    0    0  0.18065368095E+02 -0.27871375029E+02 -0.55232991292E+02  0.64450402617E+02  0.00000000000E+00 0. -1.
</event>
<event>
 7    1  0.3277613E-009  0.1209386E+03  0.7561462E-02  0.1241557E+00
          1   -1    0    0  501    0  0.00000000000E+00  0.00000000000E+00  0.10991250283E+04  0.10991250283E+04  0.00000000000E+00 0. -1.
         -1   -1    0    0    0  501 -0.00000000000E+00 -0.00000000000E+00 -0.16835221079E+02  0.16835221079E+02  0.00000000000E+00 0.  1.
         25    2    1    2    0    0 -0.93151994611E+01  0.81148384175E+02  0.57693555987E+03  0.59596530653E+03  0.12509265825E+03 0.  0.
          5    1    3    3  502    0 -0.65680962389E+01 -0.18349058191E+02  0.14184662061E+02  0.24464359025E+02  0.41800000000E+01 0.  1.
         -5    1    3    3    0  502 -0.27471032222E+01  0.99497442366E+02  0.56275089781E+03  0.57150094751E+03  0.41800000000E+01 0.  1.
        -11    1    1    2    0    0  0.50305150641E+02 -0.40345753557E+02  0.25150467578E+03  0.25964011622E+03  0.00000000000E+00 0. -1.
         11    1    1    2    0    0 -0.40989951180E+02 -0.40802630617E+02  0.25384957156E+03  0.26035482662E+03  0.00000000000E+00 0.  1.
</event>
<event>
 7    1  0.2693725E-009  0.1141518E+03  0.7561462E-02  0.1253069E+00
          2   -1    0    0  501    0  0.00000000000E+00  0.00000000000E+00  0.76678931194E+03  0.76678931194E+03  0.00000000000E+00 0. -1.
         -2   -1    0    0    0  501 -0.00000000000E+00 -0.00000000000E+00 -0.26703830189E+02  0.26703830189E+02  0.00000000000E+00 0.  1.
         25    2    1    2    0    0  0.83060639016E+02  0.78310957212E+01  0.51975685419E+03  0.54107015493E+03  0.12509727921E+03 0.  0.
          5    1    3    3  502    0  0.79927200175E+02 -0.18502922042E+02  0.15585048084E+03  0.17617480022E+03  0.41800000000E+01 0.  1.
         -5    1    3    3    0  502  0.31334388413E+01  0.26334017764E+02  0.36390637335E+03  0.36489535472E+03  0.41800000000E+01 0.  1.
        -11    1    1    2    0    0 -0.60438784732E+02  0.35740041314E+02  0.97544853672E+02  0.12018816802E+03  0.00000000000E+00 0.  1.
         11    1    1    2    0    0 -0.22621854284E+02 -0.43571137036E+02  0.12278377389E+03  0.13223481918E+03  0.00000000000E+00 0. -1.
</event>
<event>
 7    1  0.2693725E-009  0.9834142E+02  0.7561462E-02  0.1283823E+00
          1   -1    0    0  501    0  0.00000000000E+00  0.00000000000E+00  0.81451963634E+03  0.81451963634E+03  0.00000000000E+00 0. -1.
         -1   -1    0    0    0  501 -0.00000000000E+00 -0.00000000000E+00 -0.16450047353E+02  0.16450047353E+02  0.00000000000E+00 0.  1.
         25    2    1    2    0    0 -0.18946132982E+02 -0.27750262667E+02  0.54067196746E+03  0.55597061312E+03  0.12509241872E+03 0.  0.
          5    1    3    3  502    0  0.44424895275E+02 -0.15034653163E+02  0.99607809331E+02  0.11017622337E+03  0.41800000000E+01 0. -1.
         -5    1    3    3    0  502 -0.63371028257E+02 -0.12715609503E+02  0.44106415813E+03  0.44579438975E+03  0.41800000000E+01 0. -1.
        -11    1    1    2    0    0 -0.18578534633E+02 -0.17856001023E+02  0.27708821201E+02  0.37838835790E+02  0.00000000000E+00 0.  1.
         11    1    1    2    0    0  0.37524667615E+02  0.45606263690E+02  0.22968880033E+03  0.23716023479E+03  0.00000000000E+00 0. -1.
</event>
<event>
 7    1  0.2693725E-009  0.1153504E+03  0.7561462E-02  0.1250971E+00
         -1   -1    0    0    0  501 -0.00000000000E+00  0.00000000000E+00  0.47536046068E+02  0.47536046068E+02  0.00000000000E+00 0.  1.
          1   -1    0    0  501    0  0.00000000000E+00 -0.00000000000E+00 -0.37069016820E+03  0.37069016820E+03  0.00000000000E+00 0. -1.
         25    2    1    2    0    0  0.47755415430E+02 -0.60585091211E+02 -0.20518670180E+03  0.25238965914E+03  0.12509126455E+03 0.  0.
          5    1    3    3  502    0  0.83333710716E+02 -0.31258179369E+02 -0.17706978875E+03  0.19822402379E+03  0.41800000000E+01 0.  1.
         -5    1    3    3    0  502 -0.35578295286E+02 -0.29326911842E+02 -0.28116913043E+02  0.54165635349E+02  0.41800000000E+01 0.  1.
        -11    1    1    2    0    0 -0.33721014237E+02  0.62956102715E+00 -0.93814456292E+02  0.99692804944E+02  0.00000000000E+00 0. -1.
         11    1    1    2    0    0 -0.14034401193E+02  0.59955530184E+02 -0.24152964047E+02  0.66143750187E+02  0.00000000000E+00 0.  1.
</event>
<event>
 7    1  0.2693725E-009  0.2028714E+03  0.7561462E-02  0.1147339E+00
         -3   -1    0    0    0  501 -0.00000000000E+00  0.00000000000E+00  0.17193015672E+03  0.17193015672E+03  0.00000000000E+00 0.  1.
          3   -1    0    0  501    0  0.00000000000E+00 -0.00000000000E+00 -0.28900369307E+03  0.28900369307E+03  0.00000000000E+00 0. -1.
         25    2    1    2    0    0 -0.18368709179E+03  0.19765288702E+02 -0.12300809488E+03  0.25477564053E+03  0.12509205121E+03 0.  0.
          5    1    3    3  502    0 -0.10668468131E+03  0.65193334938E+02 -0.10535191264E+03  0.16354904476E+03  0.41800000000E+01 0.  1.
         -5    1    3    3    0  502 -0.77002410479E+02 -0.45428046236E+02 -0.17656182241E+02  0.91226595770E+02  0.41800000000E+01 0.  1.
        -11    1    1    2    0    0  0.12839807222E+03  0.91998868097E+01  0.40323272161E+02  0.13489503010E+03  0.00000000000E+00 0.  1.
         11    1    1    2    0    0  0.55289019565E+02 -0.28965175511E+02 -0.34388713633E+02  0.71263179147E+02  0.00000000000E+00 0. -1.
</event>
<event>
 7    1  0.2693725E-009  0.9724996E+02  0.7561462E-02  0.1286188E+00
         -1   -1    0    0    0  501 -0.00000000000E+00  0.00000000000E+00  0.21633421192E+03  0.21633421192E+03  0.00000000000E+00 0.  1.
          1   -1    0    0  501    0  0.00000000000E+00 -0.00000000000E+00 -0.81947082821E+02  0.81947082821E+02  0.00000000000E+00 0. -1.
         25    2    1    2    0    0 -0.38505682304E+02 -0.62635265171E+02  0.47571597123E+02  0.15269641942E+03  0.12508907082E+03 0.  0.
          5    1    3    3  502    0 -0.30493560396E+02 -0.22449987920E+02 -0.40418731247E+02  0.55542825089E+02  0.41800000000E+01 0. -1.
         -5    1    3    3    0  502 -0.80121219085E+01 -0.40185277250E+02  0.87990328370E+02  0.97153594333E+02  0.41800000000E+01 0. -1.
        -11    1    1    2    0    0 -0.14473186385E+02  0.60484691001E+02  0.34604034786E+02  0.71170992638E+02  0.00000000000E+00 0.  1.
         11    1    1    2    0    0  0.52978868690E+02  0.21505741696E+01  0.52211497192E+02  0.74413882683E+02  0.00000000000E+00 0. -1.
</event>
<event>
 7    1  0.2693725E-009  0.9328080E+02  0.7561462E-02  0.1295096E+00
          1   -1    0    0  501    0  0.00000000000E+00  0.00000000000E+00  0.23973480897E+03  0.23973480897E+03  0.00000000000E+00 0. -1.
         -1   -1    0    0    0  501 -0.00000000000E+00 -0.00000000000E+00 -0.66213073703E+02  0.66213073703E+02  0.00000000000E+00 0.  1.
         25    2    1    2    0    0  0.14121086874E+02 -0.87189068440E+01  0.21645601503E+02  0.12803405499E+03  0.12509501486E+03 0.  0.
          5    1    3    3  502    0  0.58044440139E+02 -0.34900903823E+02 -0.87202566820E+01  0.68415973246E+02  0.41800000000E+01 0.  1.
         -5    1    3    3    0  502 -0.43923353265E+02  0.26181996979E+02  0.30365858185E+02  0.59618081747E+02  0.41800000000E+01 0.  1.
        -11    1    1    2    0    0  0.21764687055E+02  0.20227000600E+02  0.13200964666E+03  0.13531215750E+03  0.00000000000E+00 0. -1.
         11    1    1    2    0    0 -0.35885773929E+02 -0.11508093756E+02  0.19866487107E+02  0.42601670183E+02  0.00000000000E+00 0.  1.
</event>
<event>
 7    1  0.2693725E-009  0.1635918E+03  0.7561462E-02  0.1184700E+00
          1   -1    0    0  501    0  0.00000000000E+00  0.00000000000E+00  0.38050694504E+03  0.38050694504E+03  0.00000000000E+00 0.  1.
         -1   -1    0    0    0  501 -0.00000000000E+00 -0.00000000000E+00 -0.77021586328E+02  0.77021586328E+02  0.00000000000E+00 0. -1.
         25    2    1    2    0    0  0.98791321441E+02 -0.85348702769E+02  0.14188191214E+03  0.22983128020E+03  0.12509122315E+03 0.  0.
          5    1    3    3  502    0 -0.18183848564E+02  0.68991642264E+01 -0.50759589789E+01  0.20530186925E+02  0.41800000000E+01 0.  1.
         -5    1    3    3    0  502  0.11697517001E+03 -0.92247866995E+02  0.14695787112E+03  0.20930109328E+03  0.41800000000E+01 0.  1.
        -11    1    1    2    0    0 -0.38456897527E+02  0.89873466717E+02  0.81256769176E+02  0.12711740842E+03  0.00000000000E+00 0.  1.
         11    1    1    2    0    0 -0.60334423914E+02 -0.45247639482E+01  0.80346677388E+02  0.10057984274E+03  0.00000000000E+00 0. -1.
</event>
<event>
 7    1  0.2693725E-009  0.1203156E+03  0.7561462E-02  0.1242577E+00
          1   -1    0    0  501    0  0.00000000000E+00  0.00000000000E+00  0.14752681557E+04  0.14752681557E+04  0.00000000000E+00 0.  1.
         -1   -1    0    0    0  501 -0.00000000000E+00 -0.00000000000E+00 -0.19301646144E+02  0.19301646144E+02  0.00000000000E+00 0. -1.
         25    2    1    2    0    0 -0.11191577558E+02  0.86362484122E+02  0.12250332130E+04  0.12344792824E+04  0.12509594542E+03 0.  0.
          5    1    3    3  502    0 -0.67423683938E+02  0.35600493871E+02  0.58345030611E+03  0.58842593453E+03  0.41800000000E+01 0. -1.
         -5    1    3    3    0  502  0.56232106380E+02  0.50761990250E+02  0.64158290687E+03  0.64605334782E+03  0.41800000000E+01 0. -1.
        -11    1    1    2    0    0 -0.11919350634E+01 -0.49496943241E+02  0.35746181235E+02  0.61066828740E+02  0.00000000000E+00 0. -1.
         11    1    1    2    0    0  0.12383512622E+02 -0.36865540881E+02  0.19518711534E+03  0.19902369076E+03  0.00000000000E+00 0.  1.
</event>
<event>
 7    1  0.2693725E-009  0.3651079E+03  0.7561462E-02  0.1056579E+00
         -1   -1    0    0    0  501 -0.00000000000E+00  0.00000000000E+00  0.63412956082E+03  0.63412956082E+03  0.00000000000E+00 0.  1.
          1   -1    0    0  501    0  0.00000000000E+00 -0.00000000000E+00 -0.24119414381E+03  0.24119414381E+03  0.00000000000E+00 0. -1.
         25    2    1    2    0    0  0.31193251827E+03  0.17387759914E+03  0.68886054313E+02  0.38461430670E+03  0.12509021146E+03 0.  0.
          5    1    3    3  502    0  0.49152354319E+02  0.79971422948E+02 -0.10264833227E+02  0.94521011551E+02  0.41800000000E+01 0.  1.
         -5    1    3    3    0  502  0.26278016395E+03  0.93906176195E+02  0.79150887540E+02  0.29009329515E+03  0.41800000000E+01 0.  1.
        -11    1    1    2    0    0 -0.98991665100E+02 -0.52122316876E+02  0.48896373684E+02  0.12209398443E+03  0.00000000000E+00 0. -1.
         11    1    1    2    0    0 -0.21294085317E+03 -0.12175528227E+03  0.27515298901E+03  0.36861541350E+03  0.00000000000E+00 0.  1.
</event>
<event>
 7    1  0.2693725E-009  0.9050459E+02  0.7561462E-02  0.1301634E+00
         -2   -1    0    0    0  501 -0.00000000000E+00  0.00000000000E+00  0.46669222589E+03  0.46669222589E+03  0.00000000000E+00 0.  1.
          2   -1    0    0  501    0  0.00000000000E+00 -0.00000000000E+00 -0.28236653762E+02  0.28236653762E+02  0.00000000000E+00 0. -1.
         25    2    1    2    0    0  0.25297634847E+02 -0.38057887732E+01  0.19690778511E+03  0.23468102892E+03  0.12509218657E+03 0.  0.
          5    1    3    3  502    0 -0.41942971105E+02 -0.10665577730E+02  0.25556966048E+02  0.50434098455E+02  0.41800000000E+01 0. -1.
         -5    1    3    3    0  502  0.67240605952E+02  0.68597889571E+01  0.17135081906E+03  0.18424693046E+03  0.41800000000E+01 0. -1.
        -11    1    1    2    0    0 -0.14879323809E+02  0.34406299137E+02  0.21549374077E+03  0.21872983337E+03  0.00000000000E+00 0.  1.
         11    1    1    2    0    0 -0.10418311038E+02 -0.30600510364E+02  0.26054046258E+02  0.41518017364E+02  0.00000000000E+00 0. -1.
</event>
<event>
 7    1  0.2693725E-009  0.9555299E+02  0.7561462E-02  0.1289935E+00
          3   -1    0    0  501    0  0.00000000000E+00  0.00000000000E+00  0.30014832949E+03  0.30014832949E+03  0.00000000000E+00 0. -1.
         -3   -1    0    0    0  501 -0.00000000000E+00 -0.00000000000E+00 -0.47419574502E+02  0.47419574502E+02  0.00000000000E+00 0.  1.
         25    2    1    2    0    0 -0.44705231264E+02 -0.13796974650E+01  0.12193248727E+03  0.18031762028E+03  0.12508577642E+03 0.  0.
          5    1    3    3  502    0 -0.34500315623E+02 -0.57807545267E+02  0.95798496979E+02  0.11716146334E+03  0.41800000000E+01 0. -1.
         -5    1    3    3    0  502 -0.10204915642E+02  0.56427847802E+02  0.26133990294E+02  0.63156156940E+02  0.41800000000E+01 0. -1.
        -11    1    1    2    0    0  0.44947425166E+02  0.18813159803E+02  0.13949893410E+03  0.14776386103E+03  0.00000000000E+00 0. -1.
         11    1    1    2    0    0 -0.24219390148E+00 -0.17433462338E+02 -0.87026663841E+01  0.19486422688E+02  0.00000000000E+00 0.  1.
</event>
<event>
 7    1  0.2693725E-009  0.7806753E+02  0.7561462E-02  0.1334627E+00
          1   -1    0    0  501    0  0.00000000000E+00  0.00000000000E+00  0.25126649179E+02  0.25126649179E+02  0.00000000000E+00 0. -1.
         -1   -1    0    0    0  501 -0.00000000000E+00 -0.00000000000E+00 -0.42263073799E+03  0.42263073799E+03  0.00000000000E+00 0.  1.
         25    2    1    2    0    0  0.10191159604E+02 -0.83530750409E+01 -0.22802129579E+03  0.26041005609E+03  0.12508418118E+03 0.  0.
          5    1    3    3  502    0 -0.26072720797E+02 -0.37559794477E+02 -0.20149272675E+03  0.20665748538E+03  0.41800000000E+01 0. -1.
         -5    1    3    3    0  502  0.36263880401E+02  0.29206719436E+02 -0.26528569037E+02  0.53752570702E+02  0.41800000000E+01 0. -1.
        -11    1    1    2    0    0  0.24038414598E+02  0.15367951227E+02 -0.13597535387E+03  0.13893637451E+03  0.00000000000E+00 0.  1.
         11    1    1    2    0    0 -0.34229574202E+02 -0.70148761857E+01 -0.33507439148E+02  0.48410956572E+02  0.00000000000E+00 0. -1.
</event>
<event>
 7    1  0.2693725E-009  0.2330834E+03  0.7561462E-02  0.1124488E+00
          2   -1    0    0  501    0  0.00000000000E+00  0.00000000000E+00  0.11265930344E+04  0.11265930344E+04  0.00000000000E+00 0.  1.
         -2   -1    0    0    0  501 -0.00000000000E+00 -0.00000000000E+00 -0.66685243524E+02  0.66685243524E+02  0.00000000000E+00 0. -1.
         25    2    1    2    0    0  0.12846829141E+03 -0.17760600720E+03  0.80915343073E+03  0.84760068558E+03  0.12509856930E+03 0.  0.
          5    1    3    3  502    0  0.84009913733E+02 -0.44074253646E+02  0.48467729581E+03  0.49389245683E+03  0.41800000000E+01 0.  1.
         -5    1    3    3    0  502  0.44458377673E+02 -0.13353175355E+03  0.32447613493E+03  0.35370822875E+03  0.41800000000E+01 0.  1.
        -11    1    1    2    0    0 -0.11183680401E+03  0.96818463711E+02  0.11728163905E+03  0.18877570952E+03  0.00000000000E+00 0. -1.
         11    1    1    2    0    0 -0.16631487398E+02  0.80787543484E+02  0.13347272105E+03  0.15690188278E+03  0.00000000000E+00 0.  1.
</event>
<event>
 7    1  0.2693725E-009  0.1273420E+03  0.7561462E-02  0.1231454E+00
         -2   -1    0    0    0  501 -0.00000000000E+00  0.00000000000E+00  0.75291048022E+02  0.75291048022E+02  0.00000000000E+00 0.  1.
          2   -1    0    0  501    0  0.00000000000E+00 -0.00000000000E+00 -0.38502388410E+03  0.38502388410E+03  0.00000000000E+00 0. -1.
         25    2    1    2    0    0 -0.74151671989E+02 -0.10075994246E+03 -0.11342122855E+03  0.21014731345E+03  0.12508589769E+03 0.  0.
          5    1    3    3  502    0 -0.46355387347E+02 -0.55197564945E+02 -0.13446586723E+03  0.15262416244E+03  0.41800000000E+01 0.  1.
         -5    1    3    3    0  502 -0.27796284642E+02 -0.45562377514E+02  0.21044638679E+02  0.57523151006E+02  0.41800000000E+01 0.  1.
        -11    1    1    2    0    0  0.60256579313E+02  0.56666707411E+02 -0.18488608471E+03  0.20254588467E+03  0.00000000000E+00 0. -1.
         11    1    1    2    0    0  0.13895092676E+02  0.44093235048E+02 -0.11425522820E+02  0.47621734000E+02  0.00000000000E+00 0.  1.
</event>
<event>
 7    1  0.2693725E-009  0.1055480E+03  0.7561462E-02  0.1269044E+00
         -1   -1    0    0    0  501 -0.00000000000E+00  0.00000000000E+00  0.51262425151E+02  0.51262425151E+02  0.00000000000E+00 0.  1.
          1   -1    0    0  501    0  0.00000000000E+00 -0.00000000000E+00 -0.35860921270E+03  0.35860921270E+03  0.00000000000E+00 0. -1.
         25    2    1    2    0    0  0.27603968938E+02  0.66917324052E+02 -0.11111798764E+03  0.18230392470E+03  0.12509039301E+03 0.  0.
          5    1    3    3  502    0  0.65489648280E+02  0.33141502375E+02 -0.10881830926E+03  0.13132459801E+03  0.41800000000E+01 0.  1.
         -5    1    3    3    0  502 -0.37885679342E+02  0.33775821676E+02 -0.22996783807E+01  0.50979326690E+02  0.41800000000E+01 0.  1.
        -11    1    1    2    0    0 -0.38320911568E+02 -0.31368376496E+02 -0.18062860553E+03  0.18729431503E+03  0.00000000000E+00 0. -1.
         11    1    1    2    0    0  0.10716942630E+02 -0.35548947555E+02 -0.15600194374E+02  0.40273398120E+02  0.00000000000E+00 0.  1.
</event>
<event>
 7    1  0.2693725E-009  0.6863065E+02  0.7561462E-02  0.1364812E+00
         -1   -1    0    0    0  501 -0.00000000000E+00  0.00000000000E+00  0.89037310639E+01  0.89037310639E+01  0.00000000000E+00 0.  1.
          1   -1    0    0  501    0  0.00000000000E+00 -0.00000000000E+00 -0.18055402459E+04  0.18055402459E+04  0.00000000000E+00 0. -1.
         25    2    1    2    0    0  0.36784369568E+02 -0.83941595692E+00 -0.13955317117E+04  0.14016099850E+04  0.12509195561E+03 0.  0.
          5    1    3    3  502    0  0.22972480420E+02  0.55488094438E+01 -0.45118427260E+02  0.51104491205E+02  0.41800000000E+01 0.  1.
         -5    1    3    3    0  502  0.13811889147E+02 -0.63882254007E+01 -0.13504132844E+04  0.13505054938E+04  0.41800000000E+01 0.  1.
        -11    1    1    2    0    0  0.28014186547E+02 -0.13525385783E+02 -0.11520069544E+03  0.11932699166E+03  0.00000000000E+00 0. -1.
         11    1    1    2    0    0 -0.64798556115E+02  0.14364801740E+02 -0.28590410774E+03  0.29350700030E+03  0.00000000000E+00 0.  1.
</event>
<event>
 7    1  0.2693725E-009  0.9387441E+02  0.7561462E-02  0.1293732E+00
         -2   -1    0    0    0  501 -0.00000000000E+00  0.00000000000E+00  0.21564161591E+02  0.21564161591E+02  0.00000000000E+00 0.  1.
          2   -1    0    0  501    0  0.00000000000E+00 -0.00000000000E+00 -0.67001983657E+03  0.67001983657E+03  0.00000000000E+00 0. -1.
         25    2    1    2    0    0  0.35865778469E+02  0.98234416570E+01 -0.25855787289E+03  0.28962326766E+03  0.12508640799E+03 0.  0.
          5    1    3    3  502    0 -0.23294525224E+02  0.18585469916E+02 -0.21090265884E+03  0.21303863148E+03  0.41800000000E+01 0. -1.
         -5    1    3    3    0  502  0.59160303692E+02 -0.87620282587E+01 -0.47655214046E+02  0.76584636174E+02  0.41800000000E+01 0. -1.
        -11    1    1    2    0    0 -0.62875176677E+02 -0.23879747131E+02 -0.26375811119E+03  0.27219822076E+03  0.00000000000E+00 0.  1.
         11    1    1    2    0    0  0.27009398209E+02  0.14056305474E+02 -0.12613969090E+03  0.12976250974E+03  0.00000000000E+00 0. -1.
</event>
<event>
 7    1  0.2693725E-009  0.1084429E+03  0.7561462E-02  0.1263481E+00
          1   -1    0    0  501    0  0.00000000000E+00  0.00000000000E+00  0.57315818444E+03  0.57315818444E+03  0.00000000000E+00 0. -1.
         -1   -1    0    0    0  501 -0.00000000000E+00 -0.00000000000E+00 -0.34147817519E+02  0.34147817519E+02  0.00000000000E+00 0.  1.
         25    2    1    2    0    0 -0.43088288744E+02 -0.70421709542E+02  0.23780638628E+03  0.28109708842E+03  0.12509147838E+03 0.  0.
          5    1    3    3  502    0 -0.26568219754E+02 -0.73147801322E+02  0.24874271769E+03  0.26066622939E+03  0.41800000000E+01 0.  1.
         -5    1    3    3    0  502 -0.16520068990E+02  0.27260917794E+01 -0.10936331418E+02  0.20430859030E+02  0.41800000000E+01 0.  1.
        -11    1    1    2    0    0 -0.25603786505E+01 -0.20126614830E+02  0.85264913239E+02  0.87645545198E+02  0.00000000000E+00 0.  1.
         11    1    1    2    0    0  0.45648667394E+02  0.90548324373E+02  0.21593906741E+03  0.23856336834E+03  0.00000000000E+00 0. -1.
</event>
<event>
 7    1  0.2999781E-009  0.1865786E+03  0.7561462E-02  0.1161584E+00
         -2   -1    0    0    0  501 -0.00000000000E+00  0.00000000000E+00  0.93197267837E+02  0.93197267837E+02  0.00000000000E+00 0.  1.
          2   -1    0    0  501    0  0.00000000000E+00 -0.00000000000E+00 -0.46532092727E+03  0.46532092727E+03  0.00000000000E+00 0. -1.
         25    2    1    2    0    0  0.76438724230E+02  0.14696761216E+03 -0.10887706972E+03  0.23439887819E+03  0.12508501189E+03 0.  0.
          5    1    3    3  502    0  0.36803978580E+02  0.16081681128E+03 -0.81048524748E+02  0.18385569176E+03  0.41800000000E+01 0. -1.
         -5    1    3    3    0  502  0.39634745650E+02 -0.13849199116E+02 -0.27828544976E+02  0.50543186429E+02  0.41800000000E+01 0. -1.
        -11    1    1    2    0    0 -0.51238537765E+02 -0.88355872056E+02 -0.78955601454E+02  0.12909738526E+03  0.00000000000E+00 0.  1.
         11    1    1    2    0    0 -0.25200186465E+02 -0.58611740108E+02 -0.18429098826E+03  0.19502193166E+03  0.00000000000E+00 0. -1.
</event>
<event>
 7    1  0.2693725E-009  0.1654421E+03  0.7561462E-02  0.1182686E+00
          2   -1    0    0  501    0  0.00000000000E+00  0.00000000000E+00  0.42227444687E+02  0.42227444687E+02  0.00000000000E+00 0. -1.
         -2   -1    0    0    0  501 -0.00000000000E+00 -0.00000000000E+00 -0.79576772290E+03  0.79576772290E+03  0.00000000000E+00 0.  1.
         25    2    1    2    0    0 -0.60670078592E+02  0.13258421790E+03 -0.44544001027E+03  0.48510120051E+03  0.12508772408E+03 0.  0.
          5    1    3    3  502    0 -0.85788898829E+02  0.52797695546E+02 -0.30874401980E+03  0.32478866048E+03  0.41800000000E+01 0.  1.
         -5    1    3    3    0  502  0.25118820236E+02  0.79786522353E+02 -0.13669599047E+03  0.16031254003E+03  0.41800000000E+01 0.  1.
        -11    1    1    2    0    0  0.31755117710E+02 -0.83634208696E+02 -0.27005336438E+03  0.28448530363E+03  0.00000000000E+00 0.  1.
         11    1    1    2    0    0  0.28914960882E+02 -0.48950009203E+02 -0.38046903551E+02  0.68408663440E+02  0.00000000000E+00 0. -1.
</event>
<event>
 7    1  0.2693725E-009  0.2024692E+03  0.7561462E-02  0.1147672E+00
          3   -1    0    0  501    0  0.00000000000E+00  0.00000000000E+00  0.36158505120E+03  0.36158505120E+03  0.00000000000E+00 0. -1.
         -3   -1    0    0    0  501 -0.00000000000E+00 -0.00000000000E+00 -0.13472104750E+03  0.13472104750E+03  0.00000000000E+00 0.  1.
         25    2    1    2    0    0 -0.83376128795E+02 -0.16425366025E+03  0.58963731048E+02  0.23033491680E+03  0.12508640438E+03 0.  0.
          5    1    3    3  502    0  0.28034109741E+02 -0.52275864254E+02 -0.54085125135E+01  0.59710984752E+02  0.41800000000E+01 0. -1.
         -5    1    3    3    0  502 -0.11141023854E+03 -0.11197779599E+03  0.64372243562E+02  0.17062393205E+03  0.41800000000E+01 0. -1.
        -11    1    1    2    0    0  0.70161116466E+02  0.10189387734E+03  0.15922769036E+03  0.20163928655E+03  0.00000000000E+00 0. -1.
         11    1    1    2    0    0  0.13215012329E+02  0.62359782911E+02  0.86725822947E+01  0.64331895349E+02  0.00000000000E+00 0.  1.
</event>
<event>
 7    1  0.2693725E-009  0.1037462E+03  0.7561462E-02  0.1272610E+00
          2   -1    0    0  501    0  0.00000000000E+00  0.00000000000E+00  0.25799774512E+03  0.25799774512E+03  0.00000000000E+00 0. -1.
         -2   -1    0    0    0  501 -0.00000000000E+00 -0.00000000000E+00 -0.65424755927E+02  0.65424755927E+02  0.00000000000E+00 0.  1.
         25    2    1    2    0    0 -0.55070809154E+02  0.15241651343E+01  0.68752236255E+02  0.15299968093E+03  0.12508763038E+03 0.  0.
          5    1    3    3  502    0  0.14891106309E+02  0.11983539625E+02 -0.27330349180E+02  0.33612061159E+02  0.41800000000E+01 0.  1.
         -5    1    3    3    0  502 -0.69961915462E+02 -0.10459374491E+02  0.96082585435E+02  0.11938761977E+03  0.41800000000E+01 0.  1.
        -11    1    1    2    0    0 -0.20099068397E+02 -0.30479405242E+02  0.36669796451E+02  0.51745924150E+02  0.00000000000E+00 0.  1.
         11    1    1    2    0    0  0.75169877550E+02  0.28955240108E+02  0.87150956490E+02  0.11867689597E+03  0.00000000000E+00 0. -1.
</event>
<event>
 7    1  0.2693725E-009  0.1096694E+03  0.7561462E-02  0.1261183E+00
         -1   -1    0    0    0  501 -0.00000000000E+00  0.00000000000E+00  0.36867931405E+03  0.36867931405E+03  0.00000000000E+00 0.  1.
          1   -1    0    0  501    0  0.00000000000E+00 -0.00000000000E+00 -0.50157365025E+02  0.50157365025E+02  0.00000000000E+00 0. -1.
         25    2    1    2    0    0  0.68922205352E+02 -0.44521362740E+02  0.17360383846E+03  0.22917150178E+03  0.12509541306E+03 0.  0.
          5    1    3    3  502    0  0.76949448413E+02 -0.36551951102E+02  0.19032092924E+03  0.20855884361E+03  0.41800000000E+01 0.  1.
         -5    1    3    3    0  502 -0.80272430611E+01 -0.79694116387E+01 -0.16717090777E+02  0.20612658176E+02  0.41800000000E+01 0.  1.
        -11    1    1    2    0    0 -0.40651848509E+02 -0.24456451996E+02  0.63650764550E+02  0.79385834122E+02  0.00000000000E+00 0.  1.
         11    1    1    2    0    0 -0.28270356842E+02  0.68977814736E+02  0.81267346010E+02  0.11027934317E+03  0.00000000000E+00 0. -1.
</event>
<event>
 7    1  0.2693725E-009  0.1180568E+03  0.7561462E-02  0.1246338E+00
          3   -1    0    0  501    0  0.00000000000E+00  0.00000000000E+00  0.14060253680E+03  0.14060253680E+03  0.00000000000E+00 0. -1.
         -3   -1    0    0    0  501 -0.00000000000E+00 -0.00000000000E+00 -0.13873360586E+03  0.13873360586E+03  0.00000000000E+00 0.  1.
         25    2    1    2    0    0  0.93931380452E+01 -0.82417724175E+02  0.29759981097E+02  0.15301575545E+03  0.12508897889E+03 0.  0.
          5    1    3    3  502    0  0.43055913141E+02 -0.47511376461E+02 -0.34083452264E+02  0.72734425604E+02  0.41800000000E+01 0. -1.
         -5    1    3    3    0  502 -0.33662775096E+02 -0.34906347714E+02  0.63843433361E+02  0.80281329842E+02  0.41800000000E+01 0. -1.
        -11    1    1    2    0    0 -0.50297805996E+02  0.40059521327E+02 -0.15605587668E+02  0.66167733099E+02  0.00000000000E+00 0. -1.
         11    1    1    2    0    0  0.40904667951E+02  0.42358202848E+02 -0.12285462491E+02  0.60152654117E+02  0.00000000000E+00 0.  1.
</event>
<event>
 7    1  0.2693725E-009  0.1034988E+03  0.7561462E-02  0.1273106E+00
         -4   -1    0    0    0  501 -0.00000000000E+00  0.00000000000E+00  0.38176101326E+02  0.38176101326E+02  0.00000000000E+00 0.  1.
          4   -1    0    0  501    0  0.00000000000E+00 -0.00000000000E+00 -0.36198209353E+03  0.36198209353E+03  0.00000000000E+00 0. -1.
         25    2    1    2    0    0 -0.17333964839E+02 -0.43457273090E+02 -0.18378858632E+03  0.22718812871E+03  0.12508877026E+03 0.  0.
          5    1    3    3  502    0  0.36920163940E+02 -0.34477488443E+02 -0.20220080947E+02  0.54572152130E+02  0.41800000000E+01 0. -1.
         -5    1    3    3    0  502 -0.54254128778E+02 -0.89797846471E+01 -0.16356850537E+03  0.17261597658E+03  0.41800000000E+01 0. -1.
        -11    1    1    2    0    0 -0.12859414762E+02  0.63584452979E+02 -0.82296647989E+02  0.10479067458E+03  0.00000000000E+00 0.  1.
         11    1    1    2    0    0  0.30193379600E+02 -0.20127179889E+02 -0.57720757903E+02  0.68179391570E+02  0.00000000000E+00 0. -1.
</event>
<event>
 7    1  0.2693725E-009  0.1872492E+03  0.7561462E-02  0.1160966E+00
         -2   -1    0    0    0  501 -0.00000000000E+00  0.00000000000E+00  0.11999560693E+03  0.11999560693E+03  0.00000000000E+00 0.  1.
          2   -1    0    0  501    0  0.00000000000E+00 -0.00000000000E+00 -0.31214083224E+03  0.31214083224E+03  0.00000000000E+00 0. -1.
         25    2    1    2    0    0 -0.11737532028E+03  0.10975267481E+03 -0.10557133320E+03  0.22938207180E+03  0.12509281767E+03 0.  0.
          5    1    3    3  502    0 -0.13862276277E+03  0.88433962002E+02 -0.60982100393E+02  0.17542270366E+03  0.41800000000E+01 0.  1.
         -5    1    3    3    0  502  0.21247442484E+02  0.21318712809E+02 -0.44589232807E+02  0.53959368142E+02  0.41800000000E+01 0.  1.
        -11    1    1    2    0    0  0.54388562048E+00 -0.47014644951E+02 -0.55356901271E+01  0.47342544467E+02  0.00000000000E+00 0.  1.
         11    1    1    2    0    0  0.11683143466E+03 -0.62738029860E+02 -0.81038201981E+02  0.15541182290E+03  0.00000000000E+00 0. -1.
</event>
<event>
 7    1  0.2693725E-009  0.6958657E+02  0.7561462E-02  0.1361505E+00
          1   -1    0    0  501    0  0.00000000000E+00  0.00000000000E+00  0.22983148155E+03  0.22983148155E+03  0.00000000000E+00 0. -1.
         -1   -1    0    0    0  501 -0.00000000000E+00 -0.00000000000E+00 -0.68005968745E+02  0.68005968745E+02  0.00000000000E+00 0.  1.
         25    2    1    2    0    0  0.23907371431E+02  0.25853428184E+02  0.26968926728E+02  0.13273901481E+03  0.12510939568E+03 0.  0.
          5    1    3    3  502    0  0.30994809113E+02  0.71245162951E+01 -0.46491557676E+02  0.56483398087E+02  0.41800000000E+01 0.  1.
         -5    1    3    3    0  502 -0.70874376816E+01  0.18728911888E+02  0.73460484404E+02  0.76255616726E+02  0.41800000000E+01 0.  1.
        -11    1    1    2    0    0 -0.52993120770E+02 -0.21679206241E+02  0.52594661416E+02  0.77746107566E+02  0.00000000000E+00 0.  1.
         11    1    1    2    0    0  0.29085749339E+02 -0.41742219424E+01  0.82261924663E+02  0.87352327918E+02  0.00000000000E+00 0. -1.
</event>
<event>
 7    1  0.2693725E-009  0.1564951E+03  0.7561462E-02  0.1192712E+00
          2   -1    0    0  501    0  0.00000000000E+00  0.00000000000E+00  0.15632415195E+03  0.15632415195E+03  0.00000000000E+00 0.  1.
         -2   -1    0    0    0  501 -0.00000000000E+00 -0.00000000000E+00 -0.16006439184E+03  0.16006439184E+03  0.00000000000E+00 0. -1.
         25    2    1    2    0    0 -0.71983790934E+02  0.86059404138E+02  0.19775757715E+02  0.16919367347E+03  0.12509009294E+03 0.  0.
          5    1    3    3  502    0 -0.10666853341E+03  0.77917146985E+02  0.15667796635E+02  0.13308722728E+03  0.41800000000E+01 0. -1.
         -5    1    3    3    0  502  0.34684742474E+02  0.81422571527E+01  0.41079610795E+01  0.36106446188E+02  0.41800000000E+01 0. -1.
        -11    1    1    2    0    0  0.90960131678E+02 -0.87119469562E+02 -0.23836235640E+02  0.12818624599E+03  0.00000000000E+00 0.  1.
         11    1    1    2    0    0 -0.18976340744E+02  0.10600654238E+01  0.32023804152E+00  0.19008624336E+02  0.00000000000E+00 0. -1.
</event>
<event>
 7    1  0.2693725E-009  0.1113381E+03  0.7561462E-02  0.1258112E+00
         -2   -1    0    0    0  501 -0.00000000000E+00  0.00000000000E+00  0.30910141479E+02  0.30910141479E+02  0.00000000000E+00 0.  1.
          2   -1    0    0  501    0  0.00000000000E+00 -0.00000000000E+00 -0.51685828681E+03  0.51685828681E+03  0.00000000000E+00 0. -1.
         25    2    1    2    0    0  0.42072947960E+02 -0.12791452689E+02 -0.37451647444E+03  0.39729592759E+03  0.12509080795E+03 0.  0.
          5    1    3    3  502    0 -0.39574005189E+02 -0.63838837442E+01 -0.20575965712E+03  0.20966965626E+03  0.41800000000E+01 0. -1.
         -5    1    3    3    0  502  0.81646953149E+02 -0.64075689453E+01 -0.16875681733E+03  0.18762627133E+03  0.41800000000E+01 0. -1.
        -11    1    1    2    0    0 -0.65730517661E+02 -0.11196586950E+02 -0.82401470267E+02  0.10599937176E+03  0.00000000000E+00 0. -1.
         11    1    1    2    0    0  0.23657569701E+02  0.23988039640E+02 -0.29030200621E+02  0.44473128943E+02  0.00000000000E+00 0.  1.
</event>
<event>
 7    1  0.2693725E-009  0.1104180E+03  0.7561462E-02  0.1259798E+00
         -2   -1    0    0    0  501 -0.00000000000E+00  0.00000000000E+00  0.28864277215E+03  0.28864277215E+03  0.00000000000E+00 0.  1.
          2   -1    0    0  501    0  0.00000000000E+00 -0.00000000000E+00 -0.58141619347E+02  0.58141619347E+02  0.00000000000E+00 0. -1.
         25    2    1    2    0    0  0.27563626838E+02 -0.59074575107E+02  0.15872552897E+03  0.21234210984E+03  0.12508324874E+03 0.  0.
          5    1    3    3  502    0  0.41348681967E+02  0.16338537059E+02  0.11639961916E+03  0.12467158872E+03  0.41800000000E+01 0. -1.
         -5    1    3    3    0  502 -0.13785055129E+02 -0.75413112166E+02  0.42325909808E+02  0.87670521115E+02  0.41800000000E+01 0. -1.
        -11    1    1    2    0    0  0.17291779196E+02  0.50968245324E+02  0.70690045549E+02  0.88847342104E+02  0.00000000000E+00 0.  1.
         11    1    1    2    0    0 -0.44855406034E+02  0.81063297836E+01  0.10855782853E+01  0.45594939557E+02  0.00000000000E+00 0. -1.
</event>
<event>
 7    1  0.2693725E-009  0.1154412E+03  0.7561462E-02  0.1250813E+00
          1   -1    0    0  501    0  0.00000000000E+00  0.00000000000E+00  0.33949124145E+03  0.33949124145E+03  0.00000000000E+00 0. -1.
         -1   -1    0    0    0  501 -0.00000000000E+00 -0.00000000000E+00 -0.13266463433E+03  0.13266463433E+03  0.00000000000E+00 0.  1.
         25    2    1    2    0    0 -0.21132768300E+02  0.34013316137E+02 -0.75549503638E+02  0.15151875900E+03  0.12508679889E+03 0.  0.
          5    1    3    3  502    0  0.14685697399E+01 -0.21482963078E+02  0.25702390893E+02  0.33789934852E+02  0.41800000000E+01 0.  1.
         -5    1    3    3    0  502 -0.22601338040E+02  0.55496279214E+02 -0.10125189453E+03  0.11772882414E+03  0.41800000000E+01 0.  1.
        -11    1    1    2    0    0  0.80739638076E+02 -0.10101268280E+01  0.18435160602E+03  0.20125959395E+03  0.00000000000E+00 0.  1.
         11    1    1    2    0    0 -0.59606869776E+02 -0.33003189309E+02  0.98024504740E+02  0.11937752284E+03  0.00000000000E+00 0. -1.
</event>
<event>
 7    1  0.2693725E-009  0.1090113E+03  0.7561462E-02  0.1262412E+00
          1   -1    0    0  501    0  0.00000000000E+00  0.00000000000E+00  0.82632703086E+03  0.82632703086E+03  0.00000000000E+00 0. -1.
         -1   -1    0    0    0  501 -0.00000000000E+00 -0.00000000000E+00 -0.17417839744E+02  0.17417839744E+02  0.00000000000E+00 0.  1.
         25    2    1    2    0    0 -0.18941299153E+02  0.18437534386E+02  0.59880237649E+03  0.61230222611E+03  0.12510401482E+03 0.  0.
          5    1    3    3  502    0 -0.70442382537E+02 -0.39071829013E+01  0.36879989133E+03  0.37551062246E+03  0.41800000000E+01 0. -1.
         -5    1    3    3    0  502  0.51501083384E+02  0.22344717288E+02  0.23000248516E+03  0.23679160365E+03  0.41800000000E+01 0. -1.
        -11    1    1    2    0    0  0.53947060250E+02 -0.14254001733E+02  0.86739947927E+02  0.10313719233E+03  0.00000000000E+00 0.  1.
         11    1    1    2    0    0 -0.35005761097E+02 -0.41835326533E+01  0.12336686670E+03  0.12830545217E+03  0.00000000000E+00 0. -1.
</event>
<event>
 7    1  0.2693725E-009  0.7178959E+02  0.7561462E-02  0.1354111E+00
          1   -1    0    0  501    0  0.00000000000E+00  0.00000000000E+00  0.23744697769E+03  0.23744697769E+03  0.00000000000E+00 0. -1.
         -1   -1    0    0    0  501 -0.00000000000E+00 -0.00000000000E+00 -0.64986312382E+02  0.64986312382E+02  0.00000000000E+00 0.  1.
         25    2    1    2    0    0 -0.58134294418E+02  0.16520119516E+02  0.91573320128E+02  0.16639564213E+03  0.12509726706E+03 0.  0.
          5    1    3    3  502    0  0.55056799014E+01  0.51717382599E+01 -0.28600126160E+02  0.29874721826E+02  0.41800000000E+01 0.  1.
         -5    1    3    3    0  502 -0.63639974320E+02  0.11348381256E+02  0.12017344629E+03  0.13652092031E+03  0.41800000000E+01 0.  1.
        -11    1    1    2    0    0  0.17861023562E+02  0.11375844784E+02 -0.16616977824E+02  0.26917465691E+02  0.00000000000E+00 0.  1.
         11    1    1    2    0    0  0.40273270857E+02 -0.27895964300E+02  0.97504323005E+02  0.10912018225E+03  0.00000000000E+00 0. -1.
</event>
<event>
 7    1  0.2693725E-009  0.1041663E+03  0.7561462E-02  0.1271771E+00
         -2   -1    0    0    0  501 -0.00000000000E+00  0.00000000000E+00  0.12244634217E+03  0.12244634217E+03  0.00000000000E+00 0. -1.
          2   -1    0    0  501    0  0.00000000000E+00 -0.00000000000E+00 -0.20968830025E+03  0.20968830025E+03  0.00000000000E+00 0.  1.
         25    2    1    2    0    0  0.56939812299E+02  0.46114637887E+01 -0.15256440804E+03  0.20539370058E+03  0.12508903155E+03 0.  0.
          5    1    3    3  502    0  0.12395519695E+02 -0.40835260681E+02 -0.32168673255E+01  0.42999861149E+02  0.41800000000E+01 0. -1.
         -5    1    3    3    0  502  0.44544292604E+02  0.45446724470E+02 -0.14934754071E+03  0.16239383943E+03  0.41800000000E+01 0. -1.
        -11    1    1    2    0    0 -0.78869980520E+02 -0.87786617170E+01  0.67674662220E+02  0.10429476802E+03  0.00000000000E+00 0. -1.
         11    1    1    2    0    0  0.21930168220E+02  0.41671979282E+01 -0.23522122643E+01  0.22446173823E+02  0.00000000000E+00 0.  1.
</event>
<event>
 7    1  0.2816615E-009  0.1264882E+03  0.7561462E-02  0.1232762E+00
         -1   -1    0    0    0  501 -0.00000000000E+00  0.00000000000E+00  0.27772997005E+02  0.27772997005E+02  0.00000000000E+00 0.  1.
          1   -1    0    0  501    0  0.00000000000E+00 -0.00000000000E+00 -0.57944340512E+03  0.57944340512E+03  0.00000000000E+00 0. -1.
         25    2    1    2    0    0 -0.54118266987E+02  0.36845600976E+02 -0.31966954185E+03  0.34946162253E+03  0.12509366294E+03 0.  0.
          5    1    3    3  502    0 -0.55751725825E+02 -0.37039611047E+02 -0.15868502005E+03  0.17227476806E+03  0.41800000000E+01 0.  1.
         -5    1    3    3    0  502  0.16334588387E+01  0.73885212024E+02 -0.16098452179E+03  0.17718685448E+03  0.41800000000E+01 0.  1.
        -11    1    1    2    0    0  0.70562949793E+02  0.10605233876E+01 -0.15682324520E+03  0.17197030217E+03  0.00000000000E+00 0. -1.
         11    1    1    2    0    0 -0.16444682806E+02 -0.37906124364E+02 -0.75177621075E+02  0.85784477426E+02  0.00000000000E+00 0.  1.
</event>
<event>
 7    1  0.2693725E-009  0.1080304E+03  0.7561462E-02  0.1264261E+00
          1   -1    0    0  501    0  0.00000000000E+00  0.00000000000E+00  0.19299413199E+03  0.19299413199E+03  0.00000000000E+00 0. -1.
         -1   -1    0    0    0  501 -0.00000000000E+00 -0.00000000000E+00 -0.98810679514E+02  0.98810679514E+02  0.00000000000E+00 0.  1.
         25    2    1    2    0    0 -0.97063227724E+01  0.80636237341E+02  0.24519663401E+02  0.15114348954E+03  0.12508687006E+03 0.  0.
          5    1    3    3  502    0 -0.46105084728E+02  0.43067791086E+02  0.60504592174E+02  0.87514521886E+02  0.41800000000E+01 0.  1.
         -5    1    3    3    0  502  0.36398761955E+02  0.37568446255E+02 -0.35984928773E+02  0.63628967654E+02  0.41800000000E+01 0.  1.
        -11    1    1    2    0    0 -0.24806915127E+02 -0.27949419360E+02 -0.10401689838E+02  0.38791084442E+02  0.00000000000E+00 0.  1.
         11    1    1    2    0    0  0.34513237900E+02 -0.52686817980E+02  0.80065478913E+02  0.10187023752E+03  0.00000000000E+00 0. -1.
</event>
<event>
 7    1  0.2693725E-009  0.1015882E+03  0.7561462E-02  0.1276991E+00
         -1   -1    0    0    0  501 -0.00000000000E+00  0.00000000000E+00  0.37126911555E+03  0.37126911555E+03  0.00000000000E+00 0.  1.
          1   -1    0    0  501    0  0.00000000000E+00 -0.00000000000E+00 -0.33551825406E+02  0.33551825406E+02  0.00000000000E+00 0. -1.
         25    2    1    2    0    0 -0.81203136108E+00 -0.70393953111E+00  0.24253029686E+03  0.27289169747E+03  0.12509108173E+03 0.  0.
          5    1    3    3  502    0 -0.36460201828E+02 -0.43891511952E+02  0.64514680230E+02  0.86228924984E+02  0.41800000000E+01 0. -1.
         -5    1    3    3    0  502  0.35648170467E+02  0.43187572421E+02  0.17801561663E+03  0.18666277249E+03  0.41800000000E+01 0. -1.
        -11    1    1    2    0    0 -0.41309484942E+02  0.16964468081E+02  0.35274315973E+02  0.56908207587E+02  0.00000000000E+00 0.  1.
         11    1    1    2    0    0  0.42121516303E+02 -0.16260528550E+02  0.59912677315E+02  0.75021035900E+02  0.00000000000E+00 0. -1.
</event>
<event>
 7    1  0.2693725E-009  0.1089177E+03  0.7561462E-02  0.1262587E+00
          3   -1    0    0  501    0  0.00000000000E+00  0.00000000000E+00  0.57806775171E+02  0.57806775171E+02  0.00000000000E+00 0. -1.
         -3   -1    0    0    0  501 -0.00000000000E+00 -0.00000000000E+00 -0.26361666216E+03  0.26361666216E+03  0.00000000000E+00 0.  1.
         25    2    1    2    0    0  0.30454096435E+02  0.46142913731E+02 -0.12177989464E+03  0.18312084549E+03  0.12508509438E+03 0.  0.
          5    1    3    3  502    0 -0.30163157858E+02  0.47971153764E+02 -0.12663286853E+02  0.58214078360E+02  0.41800000000E+01 0.  1.
         -5    1    3    3    0  502  0.60617254293E+02 -0.18282400331E+01 -0.10911660779E+03  0.12490676713E+03  0.41800000000E+01 0.  1.
        -11    1    1    2    0    0  0.29237527123E+02 -0.13698864078E+02 -0.28036619488E+01  0.32409140526E+02  0.00000000000E+00 0. -1.
         11    1    1    2    0    0 -0.59691623559E+02 -0.32444049653E+02 -0.81226330394E+02  0.10589345131E+03  0.00000000000E+00 0.  1.
</event>
<event>
 7    1  0.2693725E-009  0.2201494E+03  0.7561462E-02  0.1133772E+00
          2   -1    0    0  501    0  0.00000000000E+00  0.00000000000E+00  0.86587451641E+02  0.86587451641E+02  0.00000000000E+00 0. -1.
         -2   -1    0    0    0  501 -0.00000000000E+00 -0.00000000000E+00 -0.71789223873E+03  0.71789223873E+03  0.00000000000E+00 0.  1.
         25    2    1    2    0    0  0.55923247127E+02  0.19413033540E+03 -0.48142636579E+03  0.53687322934E+03  0.12509005558E+03 0.  0.
          5    1    3    3  502    0 -0.29762913187E+02  0.79559525206E+01 -0.44913777038E+02  0.54624609378E+02  0.41800000000E+01 0.  1.
         -5    1    3    3    0  502  0.85686160313E+02  0.18617438288E+03 -0.43651258876E+03  0.48224861996E+03  0.41800000000E+01 0.  1.
        -11    1    1    2    0    0 -0.24420532154E+02 -0.39705628611E+02  0.46977385498E+01  0.46850486460E+02  0.00000000000E+00 0. -1.
         11    1    1    2    0    0 -0.31502714973E+02 -0.15442470679E+03 -0.15457615984E+03  0.22075597457E+03  0.00000000000E+00 0.  1.
</event>
<event>
 7    1  0.2693725E-009  0.1395329E+03  0.7561462E-02  0.1213959E+00
          1   -1    0    0  501    0  0.00000000000E+00  0.00000000000E+00  0.38383817297E+03  0.38383817297E+03  0.00000000000E+00 0. -1.
         -1   -1    0    0    0  501 -0.00000000000E+00 -0.00000000000E+00 -0.66243101787E+02  0.66243101787E+02  0.00000000000E+00 0.  1.
         25    2    1    2    0    0 -0.98865735715E+02 -0.10534117562E+02  0.25570789840E+03  0.30152360779E+03  0.12507819722E+03 0.  0.
          5    1    3    3  502    0 -0.29896973572E+02  0.51613503403E+02  0.59167073097E+02  0.84118949714E+02  0.41800000000E+01 0.  1.
         -5    1    3    3    0  502 -0.68968762143E+02 -0.62147620964E+02  0.19654082530E+03  0.21740465807E+03  0.41800000000E+01 0.  1.
        -11    1    1    2    0    0  0.83385953430E+02 -0.25436718539E+02  0.16702662975E+02  0.88764986509E+02  0.00000000000E+00 0.  1.
         11    1    1    2    0    0  0.15479782284E+02  0.35970836101E+02  0.45184509809E+02  0.59792680456E+02  0.00000000000E+00 0. -1.
</event>
<event>
 7    1  0.2693725E-009  0.1200400E+03  0.7561462E-02  0.1243031E+00
          2   -1    0    0  501    0  0.00000000000E+00  0.00000000000E+00  0.74906159157E+02  0.74906159157E+02  0.00000000000E+00 0. -1.
         -2   -1    0    0    0  501 -0.00000000000E+00 -0.00000000000E+00 -0.29929749080E+03  0.29929749080E+03  0.00000000000E+00 0.  1.
         25    2    1    2    0    0 -0.22598249447E+02  0.95554504631E+02 -0.15813960700E+03  0.22427039799E+03  0.12509089447E+03 0.  0.
          5    1    3    3  502    0 -0.33195469106E+02  0.64467353615E+02 -0.11010581804E+02  0.73462127405E+02  0.41800000000E+01 0. -1.
         -5    1    3    3    0  502  0.10597219659E+02  0.31087151016E+02 -0.14712902519E+03  0.15080827059E+03  0.41800000000E+01 0. -1.
        -11    1    1    2    0    0  0.58320558879E+02 -0.65035915084E+02 -0.46571792703E+02  0.98994392338E+02  0.00000000000E+00 0. -1.
         11    1    1    2    0    0 -0.35722309432E+02 -0.30518589547E+02 -0.19679931946E+02  0.50938859630E+02  0.00000000000E+00 0.  1.
</event>
<event>
 7    1  0.2693725E-009  0.9489250E+02  0.7561462E-02  0.1291418E+00
         -1   -1    0    0    0  501 -0.00000000000E+00  0.00000000000E+00  0.16530424012E+03  0.16530424012E+03  0.00000000000E+00 0.  1.
          1   -1    0    0  501    0  0.00000000000E+00 -0.00000000000E+00 -0.72660939997E+02  0.72660939997E+02  0.00000000000E+00 0. -1.
         25    2    1    2    0    0 -0.52373950272E+01 -0.60652845495E+01  0.38411838826E+02  0.13109277562E+03  0.12508248668E+03 0.  0.
          5    1    3    3  502    0  0.44964639783E+02 -0.16222063227E+02  0.58723647753E+02  0.75834776795E+02  0.41800000000E+01 0. -1.
         -5    1    3    3    0  502 -0.50202034810E+02  0.10156778677E+02 -0.20311808927E+02  0.55257998824E+02  0.41800000000E+01 0. -1.
        -11    1    1    2    0    0 -0.21336698237E+02  0.41177452788E+02  0.17639549428E+02  0.49618454367E+02  0.00000000000E+00 0. -1.
         11    1    1    2    0    0  0.26574093264E+02 -0.35112168238E+02  0.36591911869E+02  0.57253950130E+02  0.00000000000E+00 0.  1.
</event>
<event>
 7    1  0.2693725E-009  0.1014825E+03  0.7561462E-02  0.1277209E+00
         -1   -1    0    0    0  501 -0.00000000000E+00  0.00000000000E+00  0.26657561164E+02  0.26657561164E+02  0.00000000000E+00 0.  1.
          1   -1    0    0  501    0  0.00000000000E+00 -0.00000000000E+00 -0.79936010823E+03  0.79936010823E+03  0.00000000000E+00 0. -1.
         25    2    1    2    0    0 -0.15769374706E+02 -0.49025685050E+02 -0.65691870694E+03  0.67070321786E+03  0.12509367668E+03 0.  0.
          5    1    3    3  502    0 -0.14863827233E+02 -0.73254345405E+02 -0.20716327212E+03  0.22027534178E+03  0.41800000000E+01 0.  1.
         -5    1    3    3    0  502 -0.90554747302E+00  0.24228660354E+02 -0.44975543483E+03  0.45042787608E+03  0.41800000000E+01 0.  1.
        -11    1    1    2    0    0  0.34610993841E+02  0.68284467134E+02 -0.87085450123E+02  0.11595070060E+03  0.00000000000E+00 0. -1.
         11    1    1    2    0    0 -0.18841619135E+02 -0.19258782084E+02 -0.28698390004E+02  0.39363750936E+02  0.00000000000E+00 0.  1.
</event>
<event>
 7    1  0.2693725E-009  0.7446451E+02  0.7561462E-02  0.1345537E+00
         -1   -1    0    0    0  501 -0.00000000000E+00  0.00000000000E+00  0.15356272749E+03  0.15356272749E+03  0.00000000000E+00 0.  1.
          1   -1    0    0  501    0  0.00000000000E+00 -0.00000000000E+00 -0.11635274467E+03  0.11635274467E+03  0.00000000000E+00 0. -1.
         25    2    1    2    0    0  0.22835627645E+02 -0.67359901173E+02  0.56955663058E+02  0.15475876774E+03  0.12508999345E+03 0.  0.
          5    1    3    3  502    0  0.55172575844E+01 -0.34731749377E+01  0.83105476592E+02  0.83465536091E+02  0.41800000000E+01 0. -1.
         -5    1    3    3    0  502  0.17318370060E+02 -0.63886726236E+02 -0.26149813534E+02  0.71293231646E+02  0.41800000000E+01 0. -1.
        -11    1    1    2    0    0  0.49122529112E+01  0.99911477213E+01  0.31481865071E+02  0.33392530449E+02  0.00000000000E+00 0.  1.
         11    1    1    2    0    0 -0.27747880556E+02  0.57368753452E+02 -0.51227545311E+02  0.81764173980E+02  0.00000000000E+00 0. -1.
</event>
<event>
 7    1  0.2693725E-009  0.6695515E+02  0.7561462E-02  0.1370764E+00
          2   -1    0    0  501    0  0.00000000000E+00  0.00000000000E+00  0.12087522264E+03  0.12087522264E+03  0.00000000000E+00 0. -1.
         -2   -1    0    0    0  501 -0.00000000000E+00 -0.00000000000E+00 -0.10660728013E+03  0.10660728013E+03  0.00000000000E+00 0.  1.
         25    2    1    2    0    0 -0.15728381706E+02 -0.17617698010E+02 -0.19848819625E+02  0.12883493967E+03  0.12508677295E+03 0.  0.
          5    1    3    3  502    0 -0.19387021788E+02  0.12722929293E+02  0.48460052617E+02  0.53884864696E+02  0.41800000000E+01 0.  1.
         -5    1    3    3    0  502  0.36586400820E+01 -0.30340627303E+02 -0.68308872242E+02  0.74950074979E+02  0.41800000000E+01 0.  1.
        -11    1    1    2    0    0 -0.27219612336E+02  0.23743316784E+02 -0.92718609112E+01  0.37291014901E+02  0.00000000000E+00 0. -1.
         11    1    1    2    0    0  0.42947994042E+02 -0.61256187744E+01  0.43388623046E+02  0.61356548203E+02  0.00000000000E+00 0.  1.
</event>
<event>
 7    1  0.2693725E-009  0.1101747E+03  0.7561462E-02  0.1260247E+00
         -2   -1    0    0    0  501 -0.00000000000E+00  0.00000000000E+00  0.32215861041E+02  0.32215861041E+02  0.00000000000E+00 0.  1.
          2   -1    0    0  501    0  0.00000000000E+00 -0.00000000000E+00 -0.44193769123E+03  0.44193769123E+03  0.00000000000E+00 0. -1.
         25    2    1    2    0    0 -0.25043712276E+02  0.80555569664E+01 -0.31868057629E+03  0.34336126492E+03  0.12509024349E+03 0.  0.
          5    1    3    3  502    0 -0.55888689288E+02 -0.41126979549E+02 -0.16646645946E+03  0.18039824989E+03  0.41800000000E+01 0.  1.
         -5    1    3    3    0  502  0.30844977012E+02  0.49182536516E+02 -0.15221411683E+03  0.16296301503E+03  0.41800000000E+01 0.  1.
        -11    1    1    2    0    0  0.24657413237E+02  0.38691309463E+02 -0.34361904564E+02  0.57321426542E+02  0.00000000000E+00 0.  1.
         11    1    1    2    0    0  0.38629903918E+00 -0.46746866429E+02 -0.56679349338E+02  0.73470860818E+02  0.00000000000E+00 0. -1.
</event>
<event>
 7    1  0.2693725E-009  0.1374065E+03  0.7561462E-02  0.1216862E+00
          1   -1    0    0  501    0  0.00000000000E+00  0.00000000000E+00  0.93467693025E+03  0.93467693025E+03  0.00000000000E+00 0. -1.
         -1   -1    0    0    0  501 -0.00000000000E+00 -0.00000000000E+00 -0.28644862185E+02  0.28644862185E+02  0.00000000000E+00 0.  1.
         25    2    1    2    0    0  0.12110115716E+03  0.38385522180E+00  0.54258455760E+03  0.56983476727E+03  0.12509205502E+03 0.  0.
          5    1    3    3  502    0  0.30217835804E+02 -0.17097666336E+02  0.22545249764E+02  0.41607793522E+02  0.41800000000E+01 0. -1.
         -5    1    3    3    0  502  0.90883321359E+02  0.17481521558E+02  0.52003930784E+03  0.52822697375E+03  0.41800000000E+01 0. -1.
        -11    1    1    2    0    0 -0.12628324138E+03  0.18487331305E+02  0.27907543563E+03  0.30687511669E+03  0.00000000000E+00 0.  1.
         11    1    1    2    0    0  0.51820842212E+01 -0.18871186527E+02  0.84372074837E+02  0.86611908478E+02  0.00000000000E+00 0. -1.
</event>
<event>
 7    1  0.3205891E-009  0.1272749E+03  0.7561462E-02  0.1231556E+00
         -2   -1    0    0    0  501 -0.00000000000E+00  0.00000000000E+00  0.68918439833E+02  0.68918439833E+02  0.00000000000E+00 0.  1.
          2   -1    0    0  501    0  0.00000000000E+00 -0.00000000000E+00 -0.26147921444E+03  0.26147921444E+03  0.00000000000E+00 0. -1.
         25    2    1    2    0    0  0.76272616010E+02  0.19266495137E+02 -0.97143438439E+02  0.17684382059E+03  0.12509268348E+03 0.  0.
          5    1    3    3  502    0  0.10985653978E+03  0.20591586576E+02 -0.86332203860E+02  0.14129116955E+03  0.41800000000E+01 0.  1.
         -5    1    3    3    0  502 -0.33583923765E+02 -0.13250914390E+01 -0.10811234579E+02  0.35552651039E+02  0.41800000000E+01 0.  1.
        -11    1    1    2    0    0 -0.62047952627E+01 -0.36216474223E+02 -0.37484458216E+01  0.36934852585E+02  0.00000000000E+00 0.  1.
         11    1    1    2    0    0 -0.70067820748E+02  0.16949979086E+02 -0.91668890350E+02  0.11661898110E+03  0.00000000000E+00 0. -1.
</event>
<event>
 7    1  0.2693725E-009  0.1109691E+03  0.7561462E-02  0.1258786E+00
         -2   -1    0    0    0  501 -0.00000000000E+00  0.00000000000E+00  0.26511182968E+02  0.26511182968E+02  0.00000000000E+00 0.  1.
          2   -1    0    0  501    0  0.00000000000E+00 -0.00000000000E+00 -0.11653460959E+04  0.11653460959E+04  0.00000000000E+00 0. -1.
         25    2    1    2    0    0 -0.33636900007E+02 -0.49472014095E+00 -0.10567569865E+04  0.10646665770E+04  0.12509158993E+03 0.  0.
          5    1    3    3  502    0  0.25427703582E+02  0.45086399347E+02 -0.54737051091E+03  0.54982842791E+03  0.41800000000E+01 0. -1.
         -5    1    3    3    0  502 -0.59064603590E+02 -0.45581119488E+02 -0.50938647554E+03  0.51483814905E+03  0.41800000000E+01 0. -1.
        -11    1    1    2    0    0 -0.26656341901E+02  0.18396469227E+02 -0.16582020964E+02  0.36386179558E+02  0.00000000000E+00 0. -1.
         11    1    1    2    0    0  0.60293241908E+02 -0.17901749086E+02 -0.65495905487E+02  0.90804522331E+02  0.00000000000E+00 0.  1.
</event>
<event>
 7    1  0.2693725E-009  0.1982496E+03  0.7561462E-02  0.1151224E+00
          1   -1    0    0  501    0  0.00000000000E+00  0.00000000000E+00  0.10007257945E+04  0.10007257945E+04  0.00000000000E+00 0. -1.
         -1   -1    0    0    0  501 -0.00000000000E+00 -0.00000000000E+00 -0.46826688844E+02  0.46826688844E+02  0.00000000000E+00 0.  1.
         25    2    1    2    0    0 -0.13173973063E+03 -0.10766508763E+03  0.30921959820E+03  0.37444747185E+03  0.12508805516E+03 0.  0.
          5    1    3    3  502    0  0.57886189839E+01 -0.60881076260E+02  0.58961357084E+02  0.85052498997E+02  0.41800000000E+01 0. -1.
         -5    1    3    3    0  502 -0.13752834961E+03 -0.46784011368E+02  0.25025824112E+03  0.28939497285E+03  0.41800000000E+01 0. -1.
        -11    1    1    2    0    0  0.14236564199E+03  0.87572330118E+02  0.51487105306E+03  0.54132161448E+03  0.00000000000E+00 0.  1.
         11    1    1    2    0    0 -0.10625911368E+02  0.20092757511E+02  0.12980845442E+03  0.13178339705E+03  0.00000000000E+00 0. -1.
</event>
<event>
 7    1  0.2693725E-009  0.1324348E+03  0.7561462E-02  0.1223887E+00
          2   -1    0    0  501    0  0.00000000000E+00  0.00000000000E+00  0.57257596890E+03  0.57257596890E+03  0.00000000000E+00 0. -1.
         -2   -1    0    0    0  501 -0.00000000000E+00 -0.00000000000E+00 -0.39314936826E+02  0.39314936826E+02  0.00000000000E+00 0.  1.
         25    2    1    2    0    0 -0.89702314289E+02 -0.55041308669E+02  0.31282969596E+03  0.35296748746E+03  0.12509027811E+03 0.  0.
          5    1    3    3  502    0 -0.14130220309E+02 -0.51787182192E+02  0.33196352730E+02  0.63253818856E+02  0.41800000000E+01 0. -1.
         -5    1    3    3    0  502 -0.75572093980E+02 -0.32541264778E+01  0.27963334323E+03  0.28971366860E+03  0.41800000000E+01 0. -1.
        -11    1    1    2    0    0  0.10644482057E+03  0.51070861733E+02  0.18379532385E+03  0.21844782859E+03  0.00000000000E+00 0. -1.
         11    1    1    2    0    0 -0.16742506285E+02  0.39704469363E+01  0.36636012256E+02  0.40475589676E+02  0.00000000000E+00 0.  1.
</event>
<event>
 7    1  0.2693725E-009  0.9240090E+02  0.7561462E-02  0.1297140E+00
          2   -1    0    0  501    0  0.00000000000E+00  0.00000000000E+00  0.53761019286E+03  0.53761019286E+03  0.00000000000E+00 0. -1.
         -2   -1    0    0    0  501 -0.00000000000E+00 -0.00000000000E+00 -0.25315102361E+02  0.25315102361E+02  0.00000000000E+00 0.  1.
         25    2    1    2    0    0  0.10225992223E+02  0.35585132392E+02  0.34118748605E+03  0.36527779370E+03  0.12509233938E+03 0.  0.
          5    1    3    3  502    0  0.10930218447E+02  0.59998292036E+02  0.69890445847E+02  0.92851556493E+02  0.41800000000E+01 0. -1.
         -5    1    3    3    0  502 -0.70422622333E+00 -0.24413159645E+02  0.27129704020E+03  0.27242623721E+03  0.41800000000E+01 0. -1.
        -11    1    1    2    0    0 -0.50645861638E+02 -0.27653722874E+02  0.10235940134E+03  0.11750395198E+03  0.00000000000E+00 0.  1.
         11    1    1    2    0    0  0.40419869414E+02 -0.79314095175E+01  0.68748203111E+02  0.80143549531E+02  0.00000000000E+00 0. -1.
</event>
<event>
 7    1  0.2693725E-009  0.7964397E+02  0.7561462E-02  0.1330065E+00
         -3   -1    0    0    0  501 -0.00000000000E+00  0.00000000000E+00  0.13245468553E+03  0.13245468553E+03  0.00000000000E+00 0.  1.
          3   -1    0    0  501    0  0.00000000000E+00 -0.00000000000E+00 -0.14664294158E+03  0.14664294158E+03  0.00000000000E+00 0. -1.
         25    2    1    2    0    0  0.18191656983E+02  0.60107299509E+02 -0.67802626582E+02  0.15552940712E+03  0.12509347094E+03 0.  0.
          5    1    3    3  502    0 -0.81118161103E+01  0.38600648672E+01  0.34439150460E+02  0.35836143010E+02  0.41800000000E+01 0. -1.
         -5    1    3    3    0  502  0.26303473094E+02  0.56247234641E+02 -0.10224177704E+03  0.11969326411E+03  0.41800000000E+01 0. -1.
        -11    1    1    2    0    0 -0.35063837582E+02 -0.13490857134E+02  0.62769775942E+02  0.73154088771E+02  0.00000000000E+00 0.  1.
         11    1    1    2    0    0  0.16872180598E+02 -0.46616442374E+02 -0.91554054048E+01  0.50414131212E+02  0.00000000000E+00 0. -1.
</event>
<event>
 7    1  0.2693725E-009  0.9910228E+02  0.7561462E-02  0.1282195E+00
          2   -1    0    0  501    0  0.00000000000E+00  0.00000000000E+00  0.57852699975E+03  0.57852699975E+03  0.00000000000E+00 0. -1.
         -2   -1    0    0    0  501 -0.00000000000E+00 -0.00000000000E+00 -0.34001161007E+02  0.34001161007E+02  0.00000000000E+00 0.  1.
         25    2    1    2    0    0 -0.19533130362E+02  0.65943340736E+01  0.48556293791E+03  0.50184078247E+03  0.12509107022E+03 0.  0.
          5    1    3    3  502    0  0.45635723753E+02 -0.67404802780E+01  0.95684687621E+02  0.10630656237E+03  0.41800000000E+01 0.  1.
         -5    1    3    3    0  502 -0.65168854115E+02  0.13334814352E+02  0.38987825029E+03  0.39553422010E+03  0.41800000000E+01 0.  1.
        -11    1    1    2    0    0  0.25853744313E+02  0.34804229225E+02  0.69483276246E+01  0.43909335269E+02  0.00000000000E+00 0.  1.
         11    1    1    2    0    0 -0.63206139501E+01 -0.41398563299E+02  0.52014573201E+02  0.66778043017E+02  0.00000000000E+00 0. -1.
</event>
<event>
 7    1  0.2693725E-009  0.1237925E+03  0.7561462E-02  0.1236969E+00
          1   -1    0    0  501    0  0.00000000000E+00  0.00000000000E+00  0.47277483003E+03  0.47277483003E+03  0.00000000000E+00 0. -1.
         -1   -1    0    0    0  501 -0.00000000000E+00 -0.00000000000E+00 -0.50586805892E+02  0.50586805892E+02  0.00000000000E+00 0.  1.
         25    2    1    2    0    0  0.10302014796E+03  0.18387751224E+00  0.16256252838E+03  0.22953800512E+03  0.12509170822E+03 0.  0.
          5    1    3    3  502    0  0.61744879952E+02  0.47204119372E+02  0.14475324712E+03  0.16435216469E+03  0.41800000000E+01 0. -1.
         -5    1    3    3    0  502  0.41275268007E+02 -0.47020241860E+02  0.17809281255E+02  0.65185840429E+02  0.41800000000E+01 0. -1.
        -11    1    1    2    0    0 -0.71426035042E+02 -0.13619478257E+02  0.24661122289E+03  0.25710749488E+03  0.00000000000E+00 0. -1.
         11    1    1    2    0    0 -0.31594112917E+02  0.13435600745E+02  0.13014272869E+02  0.36716135918E+02  0.00000000000E+00 0.  1.
</event>
<event>
 7    1  0.2693725E-009  0.1696772E+03  0.7561462E-02  0.1178185E+00
         -1   -1    0    0    0  501 -0.00000000000E+00  0.00000000000E+00  0.32607704186E+02  0.32607704186E+02  0.00000000000E+00 0.  1.
          1   -1    0    0  501    0  0.00000000000E+00 -0.00000000000E+00 -0.11454706097E+04  0.11454706097E+04  0.00000000000E+00 0. -1.
         25    2    1    2    0    0 -0.12155771850E+03 -0.48091860539E+02 -0.86233588280E+03  0.88111130739E+03  0.12507939584E+03 0.  0.
          5    1    3    3  502    0  0.41244670820E+01 -0.54441333858E+02 -0.28338974586E+03  0.28863140945E+03  0.41800000000E+01 0. -1.
         -5    1    3    3    0  502 -0.12568218558E+03  0.63494733193E+01 -0.57894613694E+03  0.59247989794E+03  0.41800000000E+01 0. -1.
        -11    1    1    2    0    0  0.10105589328E+03  0.74285825507E+02 -0.18542775519E+03  0.22386185435E+03  0.00000000000E+00 0.  1.
         11    1    1    2    0    0  0.20501825224E+02 -0.26193964968E+02 -0.65099267502E+02  0.73105152128E+02  0.00000000000E+00 0. -1.
</event>
<event>
 7    1  0.2693725E-009  0.1509107E+03  0.7561462E-02  0.1199358E+00
          1   -1    0    0  501    0  0.00000000000E+00  0.00000000000E+00  0.39723043034E+03  0.39723043034E+03  0.00000000000E+00 0. -1.
         -1   -1    0    0    0  501 -0.00000000000E+00 -0.00000000000E+00 -0.83815858232E+02  0.83815858232E+02  0.00000000000E+00 0.  1.
         25    2    1    2    0    0 -0.28457518398E+02  0.13362790860E+03  0.20900613162E+03  0.27927919401E+03  0.12508819626E+03 0.  0.
          5    1    3    3  502    0 -0.43653194338E+02  0.49812648656E+02  0.15995019776E+02  0.68265763012E+02  0.41800000000E+01 0. -1.
         -5    1    3    3    0  502  0.15195675940E+02  0.83815259941E+02  0.19301111185E+03  0.21101343100E+03  0.41800000000E+01 0. -1.
        -11    1    1    2    0    0 -0.19552700708E+02 -0.50836226254E+02 -0.69781919468E+01  0.54911976540E+02  0.00000000000E+00 0.  1.
         11    1    1    2    0    0  0.48010219106E+02 -0.82791682342E+02  0.11138663243E+03  0.14685511802E+03  0.00000000000E+00 0. -1.
</event>
<event>
 7    1  0.2693725E-009  0.1175266E+03  0.7561462E-02  0.1247234E+00
         -2   -1    0    0    0  501 -0.00000000000E+00  0.00000000000E+00  0.35603585022E+02  0.35603585022E+02  0.00000000000E+00 0.  1.
          2   -1    0    0  501    0  0.00000000000E+00 -0.00000000000E+00 -0.40397026272E+03  0.40397026272E+03  0.00000000000E+00 0. -1.
         25    2    1    2    0    0  0.47161838981E+02  0.17930899259E+02 -0.23762112011E+03  0.27323508223E+03  0.12509139553E+03 0.  0.
          5    1    3    3  502    0 -0.18360873043E+02  0.55753146667E+02 -0.95432523475E+02  0.11211767906E+03  0.41800000000E+01 0. -1.
         -5    1    3    3    0  502  0.65522712023E+02 -0.37822247408E+02 -0.14218859663E+03  0.16111740316E+03  0.41800000000E+01 0. -1.
        -11    1    1    2    0    0 -0.36395617394E+02 -0.52694884839E+02 -0.99731731124E+02  0.11852345779E+03  0.00000000000E+00 0. -1.
         11    1    1    2    0    0 -0.10766221587E+02  0.34763985580E+02 -0.31013826472E+02  0.47815307728E+02  0.00000000000E+00 0.  1.
</event>
<event>
 7    1  0.2693725E-009  0.1377723E+03  0.7561462E-02  0.1216358E+00
          1   -1    0    0  501    0  0.00000000000E+00  0.00000000000E+00  0.60780870522E+03  0.60780870522E+03  0.00000000000E+00 0. -1.
         -1   -1    0    0    0  501 -0.00000000000E+00 -0.00000000000E+00 -0.33268940736E+02  0.33268940736E+02  0.00000000000E+00 0.  1.
         25    2    1    2    0    0  0.70828982016E+02  0.58476417738E+02  0.32641400373E+03  0.36142771910E+03  0.12509059987E+03 0.  0.
          5    1    3    3  502    0 -0.32279854157E+02  0.15984774367E+02  0.39744063074E+02  0.53801161192E+02  0.41800000000E+01 0. -1.
         -5    1    3    3    0  502  0.10310883617E+03  0.42491643371E+02  0.28666994065E+03  0.30762655790E+03  0.41800000000E+01 0. -1.
        -11    1    1    2    0    0 -0.81784784082E+02 -0.72907406027E+02  0.22511791655E+03  0.25036436870E+03  0.00000000000E+00 0.  1.
         11    1    1    2    0    0  0.10955802066E+02  0.14430988289E+02  0.23007844201E+02  0.29285558160E+02  0.00000000000E+00 0. -1.
</event>
<event>
 7    1  0.2693725E-009  0.8624164E+02  0.7561462E-02  0.1312217E+00
          4   -1    0    0  501    0  0.00000000000E+00  0.00000000000E+00  0.91905743906E+02  0.91905743906E+02  0.00000000000E+00 0.  1.
         -4   -1    0    0    0  501 -0.00000000000E+00 -0.00000000000E+00 -0.14467567712E+03  0.14467567712E+03  0.00000000000E+00 0. -1.
         25    2    1    2    0    0  0.14564393341E+02  0.25614740434E+02 -0.14832540847E+01  0.12852424743E+03  0.12509214865E+03 0.  0.
          5    1    3    3  502    0  0.52671760055E+02  0.10610772983E+02 -0.43829596574E+02  0.69465162106E+02  0.41800000000E+01 0.  1.
         -5    1    3    3    0  502 -0.38107366714E+02  0.15003967451E+02  0.42346342490E+02  0.59059085324E+02  0.41800000000E+01 0.  1.
        -11    1    1    2    0    0 -0.41258445312E+02 -0.12428780008E+01 -0.58104267434E+02  0.71273487001E+02  0.00000000000E+00 0. -1.
         11    1    1    2    0    0  0.26694051971E+02 -0.24371862433E+02  0.68175883065E+01  0.36783686593E+02  0.00000000000E+00 0.  1.
</event>
<event>
 7    1  0.2693725E-009  0.1981798E+03  0.7561462E-02  0.1151284E+00
          1   -1    0    0  501    0  0.00000000000E+00  0.00000000000E+00  0.87078469403E+03  0.87078469403E+03  0.00000000000E+00 0. -1.
         -1   -1    0    0    0  501 -0.00000000000E+00 -0.00000000000E+00 -0.52394329978E+02  0.52394329978E+02  0.00000000000E+00 0.  1.
         25    2    1    2    0    0 -0.10483391979E+03 -0.14939834461E+03  0.47667114971E+03  0.52552145494E+03  0.12508956199E+03 0.  0.
          5    1    3    3  502    0 -0.20976462251E+01 -0.99257683649E+02  0.29037359090E+03  0.30690516870E+03  0.41800000000E+01 0. -1.
         -5    1    3    3    0  502 -0.10273627357E+03 -0.50140660966E+02  0.18629755881E+03  0.21861628624E+03  0.41800000000E+01 0. -1.
        -11    1    1    2    0    0  0.64610136942E+02  0.96767644130E+02  0.29350571820E+03  0.31572781532E+03  0.00000000000E+00 0. -1.
         11    1    1    2    0    0  0.40223782853E+02  0.52630700485E+02  0.48213496137E+02  0.81929753754E+02  0.00000000000E+00 0.  1.
</event>
<event>
 7    1  0.2693725E-009  0.1188426E+03  0.7561462E-02  0.1245019E+00
          1   -1    0    0  501    0  0.00000000000E+00  0.00000000000E+00  0.35468191837E+03  0.35468191837E+03  0.00000000000E+00 0. -1.
         -1   -1    0    0    0  501 -0.00000000000E+00 -0.00000000000E+00 -0.55277133237E+02  0.55277133237E+02  0.00000000000E+00 0.  1.
         25    2    1    2    0    0 -0.54040293234E+02  0.35279739919E+02  0.90259828896E+02  0.16720468697E+03  0.12508220214E+03 0.  0.
          5    1    3    3  502    0  0.17273452531E+02 -0.19462816313E+02 -0.13696668751E+02  0.29702601166E+02  0.41800000000E+01 0.  1.
         -5    1    3    3    0  502 -0.71313745764E+02  0.54742556232E+02  0.10395649765E+03  0.13750208581E+03  0.41800000000E+01 0.  1.
        -11    1    1    2    0    0 -0.30522029624E+02 -0.24568213786E+01  0.72961428225E+02  0.79126482749E+02  0.00000000000E+00 0. -1.
         11    1    1    2    0    0  0.84562322858E+02 -0.32822918540E+02  0.13618352801E+03  0.16362788188E+03  0.00000000000E+00 0.  1.
</event>
<event>
 7    1  0.2693725E-009  0.1019021E+03  0.7561462E-02  0.1276346E+00
          3   -1    0    0  501    0  0.00000000000E+00  0.00000000000E+00  0.30719176103E+03  0.30719176103E+03  0.00000000000E+00 0. -1.
         -3   -1    0    0    0  501 -0.00000000000E+00 -0.00000000000E+00 -0.61953349300E+02  0.61953349300E+02  0.00000000000E+00 0.  1.
         25    2    1    2    0    0 -0.52799029341E+02 -0.18787929931E+02  0.21982646219E+03  0.25906020832E+03  0.12509114374E+03 0.  0.
          5    1    3    3  502    0 -0.61088679590E+02 -0.65044256920E+02  0.15471799089E+03  0.17865528606E+03  0.41800000000E+01 0. -1.
         -5    1    3    3    0  502  0.82896502485E+01  0.46256326989E+02  0.65108471305E+02  0.80404922259E+02  0.41800000000E+01 0. -1.
        -11    1    1    2    0    0  0.35757953465E+02  0.30183589017E+02  0.56178363241E+02  0.73114217348E+02  0.00000000000E+00 0. -1.
         11    1    1    2    0    0  0.17041075877E+02 -0.11395659086E+02 -0.30766413699E+02  0.36970684670E+02  0.00000000000E+00 0.  1.
</event>
<event>
 7    1  0.2693725E-009  0.9080946E+02  0.7561462E-02  0.1300903E+00
          4   -1    0    0  501    0  0.00000000000E+00  0.00000000000E+00  0.36975196950E+03  0.36975196950E+03  0.00000000000E+00 0. -1.
         -4   -1    0    0    0  501 -0.00000000000E+00 -0.00000000000E+00 -0.34974538614E+02  0.34974538614E+02  0.00000000000E+00 0.  1.
         25    2    1    2    0    0  0.26165610146E+02  0.22257155492E+02  0.19300325825E+03  0.23254620402E+03  0.12508980449E+03 0.  0.
          5    1    3    3  502    0 -0.11769753757E+01  0.53155210982E+02  0.18198274707E+03  0.18963663769E+03  0.41800000000E+01 0. -1.
         -5    1    3    3    0  502  0.27342585522E+02 -0.30898055490E+02  0.11020511180E+02  0.42909566331E+02  0.41800000000E+01 0. -1.
        -11    1    1    2    0    0 -0.54447047736E+02 -0.21460380774E+02  0.52820040926E+02  0.78835180430E+02  0.00000000000E+00 0.  1.
         11    1    1    2    0    0  0.28281437590E+02 -0.79677471878E+00  0.88954131713E+02  0.93345123659E+02  0.00000000000E+00 0. -1.
</event>
<event>
 7    1  0.2693725E-009  0.9500678E+02  0.7561462E-02  0.1291161E+00
          2   -1    0    0  501    0  0.00000000000E+00  0.00000000000E+00  0.24563801711E+03  0.24563801711E+03  0.00000000000E+00 0. -1.
         -2   -1    0    0    0  501 -0.00000000000E+00 -0.00000000000E+00 -0.57580442692E+02  0.57580442692E+02  0.00000000000E+00 0.  1.
         25    2    1    2    0    0 -0.27484458742E+02 -0.34419392077E+02  0.11726239590E+03  0.17702377851E+03  0.12508740401E+03 0.  0.
          5    1    3    3  502    0 -0.65287078666E+02  0.63589127527E+01  0.98054259836E+02  0.11804638361E+03  0.41800000000E+01 0.  1.
         -5    1    3    3    0  502  0.37802619925E+02 -0.40778304830E+02  0.19208136069E+02  0.58977394900E+02  0.41800000000E+01 0.  1.
        -11    1    1    2    0    0  0.97151426119E+01  0.46195102524E+02 -0.49898849521E+01  0.47468625901E+02  0.00000000000E+00 0.  1.
         11    1    1    2    0    0  0.17769316130E+02 -0.11775710446E+02  0.75785063465E+02  0.78726055386E+02  0.00000000000E+00 0. -1.
</event>
<event>
 7    1  0.2693725E-009  0.1122100E+03  0.7561462E-02  0.1256531E+00
         -2   -1    0    0    0  501 -0.00000000000E+00  0.00000000000E+00  0.25535150703E+02  0.25535150703E+02  0.00000000000E+00 0.  1.
          2   -1    0    0  501    0  0.00000000000E+00 -0.00000000000E+00 -0.49985802667E+03  0.49985802667E+03  0.00000000000E+00 0. -1.
         25    2    1    2    0    0 -0.20234918170E+02 -0.10615878120E+02 -0.24741443289E+03  0.27817912519E+03  0.12509026864E+03 0.  0.
          5    1    3    3  502    0 -0.39790143844E+02  0.49276712064E+02 -0.11117923523E+03  0.12802243805E+03  0.41800000000E+01 0.  1.
         -5    1    3    3    0  502  0.19555225674E+02 -0.59892590184E+02 -0.13623519766E+03  0.15015668714E+03  0.41800000000E+01 0.  1.
        -11    1    1    2    0    0 -0.25122932932E+01 -0.41167528279E+02 -0.86017638589E+02  0.95394502728E+02  0.00000000000E+00 0. -1.
         11    1    1    2    0    0  0.22747211464E+02  0.51783406399E+02 -0.14089080449E+03  0.15181954946E+03  0.00000000000E+00 0.  1.
</event>
<event>
 7    1  0.3886983E-009  0.9622202E+02  0.7561462E-02  0.1288447E+00
         -2   -1    0    0    0  501 -0.00000000000E+00  0.00000000000E+00  0.13680867872E+03  0.13680867872E+03  0.00000000000E+00 0.  1.
          2   -1    0    0  501    0  0.00000000000E+00 -0.00000000000E+00 -0.10769884666E+03  0.10769884666E+03  0.00000000000E+00 0. -1.
         25    2    1    2    0    0  0.23640818745E+02  0.44011428852E+02 -0.46002468329E+01  0.13477859867E+03  0.12509282236E+03 0.  0.
          5    1    3    3  502    0 -0.11361067267E+02  0.55602186686E+02 -0.50273495239E+02  0.75931375183E+02  0.41800000000E+01 0.  1.
         -5    1    3    3    0  502  0.35001886012E+02 -0.11590757834E+02  0.45673248406E+02  0.58847223482E+02  0.41800000000E+01 0.  1.
        -11    1    1    2    0    0  0.13665076674E+02 -0.57241214980E+02  0.37787768649E+02  0.69937160882E+02  0.00000000000E+00 0.  1.
         11    1    1    2    0    0 -0.37305895419E+02  0.13229786128E+02 -0.40776897544E+01  0.39791765828E+02  0.00000000000E+00 0. -1.
</event>
<event>
 7    1  0.2693725E-009  0.1102948E+03  0.7561462E-02  0.1260025E+00
          1   -1    0    0  501    0  0.00000000000E+00  0.00000000000E+00  0.29124511808E+03  0.29124511808E+03  0.00000000000E+00 0. -1.
         -1   -1    0    0    0  501 -0.00000000000E+00 -0.00000000000E+00 -0.50278408279E+02  0.50278408279E+02  0.00000000000E+00 0.  1.
         25    2    1    2    0    0 -0.12960869673E+02 -0.48899592819E+02  0.15357443881E+03  0.20443681539E+03  0.12510055519E+03 0.  0.
          5    1    3    3  502    0  0.24653498800E+02 -0.74054307446E+02  0.54054643309E+02  0.95032690784E+02  0.41800000000E+01 0. -1.
         -5    1    3    3    0  502 -0.37614368474E+02  0.25154714627E+02  0.99519795501E+02  0.10940412460E+03  0.41800000000E+01 0. -1.
        -11    1    1    2    0    0  0.47851436403E+02  0.20760924302E+02  0.19405804205E+02  0.55653941285E+02  0.00000000000E+00 0.  1.
         11    1    1    2    0    0 -0.34890566729E+02  0.28138668517E+02  0.67986466782E+02  0.81432769682E+02  0.00000000000E+00 0. -1.
</event>
<event>
 7    1  0.2693725E-009  0.1585875E+03  0.7561462E-02  0.1190301E+00
          1   -1    0    0  501    0  0.00000000000E+00  0.00000000000E+00  0.10419706548E+03  0.10419706548E+03  0.00000000000E+00 0. -1.
         -1   -1    0    0    0  501 -0.00000000000E+00 -0.00000000000E+00 -0.31768732467E+03  0.31768732467E+03  0.00000000000E+00 0.  1.
         25    2    1    2    0    0 -0.13766648668E+03 -0.46248347606E+02 -0.12760870119E+03  0.23026583737E+03  0.12508958402E+03 0.  0.
          5    1    3    3  502    0 -0.13640206796E+03 -0.14816067408E+02 -0.14012096976E+03  0.19615401746E+03  0.41800000000E+01 0.  1.
         -5    1    3    3    0  502 -0.12644187158E+01 -0.31432280198E+02  0.12512268572E+02  0.34111819915E+02  0.41800000000E+01 0.  1.
        -11    1    1    2    0    0  0.45594858448E+02  0.10538835997E+01 -0.75926215209E+02  0.88570830094E+02  0.00000000000E+00 0.  1.
         11    1    1    2    0    0  0.92071628228E+02  0.45194464006E+02 -0.99553427847E+01  0.10304772269E+03  0.00000000000E+00 0. -1.
</event>
<event>
 7    1  0.2693725E-009  0.1102359E+03  0.7561462E-02  0.1260134E+00
          3   -1    0    0  501    0  0.00000000000E+00  0.00000000000E+00  0.89599727091E+02  0.89599727091E+02  0.00000000000E+00 0. -1.
         -3   -1    0    0    0  501 -0.00000000000E+00 -0.00000000000E+00 -0.15190024833E+03  0.15190024833E+03  0.00000000000E+00 0.  1.
         25    2    1    2    0    0 -0.25853176877E+02 -0.37527264963E+01 -0.18172089910E+01  0.12780261249E+03  0.12509091014E+03 0.  0.
          5    1    3    3  502    0  0.14100209832E+02  0.54818171666E+02 -0.20276524561E-01  0.56756679547E+02  0.41800000000E+01 0. -1.
         -5    1    3    3    0  502 -0.39953386709E+02 -0.58570898162E+02 -0.17969324664E+01  0.71045932940E+02  0.41800000000E+01 0. -1.
        -11    1    1    2    0    0 -0.72061668361E+01  0.41726319251E+02 -0.12509595787E+02  0.44153194057E+02  0.00000000000E+00 0. -1.
         11    1    1    2    0    0  0.33059343713E+02 -0.37973592754E+02 -0.47973716458E+02  0.69544168873E+02  0.00000000000E+00 0.  1.
</event>
<event>
 7    1  0.2693725E-009  0.1922846E+03  0.7561462E-02  0.1156417E+00
          1   -1    0    0  501    0  0.00000000000E+00  0.00000000000E+00  0.17665378034E+03  0.17665378034E+03  0.00000000000E+00 0. -1.
         -1   -1    0    0    0  501 -0.00000000000E+00 -0.00000000000E+00 -0.25938077388E+03  0.25938077388E+03  0.00000000000E+00 0.  1.
         25    2    1    2    0    0  0.13819552951E+03 -0.10015740169E+03 -0.11173669318E+03  0.23929500773E+03  0.12508997815E+03 0.  0.
          5    1    3    3  502    0 -0.30961262070E+01 -0.53224635549E+02 -0.62878853570E+02  0.82544960192E+02  0.41800000000E+01 0.  1.
         -5    1    3    3    0  502  0.14129165572E+03 -0.46932766136E+02 -0.48857839606E+02  0.15675004754E+03  0.41800000000E+01 0.  1.
        -11    1    1    2    0    0 -0.35659924133E+02  0.64297884998E+02 -0.21983389199E+02  0.76740586427E+02  0.00000000000E+00 0.  1.
         11    1    1    2    0    0 -0.10253560538E+03  0.35859516687E+02  0.50993088834E+02  0.11999896006E+03  0.00000000000E+00 0. -1.
</event>
<event>
 7    1  0.2693725E-009  0.9236968E+02  0.7561462E-02  0.1297213E+00
         -1   -1    0    0    0  501 -0.00000000000E+00  0.00000000000E+00  0.52170124539E+02  0.52170124539E+02  0.00000000000E+00 0.  1.
          1   -1    0    0  501    0  0.00000000000E+00 -0.00000000000E+00 -0.24980138452E+03  0.24980138452E+03  0.00000000000E+00 0. -1.
         25    2    1    2    0    0 -0.13025338054E+02 -0.35846873139E+02 -0.14080630283E+03  0.19216743444E+03  0.12508896913E+03 0.  0.
          5    1    3    3  502    0 -0.33899693960E+02  0.13760719881E+02  0.45561680080E+01  0.37104955588E+02  0.41800000000E+01 0. -1.
         -5    1    3    3    0  502  0.20874355907E+02 -0.49607593021E+02 -0.14536247084E+03  0.15506247885E+03  0.41800000000E+01 0. -1.
        -11    1    1    2    0    0 -0.14003250655E+02  0.57574866815E+02 -0.34641254017E+02  0.68636526701E+02  0.00000000000E+00 0.  1.
         11    1    1    2    0    0  0.27028588708E+02 -0.21727993676E+02 -0.22183703131E+02  0.41167547915E+02  0.00000000000E+00 0. -1.
</event>
<event>
 7    1  0.2693725E-009  0.1010821E+03  0.7561462E-02  0.1278037E+00
          1   -1    0    0  501    0  0.00000000000E+00  0.00000000000E+00  0.36223591460E+02  0.36223591460E+02  0.00000000000E+00 0. -1.
         -1   -1    0    0    0  501 -0.00000000000E+00 -0.00000000000E+00 -0.36056043347E+03  0.36056043347E+03  0.00000000000E+00 0.  1.
         25    2    1    2    0    0 -0.50934091665E+00  0.11074790229E+02 -0.24608942208E+03  0.27627935555E+03  0.12508944095E+03 0.  0.
          5    1    3    3  502    0 -0.29035649580E+02 -0.46420996898E+02 -0.15753412783E+03  0.16683060789E+03  0.41800000000E+01 0.  1.
         -5    1    3    3    0  502  0.28526308663E+02  0.57495787126E+02 -0.88555294247E+02  0.10944874765E+03  0.41800000000E+01 0.  1.
        -11    1    1    2    0    0  0.50316911924E+01  0.35642507150E+02 -0.94394155867E+01  0.37213019211E+02  0.00000000000E+00 0.  1.
         11    1    1    2    0    0 -0.45223502757E+01 -0.46717297379E+02 -0.68808004345E+02  0.83291650172E+02  0.00000000000E+00 0. -1.
</event>
<event>
 7    1  0.2693725E-009  0.1907811E+03  0.7561462E-02  0.1157759E+00
         -2   -1    0    0    0  501 -0.00000000000E+00  0.00000000000E+00  0.30744056252E+03  0.30744056252E+03  0.00000000000E+00 0.  1.
          2   -1    0    0  501    0  0.00000000000E+00 -0.00000000000E+00 -0.18671619858E+03  0.18671619858E+03  0.00000000000E+00 0. -1.
         25    2    1    2    0    0  0.15775527296E+03 -0.86149190956E+02  0.18308162647E+03  0.28543715851E+03  0.12508828984E+03 0.  0.
          5    1    3    3  502    0  0.14440201872E+02 -0.23263950992E+02  0.10857399306E+03  0.11205139541E+03  0.41800000000E+01 0.  1.
         -5    1    3    3    0  502  0.14331507109E+03 -0.62885239963E+02  0.74507633415E+02  0.17338576309E+03  0.41800000000E+01 0.  1.
        -11    1    1    2    0    0 -0.16603552405E+03  0.72140914105E+02 -0.48677484132E+02  0.18746094046E+03  0.00000000000E+00 0.  1.
         11    1    1    2    0    0  0.82802510908E+01  0.14008276851E+02 -0.13679778404E+02  0.21258662132E+02  0.00000000000E+00 0. -1.
</event>
<event>
 7    1  0.2693725E-009  0.1102938E+03  0.7561462E-02  0.1260027E+00
         -1   -1    0    0    0  501 -0.00000000000E+00  0.00000000000E+00  0.42011240381E+02  0.42011240381E+02  0.00000000000E+00 0.  1.
          1   -1    0    0  501    0  0.00000000000E+00 -0.00000000000E+00 -0.53983684651E+03  0.53983684651E+03  0.00000000000E+00 0. -1.
         25    2    1    2    0    0  0.62677791465E+02  0.10489697652E+02 -0.42631591898E+03  0.44881362595E+03  0.12509943550E+03 0.  0.
          5    1    3    3  502    0  0.33122944435E+02 -0.47440766858E+02 -0.31094028697E+03  0.31630537502E+03  0.41800000000E+01 0. -1.
         -5    1    3    3    0  502  0.29554847029E+02  0.57930464510E+02 -0.11537563201E+03  0.13250825092E+03  0.41800000000E+01 0. -1.
        -11    1    1    2    0    0 -0.27192940286E+02  0.32037136217E+02  0.70198612765E+00  0.42027691858E+02  0.00000000000E+00 0.  1.
         11    1    1    2    0    0 -0.35484851179E+02 -0.42526833869E+02 -0.72211673283E+02  0.91006769091E+02  0.00000000000E+00 0. -1.
</event>
<event>
 7    1  0.2693725E-009  0.7529470E+02  0.7561462E-02  0.1342961E+00
         -1   -1    0    0    0  501 -0.00000000000E+00  0.00000000000E+00  0.67767128534E+02  0.67767128534E+02  0.00000000000E+00 0.  1.
          1   -1    0    0  501    0  0.00000000000E+00 -0.00000000000E+00 -0.25562618403E+03  0.25562618403E+03  0.00000000000E+00 0. -1.
         25    2    1    2    0    0 -0.32083856996E+02  0.55477661739E+02 -0.14379812197E+03  0.20107895383E+03  0.12509077088E+03 0.  0.
          5    1    3    3  502    0 -0.20384787438E+02  0.17939064374E+02  0.19093282312E+02  0.33457068296E+02  0.41800000000E+01 0.  1.
         -5    1    3    3    0  502 -0.11699069558E+02  0.37538597364E+02 -0.16289140429E+03  0.16762188554E+03  0.41800000000E+01 0.  1.
        -11    1    1    2    0    0  0.20554342840E+02 -0.65281063263E+02 -0.66382975346E+02  0.95345674501E+02  0.00000000000E+00 0. -1.
         11    1    1    2    0    0  0.11529514156E+02  0.98034015240E+01  0.22322041822E+02  0.26968684232E+02  0.00000000000E+00 0.  1.
</event>
<event>
 7    1  0.2693725E-009  0.1041360E+03  0.7561462E-02  0.1271831E+00
          2   -1    0    0  501    0  0.00000000000E+00  0.00000000000E+00  0.59460839399E+03  0.59460839399E+03  0.00000000000E+00 0. -1.
         -2   -1    0    0    0  501 -0.00000000000E+00 -0.00000000000E+00 -0.23751990516E+02  0.23751990516E+02  0.00000000000E+00 0.  1.
         25    2    1    2    0    0  0.48698617843E+02  0.58607277519E+01  0.34513890049E+03  0.37037085605E+03  0.12509119423E+03 0.  0.
          5    1    3    3  502    0  0.74854284317E+02 -0.90828843160E+01  0.11093267212E+03  0.13419833386E+03  0.41800000000E+01 0.  1.
         -5    1    3    3    0  502 -0.26155666473E+02  0.14943612068E+02  0.23420622837E+03  0.23617252219E+03  0.41800000000E+01 0.  1.
        -11    1    1    2    0    0  0.92205859318E+01 -0.35920832018E+02  0.92194472058E+02  0.99373769456E+02  0.00000000000E+00 0. -1.
         11    1    1    2    0    0 -0.57919203775E+02  0.30060104266E+02  0.13352303093E+03  0.14861575900E+03  0.00000000000E+00 0.  1.
</event>
<event>
 7    1  0.2693725E-009  0.8981091E+02  0.7561462E-02  0.1303310E+00
          2   -1    0    0  501    0  0.00000000000E+00  0.00000000000E+00  0.34319036727E+03  0.34319036727E+03  0.00000000000E+00 0. -1.
         -2   -1    0    0    0  501 -0.00000000000E+00 -0.00000000000E+00 -0.35948604373E+02  0.35948604373E+02  0.00000000000E+00 0.  1.
         25    2    1    2    0    0 -0.22786176402E+01  0.16518997501E+02  0.21607976033E+03  0.25023484441E+03  0.12509574396E+03 0.  0.
          5    1    3    3  502    0 -0.43213541181E+02  0.28112831349E+02  0.31041316255E+02  0.60322277334E+02  0.41800000000E+01 0. -1.
         -5    1    3    3    0  502  0.40934923541E+02 -0.11593833847E+02  0.18503844407E+03  0.18991256708E+03  0.41800000000E+01 0. -1.
        -11    1    1    2    0    0 -0.40410323954E+02 -0.12360285180E+02  0.68259173309E+02  0.80281290925E+02  0.00000000000E+00 0.  1.
         11    1    1    2    0    0  0.42688941594E+02 -0.41587123213E+01  0.22902829262E+02  0.48622836310E+02  0.00000000000E+00 0. -1.
</event>
<event>
 7    1  0.2693725E-009  0.2739460E+03  0.7561462E-02  0.1099042E+00
         -1   -1    0    0    0  501 -0.00000000000E+00  0.00000000000E+00  0.63041347675E+02  0.63041347675E+02  0.00000000000E+00 0.  1.
          1   -1    0    0  501    0  0.00000000000E+00 -0.00000000000E+00 -0.13017204803E+04  0.13017204803E+04  0.00000000000E+00 0. -1.
         25    2    1    2    0    0 -0.23842313449E+03 -0.11343656110E+03 -0.58254980970E+03  0.65170929340E+03  0.12508907973E+03 0.  0.
          5    1    3    3  502    0 -0.97773803400E+01 -0.35384280692E+02 -0.26628067595E+02  0.45543066105E+02  0.41800000000E+01 0.  1.
         -5    1    3    3    0  502 -0.22864575415E+03 -0.78052280405E+02 -0.55592174210E+03  0.60616622729E+03  0.41800000000E+01 0.  1.
        -11    1    1    2    0    0  0.90330854053E+02  0.15215499448E+02 -0.14109344390E+03  0.16822168269E+03  0.00000000000E+00 0.  1.
         11    1    1    2    0    0  0.14809228043E+03  0.98221061649E+02 -0.51503587899E+03  0.54483085185E+03  0.00000000000E+00 0. -1.
</event>
<event>
 7    1  0.2693725E-009  0.1065413E+03  0.7561462E-02  0.1267112E+00
          2   -1    0    0  501    0  0.00000000000E+00  0.00000000000E+00  0.14009990380E+03  0.14009990380E+03  0.00000000000E+00 0. -1.
         -2   -1    0    0    0  501 -0.00000000000E+00 -0.00000000000E+00 -0.15511118919E+03  0.15511118919E+03  0.00000000000E+00 0.  1.
         25    2    1    2    0    0 -0.41106462121E+02 -0.12134638351E+02 -0.98354823449E+02  0.16479852598E+03  0.12509153526E+03 0.  0.
          5    1    3    3  502    0 -0.47226203335E+02 -0.63619651691E+02 -0.50029163940E+02  0.93798528811E+02  0.41800000000E+01 0.  1.
         -5    1    3    3    0  502  0.61197412132E+01  0.51485013339E+02 -0.48325659509E+02  0.70999997170E+02  0.41800000000E+01 0.  1.
        -11    1    1    2    0    0 -0.86854400342E+00  0.34262786385E+02 -0.26810072979E+00  0.34274841758E+02  0.00000000000E+00 0.  1.
         11    1    1    2    0    0  0.41975006125E+02 -0.22128148033E+02  0.83611638796E+02  0.96137725253E+02  0.00000000000E+00 0. -1.
</event>
<event>
 7    1  0.2693725E-009  0.1475501E+03  0.7561462E-02  0.1203516E+00
          1   -1    0    0  501    0  0.00000000000E+00  0.00000000000E+00  0.65570744232E+03  0.65570744232E+03  0.00000000000E+00 0. -1.
         -1   -1    0    0    0  501 -0.00000000000E+00 -0.00000000000E+00 -0.67774875718E+02  0.67774875718E+02  0.00000000000E+00 0.  1.
         25    2    1    2    0    0  0.97018344349E+02  0.90414276428E+02  0.50174576737E+03  0.53383849685E+03  0.12508966834E+03 0.  0.
          5    1    3    3  502    0  0.93466894921E+02  0.46407805255E+02  0.17273845293E+03  0.20185586530E+03  0.41800000000E+01 0.  1.
         -5    1    3    3    0  502  0.35514494286E+01  0.44006471173E+02  0.32900731444E+03  0.33198263155E+03  0.41800000000E+01 0.  1.
        -11    1    1    2    0    0  0.39650644331E+01 -0.26522963069E+02 -0.17006828386E+02  0.31755653319E+02  0.00000000000E+00 0.  1.
         11    1    1    2    0    0 -0.10098340878E+03 -0.63891313359E+02  0.10319362762E+03  0.15788816787E+03  0.00000000000E+00 0. -1.
</event>
<event>
 7    1  0.2693725E-009  0.9923887E+02  0.7561462E-02  0.1281905E+00
         -2   -1    0    0    0  501 -0.00000000000E+00  0.00000000000E+00  0.27051565005E+03  0.27051565005E+03  0.00000000000E+00 0.  1.
          2   -1    0    0  501    0  0.00000000000E+00 -0.00000000000E+00 -0.16890651240E+03  0.16890651240E+03  0.00000000000E+00 0. -1.
         25    2    1    2    0    0 -0.54742178733E+02  0.54575572621E+02  0.22436310815E+03  0.26825636278E+03  0.12508985817E+03 0.  0.
          5    1    3    3  502    0 -0.46641047221E+02  0.10480659767E+02  0.97453808723E+01  0.48966073596E+02  0.41800000000E+01 0. -1.
         -5    1    3    3    0  502 -0.81011315121E+01  0.44094912854E+02  0.21461772727E+03  0.21929028919E+03  0.41800000000E+01 0. -1.
        -11    1    1    2    0    0  0.18678103156E+02  0.17038241403E+02 -0.71903888687E+02  0.76219042344E+02  0.00000000000E+00 0. -1.
         11    1    1    2    0    0  0.36064075577E+02 -0.71613814025E+02 -0.50850081815E+02  0.94946757327E+02  0.00000000000E+00 0.  1.
</event>
<event>
 7    1  0.2693725E-009  0.9573176E+02  0.7561462E-02  0.1289536E+00
         -2   -1    0    0    0  501 -0.00000000000E+00  0.00000000000E+00  0.10268105649E+02  0.10268105649E+02  0.00000000000E+00 0.  1.
          2   -1    0    0  501    0  0.00000000000E+00 -0.00000000000E+00 -0.14544571031E+04  0.14544571031E+04  0.00000000000E+00 0. -1.
         25    2    1    2    0    0  0.69268871102E+00 -0.53087005111E+01 -0.11485041970E+04  0.11553095921E+04  0.12509876485E+03 0.  0.
          5    1    3    3  502    0  0.39935070883E+02 -0.43438344057E+02 -0.35362361407E+03  0.35853707263E+03  0.41800000000E+01 0.  1.
         -5    1    3    3    0  502 -0.39242382172E+02  0.38129643546E+02 -0.79488058296E+03  0.79677251950E+03  0.41800000000E+01 0.  1.
        -11    1    1    2    0    0 -0.10304316429E+02  0.40067403844E+02 -0.23663570959E+03  0.24022496715E+03  0.00000000000E+00 0. -1.
         11    1    1    2    0    0  0.96116277177E+01 -0.34758703333E+02 -0.59049090793E+02  0.69190649428E+02  0.00000000000E+00 0.  1.
</event>
<event>
 7    1  0.2693725E-009  0.1664294E+03  0.7561462E-02  0.1181623E+00
         -2   -1    0    0    0  501 -0.00000000000E+00  0.00000000000E+00  0.49334464600E+02  0.49334464600E+02  0.00000000000E+00 0.  1.
          2   -1    0    0  501    0  0.00000000000E+00 -0.00000000000E+00 -0.10536207290E+04  0.10536207290E+04  0.00000000000E+00 0. -1.
         25    2    1    2    0    0 -0.58341409237E+02 -0.13242365611E+03 -0.18791962134E+03  0.26814501455E+03  0.12509284558E+03 0.  0.
          5    1    3    3  502    0 -0.10210051439E+02  0.10564032033E+02  0.10727268126E+02  0.18665224473E+02  0.41800000000E+01 0. -1.
         -5    1    3    3    0  502 -0.48131357798E+02 -0.14298768814E+03 -0.19864688947E+03  0.24947979008E+03  0.41800000000E+01 0. -1.
        -11    1    1    2    0    0 -0.16217157706E+02  0.62034374726E+02 -0.20159123821E+03  0.21154263678E+03  0.00000000000E+00 0.  1.
         11    1    1    2    0    0  0.74558566944E+02  0.70389281384E+02 -0.61477540480E+03  0.62326754222E+03  0.00000000000E+00 0. -1.
</event>
<event>
 7    1  0.2693725E-009  0.9768403E+02  0.7561462E-02  0.1285243E+00
         -2   -1    0    0    0  501 -0.00000000000E+00  0.00000000000E+00  0.21847310958E+03  0.21847310958E+03  0.00000000000E+00 0.  1.
          2   -1    0    0  501    0  0.00000000000E+00 -0.00000000000E+00 -0.79386200847E+02  0.79386200847E+02  0.00000000000E+00 0. -1.
         25    2    1    2    0    0 -0.12568344325E+02  0.69709511884E+02  0.45848966473E+02  0.15088649895E+03  0.12508888245E+03 0.  0.
          5    1    3    3  502    0 -0.20805514165E+02  0.87731385777E+02  0.73646524348E+02  0.11649441368E+03  0.41800000000E+01 0.  1.
         -5    1    3    3    0  502  0.82371698404E+01 -0.18021873893E+02 -0.27797557875E+02  0.34392085273E+02  0.41800000000E+01 0.  1.
        -11    1    1    2    0    0  0.30466270995E+02 -0.42731669371E+02  0.10087436618E+03  0.11370939709E+03  0.00000000000E+00 0.  1.
         11    1    1    2    0    0 -0.17897926671E+02 -0.26977842514E+02 -0.76364239209E+01  0.33263414379E+02  0.00000000000E+00 0. -1.
</event>
<event>
 7    1  0.2693725E-009  0.9996383E+02  0.7561462E-02  0.1280372E+00
         -1   -1    0    0    0  501 -0.00000000000E+00  0.00000000000E+00  0.75600809080E+02  0.75600809080E+02  0.00000000000E+00 0.  1.
          1   -1    0    0  501    0  0.00000000000E+00 -0.00000000000E+00 -0.18205666624E+03  0.18205666624E+03  0.00000000000E+00 0. -1.
         25    2    1    2    0    0 -0.46623796723E+02  0.93606390079E+01 -0.72339473712E+02  0.15212219233E+03  0.12508701755E+03 0.  0.
          5    1    3    3  502    0  0.34704837813E+01  0.59395997773E+02 -0.16588287024E+02  0.61907773951E+02  0.41800000000E+01 0. -1.
         -5    1    3    3    0  502 -0.50094280504E+02 -0.50035358766E+02 -0.55751186688E+02  0.90214418377E+02  0.41800000000E+01 0. -1.
        -11    1    1    2    0    0  0.15086856733E+02  0.20816685845E+02  0.22418668588E+02  0.34110765997E+02  0.00000000000E+00 0.  1.
         11    1    1    2    0    0  0.31536939990E+02 -0.30177324852E+02 -0.56535052032E+02  0.71424516991E+02  0.00000000000E+00 0. -1.
</event>
<event>
 7    1  0.2693725E-009  0.6789365E+02  0.7561462E-02  0.1367406E+00
         -1   -1    0    0    0  501 -0.00000000000E+00  0.00000000000E+00  0.59084504485E+02  0.59084504485E+02  0.00000000000E+00 0.  1.
          1   -1    0    0  501    0  0.00000000000E+00 -0.00000000000E+00 -0.28090800427E+03  0.28090800427E+03  0.00000000000E+00 0. -1.
         25    2    1    2    0    0  0.25217748352E+02 -0.32517069642E+02 -0.51524588116E+02  0.14140190435E+03  0.12508565355E+03 0.  0.
          5    1    3    3  502    0 -0.19227489387E+02 -0.27488383379E+02  0.32008865798E+02  0.46554779116E+02  0.41800000000E+01 0. -1.
         -5    1    3    3    0  502  0.44445237739E+02 -0.50286862632E+01 -0.83533453914E+02  0.94847125238E+02  0.41800000000E+01 0. -1.
        -11    1    1    2    0    0 -0.15191901022E+02 -0.66828594424E+01  0.60456671893E+01  0.17663650776E+02  0.00000000000E+00 0.  1.
         11    1    1    2    0    0 -0.10025847331E+02  0.39199929084E+02 -0.17634457886E+03  0.18092695363E+03  0.00000000000E+00 0. -1.
</event>
<event>
 7    1  0.2693725E-009  0.1077036E+03  0.7561462E-02  0.1264883E+00
         -3   -1    0    0    0  501 -0.00000000000E+00  0.00000000000E+00  0.15498652370E+02  0.15498652370E+02  0.00000000000E+00 0.  1.
          3   -1    0    0  501    0  0.00000000000E+00 -0.00000000000E+00 -0.79751947343E+03  0.79751947343E+03  0.00000000000E+00 0. -1.
         25    2    1    2    0    0  0.91654852675E+01  0.19806589812E+01 -0.35587202004E+03  0.37733356985E+03  0.12509116337E+03 0.  0.
          5    1    3    3  502    0 -0.30280403213E+02  0.52564688565E+02 -0.18716929934E+03  0.19679880162E+03  0.41800000000E+01 0. -1.
         -5    1    3    3    0  502  0.39445888481E+02 -0.50584029584E+02 -0.16870272070E+03  0.18053476823E+03  0.41800000000E+01 0. -1.
        -11    1    1    2    0    0  0.39848603188E+02 -0.88667019378E+01 -0.21141540724E+03  0.21532070034E+03  0.00000000000E+00 0.  1.
         11    1    1    2    0    0 -0.49014088455E+02  0.68860429566E+01 -0.21473339378E+03  0.22036385561E+03  0.00000000000E+00 0. -1.
</event>
<event>
 7    1  0.2693725E-009  0.1965612E+03  0.7561462E-02  0.1152673E+00
          1   -1    0    0  501    0  0.00000000000E+00  0.00000000000E+00  0.32272749469E+03  0.32272749469E+03  0.00000000000E+00 0. -1.
         -1   -1    0    0    0  501 -0.00000000000E+00 -0.00000000000E+00 -0.16813153840E+03  0.16813153840E+03  0.00000000000E+00 0.  1.
         25    2    1    2    0    0 -0.10990161472E+03 -0.10778435060E+03 -0.50669022834E+02  0.20472313062E+03  0.12509348178E+03 0.  0.
          5    1    3    3  502    0 -0.12054893755E+02 -0.95894840950E+02 -0.74801372782E+01  0.97028685645E+02  0.41800000000E+01 0. -1.
         -5    1    3    3    0  502 -0.97846720965E+02 -0.11889509647E+02 -0.43188885556E+02  0.10769444498E+03  0.41800000000E+01 0. -1.
        -11    1    1    2    0    0  0.66188140835E+02  0.13206527402E+03  0.13665914419E+03  0.20124072222E+03  0.00000000000E+00 0. -1.
         11    1    1    2    0    0  0.43713473885E+02 -0.24280923426E+02  0.68605834937E+02  0.84895180245E+02  0.00000000000E+00 0.  1.
</event>
<event>
 7    1  0.2693725E-009  0.1174705E+03  0.7561462E-02  0.1247329E+00
         -3   -1    0    0    0  501 -0.00000000000E+00  0.00000000000E+00  0.19029573459E+03  0.19029573459E+03  0.00000000000E+00 0.  1.
          3   -1    0    0  501    0  0.00000000000E+00 -0.00000000000E+00 -0.10012677504E+03  0.10012677504E+03  0.00000000000E+00 0. -1.
         25    2    1    2    0    0  0.38575430935E+02 -0.60930862722E+02  0.97536866727E+02  0.17424533966E+03  0.12508942448E+03 0.  0.
          5    1    3    3  502    0 -0.24536723191E+02  0.26358028795E+02  0.29847877587E+02  0.46959180821E+02  0.41800000000E+01 0.  1.
         -5    1    3    3    0  502  0.63112154126E+02 -0.87288891516E+02  0.67688989140E+02  0.12728615884E+03  0.41800000000E+01 0.  1.
        -11    1    1    2    0    0  0.13860092676E+02  0.20190287998E+02 -0.36264932445E+02  0.43759515807E+02  0.00000000000E+00 0. -1.
         11    1    1    2    0    0 -0.52435523611E+02  0.40740574724E+02  0.28897025274E+02  0.72417654166E+02  0.00000000000E+00 0.  1.
</event>
<event>
 7    1  0.2693725E-009  0.9044648E+02  0.7561462E-02  0.1301774E+00
          1   -1    0    0  501    0  0.00000000000E+00  0.00000000000E+00  0.48346006140E+03  0.48346006140E+03  0.00000000000E+00 0. -1.
         -1   -1    0    0    0  501 -0.00000000000E+00 -0.00000000000E+00 -0.30542580029E+02  0.30542580029E+02  0.00000000000E+00 0.  1.
         25    2    1    2    0    0  0.24857222338E+02  0.39539583033E+02  0.31504692512E+03  0.34217494687E+03  0.12509144301E+03 0.  0.
          5    1    3    3  502    0  0.10538637943E+02  0.73122307035E+02  0.28576115543E+03  0.29518611930E+03  0.41800000000E+01 0.  1.
         -5    1    3    3    0  502  0.14318584395E+02 -0.33582724002E+02  0.29285769685E+02  0.46988827572E+02  0.41800000000E+01 0.  1.
        -11    1    1    2    0    0  0.12245507941E+02 -0.29154671526E+02  0.12828448586E+03  0.13212439839E+03  0.00000000000E+00 0. -1.
         11    1    1    2    0    0 -0.37102730279E+02 -0.10384911507E+02  0.95860703973E+01  0.39703296171E+02  0.00000000000E+00 0.  1.
</event>
<event>
 7    1  0.2693725E-009  0.1029873E+03  0.7561462E-02  0.1274137E+00
          1   -1    0    0  501    0  0.00000000000E+00  0.00000000000E+00  0.46694746404E+03  0.46694746404E+03  0.00000000000E+00 0. -1.
         -1   -1    0    0    0  501 -0.00000000000E+00 -0.00000000000E+00 -0.37026218668E+02  0.37026218668E+02  0.00000000000E+00 0.  1.
         25    2    1    2    0    0  0.11208504912E+02  0.63656562938E+02  0.30972395136E+03  0.34022527513E+03  0.12508606319E+03 0.  0.
          5    1    3    3  502    0 -0.35655435228E+02 -0.32246428279E+01  0.24680274211E+02  0.43684055647E+02  0.41800000000E+01 0. -1.
         -5    1    3    3    0  502  0.46863940140E+02  0.66881205766E+02  0.28504367715E+03  0.29654121949E+03  0.41800000000E+01 0. -1.
        -11    1    1    2    0    0 -0.32165166289E+02 -0.15637689062E+02  0.36308380071E+01  0.35948827884E+02  0.00000000000E+00 0.  1.
         11    1    1    2    0    0  0.20956661377E+02 -0.48018873876E+02  0.11656645600E+03  0.12779957969E+03  0.00000000000E+00 0. -1.
</event>
<event>
 7    1  0.3585108E-009  0.1164316E+03  0.7561462E-02  0.1249103E+00
          1   -1    0    0  501    0  0.00000000000E+00  0.00000000000E+00  0.16158603565E+03  0.16158603565E+03  0.00000000000E+00 0. -1.
         -1   -1    0    0    0  501 -0.00000000000E+00 -0.00000000000E+00 -0.11158440992E+03  0.11158440992E+03  0.00000000000E+00 0.  1.
         25    2    1    2    0    0  0.63766927947E+02  0.40878386813E+02  0.69367694478E+01  0.14640257730E+03  0.12509329423E+03 0.  0.
          5    1    3    3  502    0  0.58614312420E+02  0.83897575055E+02  0.71654301746E+00  0.10243254636E+03  0.41800000000E+01 0. -1.
         -5    1    3    3    0  502  0.51526155268E+01 -0.43019188242E+02  0.62202264304E+01  0.43970030937E+02  0.41800000000E+01 0. -1.
        -11    1    1    2    0    0 -0.36723078959E+02 -0.46531484295E+02 -0.16138934142E+02  0.61434752007E+02  0.00000000000E+00 0.  1.
         11    1    1    2    0    0 -0.27043848988E+02  0.56530974817E+01  0.59203790426E+02  0.65333116258E+02  0.00000000000E+00 0. -1.
</event>
<event>
 7    1  0.2693725E-009  0.1201995E+03  0.7561462E-02  0.1242768E+00
          2   -1    0    0  501    0  0.00000000000E+00  0.00000000000E+00  0.36903952976E+03  0.36903952976E+03  0.00000000000E+00 0.  1.
         -2   -1    0    0    0  501 -0.00000000000E+00 -0.00000000000E+00 -0.57278500812E+02  0.57278500812E+02  0.00000000000E+00 0. -1.
         25    2    1    2    0    0 -0.63111317572E+02  0.70485324350E+02  0.19244942673E+03  0.24826549624E+03  0.12509098856E+03 0.  0.
          5    1    3    3  502    0 -0.20377073527E+01 -0.15185152442E+02  0.11859174413E+03  0.11965038772E+03  0.41800000000E+01 0. -1.
         -5    1    3    3    0  502 -0.61073610220E+02  0.85670476792E+02  0.73857682600E+02  0.12861510851E+03  0.41800000000E+01 0. -1.
        -11    1    1    2    0    0 -0.16397564181E+02 -0.15411840991E+02  0.61227111455E+02  0.65231619105E+02  0.00000000000E+00 0.  1.
         11    1    1    2    0    0  0.79508881754E+02 -0.55073483358E+02  0.58084490762E+02  0.11282091523E+03  0.00000000000E+00 0. -1.
</event>
<event>
 7    1  0.2693725E-009  0.1102027E+03  0.7561462E-02  0.1260195E+00
          4   -1    0    0  501    0  0.00000000000E+00  0.00000000000E+00  0.19265009370E+03  0.19265009370E+03  0.00000000000E+00 0.  1.
         -4   -1    0    0    0  501 -0.00000000000E+00 -0.00000000000E+00 -0.75408859854E+02  0.75408859854E+02  0.00000000000E+00 0. -1.
         25    2    1    2    0    0 -0.17370791736E+02 -0.30530401788E+01  0.13493870105E+02  0.12704590116E+03  0.12509001164E+03 0.  0.
          5    1    3    3  502    0  0.52593018242E+02 -0.12468389073E+02  0.15215078180E+02  0.56306813956E+02  0.41800000000E+01 0.  1.
         -5    1    3    3    0  502 -0.69963809977E+02  0.94153488945E+01 -0.17212080758E+01  0.70739087205E+02  0.41800000000E+01 0.  1.
        -11    1    1    2    0    0 -0.14504608794E+02  0.42414231926E+02  0.50468967873E+02  0.67501610828E+02  0.00000000000E+00 0.  1.
         11    1    1    2    0    0  0.31875400530E+02 -0.39361191747E+02  0.53278395873E+02  0.73511441569E+02  0.00000000000E+00 0. -1.
</event>
<event>
 7    1  0.2693725E-009  0.9725430E+02  0.7561462E-02  0.1286178E+00
          1   -1    0    0  501    0  0.00000000000E+00  0.00000000000E+00  0.62213035958E+02  0.62213035958E+02  0.00000000000E+00 0. -1.
         -1   -1    0    0    0  501 -0.00000000000E+00 -0.00000000000E+00 -0.23375010007E+03  0.23375010007E+03  0.00000000000E+00 0.  1.
         25    2    1    2    0    0  0.36755164269E+02 -0.30921304361E+02 -0.67458800575E+02  0.15002022641E+03  0.12509320282E+03 0.  0.
          5    1    3    3  502    0 -0.26871665610E+02 -0.21221030412E+02  0.21120637965E+02  0.40447154319E+02  0.41800000000E+01 0.  1.
         -5    1    3    3    0  502  0.63626829879E+02 -0.97002739490E+01 -0.88579438540E+02  0.10957307209E+03  0.41800000000E+01 0.  1.
        -11    1    1    2    0    0 -0.63525122495E+02  0.19935756609E+02 -0.94226354421E+02  0.11537539359E+03  0.00000000000E+00 0.  1.
         11    1    1    2    0    0  0.26769958227E+02  0.10985547752E+02 -0.98519091189E+01  0.30567516029E+02  0.00000000000E+00 0. -1.
</event>
<event>
 7    1  0.2693725E-009  0.9674901E+02  0.7561462E-02  0.1287285E+00
         -3   -1    0    0    0  501 -0.00000000000E+00  0.00000000000E+00  0.18662190921E+03  0.18662190921E+03  0.00000000000E+00 0.  1.
          3   -1    0    0  501    0  0.00000000000E+00 -0.00000000000E+00 -0.67310345752E+02  0.67310345752E+02  0.00000000000E+00 0. -1.
         25    2    1    2    0    0 -0.12499826619E+02  0.43404415018E+02  0.67247206743E+02  0.14903098880E+03  0.12509140618E+03 0.  0.
          5    1    3    3  502    0 -0.55082738290E+02 -0.17761007919E+02  0.34593872992E+02  0.67555680060E+02  0.41800000000E+01 0. -1.
         -5    1    3    3    0  502  0.42582911671E+02  0.61165422937E+02  0.32653333751E+02  0.81475308742E+02  0.41800000000E+01 0. -1.
        -11    1    1    2    0    0 -0.61567375733E+01 -0.41632873598E+02 -0.72421871745E+01  0.42704225279E+02  0.00000000000E+00 0. -1.
         11    1    1    2    0    0  0.18656564192E+02 -0.17715414201E+01  0.59306543890E+02  0.62197040883E+02  0.00000000000E+00 0.  1.
</event>
<event>
 7    1  0.2693725E-009  0.1047143E+03  0.7561462E-02  0.1270684E+00
         -2   -1    0    0    0  501 -0.00000000000E+00  0.00000000000E+00  0.42250089124E+02  0.42250089124E+02  0.00000000000E+00 0.  1.
          2   -1    0    0  501    0  0.00000000000E+00 -0.00000000000E+00 -0.33976913780E+03  0.33976913780E+03  0.00000000000E+00 0. -1.
         25    2    1    2    0    0 -0.26048637328E+01 -0.47588688758E+02 -0.14872538720E+03  0.20009499945E+03  0.12508916577E+03 0.  0.
          5    1    3    3  502    0  0.57314926211E+02 -0.35517475643E+01 -0.48855189678E+02  0.75511043139E+02  0.41800000000E+01 0. -1.
         -5    1    3    3    0  502 -0.59919789944E+02 -0.44036941194E+02 -0.99870197520E+02  0.12458395631E+03  0.41800000000E+01 0. -1.
        -11    1    1    2    0    0  0.28332966534E+02  0.42606065709E+02 -0.28012897792E+02  0.58333148985E+02  0.00000000000E+00 0.  1.
         11    1    1    2    0    0 -0.25728102801E+02  0.49826230492E+01 -0.12078076369E+03  0.12359107849E+03  0.00000000000E+00 0. -1.
</event>
<event>
 7    1  0.2693725E-009  0.2929984E+03  0.7561462E-02  0.1088794E+00
          1   -1    0    0  501    0  0.00000000000E+00  0.00000000000E+00  0.93499776487E+03  0.93499776487E+03  0.00000000000E+00 0. -1.
         -1   -1    0    0    0  501 -0.00000000000E+00 -0.00000000000E+00 -0.11726072278E+03  0.11726072278E+03  0.00000000000E+00 0.  1.
         25    2    1    2    0    0 -0.66150340111E+02 -0.26411987720E+03  0.17224896469E+03  0.34562182349E+03  0.12509820944E+03 0.  0.
          5    1    3    3  502    0 -0.82569776758E+02 -0.26851374102E+03  0.15423606862E+03  0.32050527985E+03  0.41800000000E+01 0. -1.
         -5    1    3    3    0  502  0.16419436647E+02  0.43938638220E+01  0.18012896079E+02  0.25116543636E+02  0.41800000000E+01 0. -1.
        -11    1    1    2    0    0  0.89898572137E+02  0.20679979293E+03  0.50499354617E+03  0.55305188662E+03  0.00000000000E+00 0. -1.
         11    1    1    2    0    0 -0.23748232027E+02  0.57320084273E+02  0.14049453123E+03  0.15358477753E+03  0.00000000000E+00 0.  1.
</event>
<event>
 7    1  0.2693725E-009  0.8747208E+02  0.7561462E-02  0.1309091E+00
          1   -1    0    0  501    0  0.00000000000E+00  0.00000000000E+00  0.21724674210E+03  0.21724674210E+03  0.00000000000E+00 0. -1.
         -1   -1    0    0    0  501 -0.00000000000E+00 -0.00000000000E+00 -0.55825442837E+02  0.55825442837E+02  0.00000000000E+00 0.  1.
         25    2    1    2    0    0  0.19950740642E+01 -0.15402240574E+02  0.10112342251E+03  0.16159934392E+03  0.12508873666E+03 0.  0.
          5    1    3    3  502    0 -0.60020378982E+01 -0.60995077449E+02  0.97161877289E+02  0.11495358511E+03  0.41800000000E+01 0. -1.
         -5    1    3    3    0  502  0.79971119624E+01  0.45592836875E+02  0.39615452255E+01  0.46645758807E+02  0.41800000000E+01 0. -1.
        -11    1    1    2    0    0  0.31609628213E+01 -0.25557334428E+02 -0.11850950020E+02  0.28348087156E+02  0.00000000000E+00 0.  1.
         11    1    1    2    0    0 -0.51560368855E+01  0.40959575001E+02  0.72148826766E+02  0.83124753860E+02  0.00000000000E+00 0. -1.
</event>
<event>
 7    1  0.2693725E-009  0.1165419E+03  0.7561462E-02  0.1248913E+00
         -2   -1    0    0    0  501 -0.00000000000E+00  0.00000000000E+00  0.10880365941E+02  0.10880365941E+02  0.00000000000E+00 0.  1.
          2   -1    0    0  501    0  0.00000000000E+00 -0.00000000000E+00 -0.17198983171E+04  0.17198983171E+04  0.00000000000E+00 0. -1.
         25    2    1    2    0    0 -0.40537965324E+02  0.15427886956E+02 -0.13703504652E+04  0.13767315767E+04  0.12509232745E+03 0.  0.
          5    1    3    3  502    0 -0.30538682613E+02 -0.52608328409E+02 -0.77869818291E+03  0.78108167295E+03  0.41800000000E+01 0. -1.
         -5    1    3    3    0  502 -0.99992827106E+01  0.68036215364E+02 -0.59165228228E+03  0.59564990371E+03  0.41800000000E+01 0. -1.
        -11    1    1    2    0    0 -0.12625546650E+02 -0.41947139049E+02 -0.14374009043E+03  0.15026703064E+03  0.00000000000E+00 0. -1.
         11    1    1    2    0    0  0.53163511974E+02  0.26519252093E+02 -0.19492739558E+03  0.20378007578E+03  0.00000000000E+00 0.  1.
</event>
<event>
 7    1  0.2693725E-009  0.1098040E+03  0.7561462E-02  0.1260933E+00
         -4   -1    0    0    0  501 -0.00000000000E+00  0.00000000000E+00  0.14595637841E+03  0.14595637841E+03  0.00000000000E+00 0.  1.
          4   -1    0    0  501    0  0.00000000000E+00 -0.00000000000E+00 -0.94816567087E+02  0.94816567087E+02  0.00000000000E+00 0. -1.
         25    2    1    2    0    0  0.41971762117E+02 -0.21121036472E+02  0.16878710481E+02  0.13468690632E+03  0.12509174581E+03 0.  0.
          5    1    3    3  502    0  0.24859934926E+02  0.46033776754E+02  0.34814000387E+02  0.62981044686E+02  0.41800000000E+01 0.  1.
         -5    1    3    3    0  502  0.17111827191E+02 -0.67154813226E+02 -0.17935289905E+02  0.71705861638E+02  0.41800000000E+01 0.  1.
        -11    1    1    2    0    0 -0.16465182667E+02 -0.33547964197E+02  0.25223091294E+02  0.45086278139E+02  0.00000000000E+00 0.  1.
         11    1    1    2    0    0 -0.25506579450E+02  0.54669000668E+02  0.90380095435E+01  0.60999761031E+02  0.00000000000E+00 0. -1.
</event>
<event>
 7    1  0.2693725E-009  0.1578488E+03  0.7561462E-02  0.1191147E+00
         -1   -1    0    0    0  501 -0.00000000000E+00  0.00000000000E+00  0.99736889279E+03  0.99736889279E+03  0.00000000000E+00 0. -1.
          1   -1    0    0  501    0  0.00000000000E+00 -0.00000000000E+00 -0.32423263482E+02  0.32423263482E+02  0.00000000000E+00 0.  1.
         25    2    1    2    0    0 -0.13968499194E+03 -0.33112763154E+02  0.59393680785E+03  0.62371185042E+03  0.12508872284E+03 0.  0.
          5    1    3    3  502    0 -0.96650857559E+02  0.21950320027E+02  0.19611348707E+03  0.21977528757E+03  0.41800000000E+01 0.  1.
         -5    1    3    3    0  502 -0.43034134379E+02 -0.55063083181E+02  0.39782332078E+03  0.40393656285E+03  0.41800000000E+01 0.  1.
        -11    1    1    2    0    0  0.82780575452E+02  0.34214562383E+02  0.30984248375E+03  0.32253003688E+03  0.00000000000E+00 0. -1.
         11    1    1    2    0    0  0.56904416486E+02 -0.11017992293E+01  0.61166337712E+02  0.83550268977E+02  0.00000000000E+00 0.  1.
</event>
<event>
 7    1  0.2693725E-009  0.1131948E+03  0.7561462E-02  0.1254765E+00
          2   -1    0    0  501    0  0.00000000000E+00  0.00000000000E+00  0.13352308481E+03  0.13352308481E+03  0.00000000000E+00 0.  1.
         -2   -1    0    0    0  501 -0.00000000000E+00 -0.00000000000E+00 -0.14680138423E+03  0.14680138423E+03  0.00000000000E+00 0. -1.
         25    2    1    2    0    0 -0.62729807723E+02  0.48938021994E+02  0.22381036257E+02  0.14992475323E+03  0.12508621856E+03 0.  0.
          5    1    3    3  502    0  0.81388998575E+01 -0.34850822929E+02 -0.59245181957E+01  0.36515666029E+02  0.41800000000E+01 0.  1.
         -5    1    3    3    0  502 -0.70868707580E+02  0.83788844922E+02  0.28305554453E+02  0.11340908720E+03  0.41800000000E+01 0.  1.
        -11    1    1    2    0    0  0.51255130267E+02 -0.45557954146E+02 -0.67599615301E+02  0.96292905001E+02  0.00000000000E+00 0. -1.
         11    1    1    2    0    0  0.11474677456E+02 -0.33800678479E+01  0.31940279617E+02  0.34106810806E+02  0.00000000000E+00 0.  1.
</event>
<event>
 7    1  0.2693725E-009  0.2501916E+03  0.7561462E-02  0.1113184E+00
          2   -1    0    0  501    0  0.00000000000E+00  0.00000000000E+00  0.76152581451E+03  0.76152581451E+03  0.00000000000E+00 0. -1.
         -2   -1    0    0    0  501 -0.00000000000E+00 -0.00000000000E+00 -0.13233895731E+03  0.13233895731E+03  0.00000000000E+00 0.  1.
         25    2    1    2    0    0  0.16111426543E+03 -0.17006355254E+03  0.60535395194E+02  0.27238100985E+03  0.12508981585E+03 0.  0.
          5    1    3    3  502    0  0.49053460455E+02 -0.21748774152E+01  0.50012353385E+02  0.70211679694E+02  0.41800000000E+01 0. -1.
         -5    1    3    3    0  502  0.11206080498E+03 -0.16788867512E+03  0.10523041808E+02  0.20216933016E+03  0.41800000000E+01 0. -1.
        -11    1    1    2    0    0  0.34745040326E+00  0.44936062381E+02  0.78175766167E+02  0.90171064316E+02  0.00000000000E+00 0.  1.
         11    1    1    2    0    0 -0.16146171583E+03  0.12512749016E+03  0.49047569584E+03  0.53131269765E+03  0.00000000000E+00 0. -1.
</event>
<event>
 7    1  0.2693725E-009  0.2088062E+03  0.7561462E-02  0.1142515E+00
          1   -1    0    0  501    0  0.00000000000E+00  0.00000000000E+00  0.13577371117E+04  0.13577371117E+04  0.00000000000E+00 0. -1.
         -1   -1    0    0    0  501 -0.00000000000E+00 -0.00000000000E+00 -0.40178026272E+02  0.40178026272E+02  0.00000000000E+00 0.  1.
         25    2    1    2    0    0  0.20330900200E+03 -0.21169607578E+02  0.59074717640E+03  0.63750505201E+03  0.12509101622E+03 0.  0.
          5    1    3    3  502    0  0.56024037464E+02  0.20901197215E+02  0.58951927965E+02  0.84073509678E+02  0.41800000000E+01 0. -1.
         -5    1    3    3    0  502  0.14728496454E+03 -0.42070804793E+02  0.53179524843E+03  0.55343154233E+03  0.41800000000E+01 0. -1.
        -11    1    1    2    0    0 -0.84594989643E+02  0.10531545986E+02  0.46492591894E+03  0.47267677734E+03  0.00000000000E+00 0. -1.
         11    1    1    2    0    0 -0.11871401236E+03  0.10638061592E+02  0.26188599011E+03  0.28773330864E+03  0.00000000000E+00 0.  1.
</event>
<event>
 7    1  0.2693725E-009  0.1342524E+03  0.7561462E-02  0.1221279E+00
          2   -1    0    0  501    0  0.00000000000E+00  0.00000000000E+00  0.16551726542E+03  0.16551726542E+03  0.00000000000E+00 0. -1.
         -2   -1    0    0    0  501 -0.00000000000E+00 -0.00000000000E+00 -0.14222633893E+03  0.14222633893E+03  0.00000000000E+00 0.  1.
         25    2    1    2    0    0 -0.56918570537E+02  0.72602230094E+02  0.70366006505E+02  0.17061721749E+03  0.12509217619E+03 0.  0.
          5    1    3    3  502    0 -0.63360528185E+02  0.10039387510E+03  0.76295698780E+02  0.14118070953E+03  0.41800000000E+01 0. -1.
         -5    1    3    3    0  502  0.64419576482E+01 -0.27791645007E+02 -0.59296922745E+01  0.29436507962E+02  0.41800000000E+01 0. -1.
        -11    1    1    2    0    0  0.63713845508E+02 -0.18486553236E+02 -0.49120908831E+02  0.82547383026E+02  0.00000000000E+00 0.  1.
         11    1    1    2    0    0 -0.67952749714E+01 -0.54115676858E+02  0.20458288191E+01  0.54579003832E+02  0.00000000000E+00 0. -1.
</event>
<event>
 7    1  0.2693725E-009  0.1269974E+03  0.7561462E-02  0.1231980E+00
         -1   -1    0    0    0  501 -0.00000000000E+00  0.00000000000E+00  0.10050226534E+03  0.10050226534E+03  0.00000000000E+00 0.  1.
          1   -1    0    0  501    0  0.00000000000E+00 -0.00000000000E+00 -0.23392362215E+03  0.23392362215E+03  0.00000000000E+00 0. -1.
         25    2    1    2    0    0 -0.17248971000E+02  0.10369604687E+03 -0.11716139956E+03  0.20105901076E+03  0.12509010802E+03 0.  0.
          5    1    3    3  502    0 -0.24022407986E+02  0.10960346896E+03 -0.13804438636E+03  0.17794302880E+03  0.41800000000E+01 0. -1.
         -5    1    3    3    0  502  0.67734369855E+01 -0.59074220889E+01  0.20882986799E+02  0.23115981960E+02  0.41800000000E+01 0. -1.
        -11    1    1    2    0    0  0.37009218631E+02 -0.13389840087E+02 -0.10557188546E+02  0.40748304397E+02  0.00000000000E+00 0. -1.
         11    1    1    2    0    0 -0.19760247631E+02 -0.90306206785E+02 -0.57027687147E+01  0.92618572334E+02  0.00000000000E+00 0.  1.
</event>
<event>
 7    1  0.2693725E-009  0.1263561E+03  0.7561462E-02  0.1232965E+00
          1   -1    0    0  501    0  0.00000000000E+00  0.00000000000E+00  0.35184089422E+03  0.35184089422E+03  0.00000000000E+00 0. -1.
         -1   -1    0    0    0  501 -0.00000000000E+00 -0.00000000000E+00 -0.47552314242E+03  0.47552314242E+03  0.00000000000E+00 0.  1.
         25    2    1    2    0    0 -0.11280751721E+02  0.91500527722E+02 -0.45022955382E+03  0.47629197547E+03  0.12509113809E+03 0.  0.
          5    1    3    3  502    0  0.34227956209E+01  0.10716698923E+03 -0.21743314920E+03  0.24246881425E+03  0.41800000000E+01 0. -1.
         -5    1    3    3    0  502 -0.14703547342E+02 -0.15666461506E+02 -0.23279640462E+03  0.23382316122E+03  0.41800000000E+01 0. -1.
        -11    1    1    2    0    0 -0.35792875572E+02 -0.42678232559E+02  0.19857999507E+03  0.20624397184E+03  0.00000000000E+00 0. -1.
         11    1    1    2    0    0  0.47073627293E+02 -0.48822295163E+02  0.12796731055E+03  0.14482808933E+03  0.00000000000E+00 0.  1.
</event>
<event>
 7    1  0.2693725E-009  0.1550401E+03  0.7561462E-02  0.1194413E+00
          2   -1    0    0  501    0  0.00000000000E+00  0.00000000000E+00  0.59274873187E+02  0.59274873187E+02  0.00000000000E+00 0. -1.
         -2   -1    0    0    0  501 -0.00000000000E+00 -0.00000000000E+00 -0.68249386543E+03  0.68249386543E+03  0.00000000000E+00 0.  1.
         25    2    1    2    0    0  0.14769935023E+03 -0.11793766206E+02 -0.47707794810E+03  0.51498067711E+03  0.12509012054E+03 0.  0.
          5    1    3    3  502    0  0.10940355944E+03 -0.15910946730E+01 -0.45779839276E+03  0.47071064489E+03  0.41800000000E+01 0.  1.
         -5    1    3    3    0  502  0.38295790792E+02 -0.10202671533E+02 -0.19279555340E+02  0.44270032222E+02  0.41800000000E+01 0.  1.
        -11    1    1    2    0    0 -0.33920857578E+02 -0.23891919593E+02 -0.80765191126E+02  0.90799033576E+02  0.00000000000E+00 0.  1.
         11    1    1    2    0    0 -0.11377849265E+03  0.35685685800E+02 -0.65375853025E+02  0.13598902794E+03  0.00000000000E+00 0. -1.
</event>
<event>
 7    1  0.2693725E-009  0.9940929E+02  0.7561462E-02  0.1281543E+00
         -2   -1    0    0    0  501 -0.00000000000E+00  0.00000000000E+00  0.19469590800E+03  0.19469590800E+03  0.00000000000E+00 0.  1.
          2   -1    0    0  501    0  0.00000000000E+00 -0.00000000000E+00 -0.19828669173E+03  0.19828669173E+03  0.00000000000E+00 0. -1.
         25    2    1    2    0    0 -0.26803698650E+02  0.94872349607E+02 -0.13190671923E+03  0.20679949381E+03  0.12508975610E+03 0.  0.
          5    1    3    3  502    0 -0.10835689003E+01  0.21927315659E+02  0.23948782319E+02  0.32756646168E+02  0.41800000000E+01 0. -1.
         -5    1    3    3    0  502 -0.25720129750E+02  0.72945033948E+02 -0.15585550155E+03  0.17404284764E+03  0.41800000000E+01 0. -1.
        -11    1    1    2    0    0  0.14130887431E+02 -0.65734346697E+02  0.13754188092E+03  0.15309622896E+03  0.00000000000E+00 0.  1.
         11    1    1    2    0    0  0.12672811220E+02 -0.29138002910E+02 -0.92259454223E+01  0.33086876956E+02  0.00000000000E+00 0. -1.
</event>
<event>
 7    1  0.2693725E-009  0.1293826E+03  0.7561462E-02  0.1228375E+00
          3   -1    0    0  501    0  0.00000000000E+00  0.00000000000E+00  0.11702873181E+03  0.11702873181E+03  0.00000000000E+00 0. -1.
         -3   -1    0    0    0  501 -0.00000000000E+00 -0.00000000000E+00 -0.20676856938E+03  0.20676856938E+03  0.00000000000E+00 0.  1.
         25    2    1    2    0    0 -0.31949554570E+02  0.88380237878E+02 -0.11649739365E+03  0.19506496125E+03  0.12508739303E+03 0.  0.
          5    1    3    3  502    0 -0.51361378010E+02  0.11336254804E+03 -0.93948522823E+02  0.15598992208E+03  0.41800000000E+01 0. -1.
         -5    1    3    3    0  502  0.19411823440E+02 -0.24982310165E+02 -0.22548870830E+02  0.39075039170E+02  0.41800000000E+01 0. -1.
        -11    1    1    2    0    0  0.15848726469E+02 -0.84219579604E+02 -0.12022526768E+02  0.86537049113E+02  0.00000000000E+00 0.  1.
         11    1    1    2    0    0  0.16100828101E+02 -0.41606582746E+01  0.38780082846E+02  0.42195290832E+02  0.00000000000E+00 0. -1.
</event>
<event>
 7    1  0.2693725E-009  0.2102988E+03  0.7561462E-02  0.1141330E+00
          3   -1    0    0  501    0  0.00000000000E+00  0.00000000000E+00  0.14040277357E+04  0.14040277357E+04  0.00000000000E+00 0. -1.
         -3   -1    0    0    0  501 -0.00000000000E+00 -0.00000000000E+00 -0.34120977325E+02  0.34120977325E+02  0.00000000000E+00 0.  1.
         25    2    1    2    0    0 -0.56089383676E+02  0.17209803311E+03  0.52303485213E+03  0.56742981801E+03  0.12508952742E+03 0.  0.
          5    1    3    3  502    0 -0.86248286015E+02  0.16729186896E+03  0.42956088755E+03  0.46900465325E+03  0.41800000000E+01 0. -1.
         -5    1    3    3    0  502  0.30158902339E+02  0.48061641499E+01  0.93473964578E+02  0.98425164760E+02  0.41800000000E+01 0. -1.
        -11    1    1    2    0    0 -0.38469245404E+01 -0.12558437593E+03  0.48796735451E+03  0.50388329340E+03  0.00000000000E+00 0. -1.
         11    1    1    2    0    0  0.59936308216E+02 -0.46513657187E+02  0.35890455174E+03  0.36683560161E+03  0.00000000000E+00 0.  1.
</event>
<event>
 7    1  0.2693725E-009  0.9577148E+02  0.7561462E-02  0.1289448E+00
          1   -1    0    0  501    0  0.00000000000E+00  0.00000000000E+00  0.10866828815E+03  0.10866828815E+03  0.00000000000E+00 0. -1.
         -1   -1    0    0    0  501 -0.00000000000E+00 -0.00000000000E+00 -0.20429452345E+03  0.20429452345E+03  0.00000000000E+00 0.  1.
         25    2    1    2    0    0  0.57543739833E+02  0.74908909763E+02 -0.89737061598E+02  0.18060917410E+03  0.12507720332E+03 0.  0.
          5    1    3    3  502    0  0.26440890583E+02  0.20213404427E+02 -0.10950243661E+03  0.11452492496E+03  0.41800000000E+01 0. -1.
         -5    1    3    3    0  502  0.31102849250E+02  0.54695505336E+02  0.19765375012E+02  0.66084249143E+02  0.41800000000E+01 0. -1.
        -11    1    1    2    0    0 -0.13693417984E+02 -0.24996519638E+02 -0.46461018379E+02  0.54506530975E+02  0.00000000000E+00 0.  1.
         11    1    1    2    0    0 -0.43850321849E+02 -0.49912390126E+02  0.40571844672E+02  0.77847106526E+02  0.00000000000E+00 0. -1.
</event>
<event>
 7    1  0.2693725E-009  0.3003276E+03  0.7561462E-02  0.1085077E+00
         -2   -1    0    0    0  501 -0.00000000000E+00  0.00000000000E+00  0.73734840660E+02  0.73734840660E+02  0.00000000000E+00 0.  1.
          2   -1    0    0  501    0  0.00000000000E+00 -0.00000000000E+00 -0.19469895574E+04  0.19469895574E+04  0.00000000000E+00 0. -1.
         25    2    1    2    0    0  0.83383888832E+02  0.27770255162E+03 -0.15337434995E+04  0.15659146175E+04  0.12509151409E+03 0.  0.
          5    1    3    3  502    0  0.91241505409E+02  0.27788231325E+03 -0.13215485771E+04  0.13535330459E+04  0.41800000000E+01 0. -1.
         -5    1    3    3    0  502 -0.78576165773E+01 -0.17976163304E+00 -0.21219492243E+03  0.21238157160E+03  0.41800000000E+01 0. -1.
        -11    1    1    2    0    0 -0.64241634925E+02 -0.90038502609E+02 -0.15923908002E+03  0.19388399680E+03  0.00000000000E+00 0. -1.
         11    1    1    2    0    0 -0.19142253907E+02 -0.18766404901E+03 -0.18027213718E+03  0.26092578373E+03  0.00000000000E+00 0.  1.
</event>
<event>
 7    1  0.2693725E-009  0.4371738E+03  0.7561462E-02  0.1031617E+00
         -1   -1    0    0    0  501 -0.00000000000E+00  0.00000000000E+00  0.15313509006E+03  0.15313509006E+03  0.00000000000E+00 0.  1.
          1   -1    0    0  501    0  0.00000000000E+00 -0.00000000000E+00 -0.12870979186E+04  0.12870979186E+04  0.00000000000E+00 0. -1.
         25    2    1    2    0    0 -0.41578348609E+03  0.10327409097E+03 -0.63786221637E+03  0.77849633356E+03  0.12508752587E+03 0.  0.
          5    1    3    3  502    0 -0.11291768660E+03  0.86977180040E+02 -0.18920286942E+03  0.23691904100E+03  0.41800000000E+01 0. -1.
         -5    1    3    3    0  502 -0.30286579949E+03  0.16296910934E+02 -0.44865934695E+03  0.54157729256E+03  0.41800000000E+01 0. -1.
        -11    1    1    2    0    0  0.30661119866E+03 -0.75324714151E+02 -0.29980963663E+03  0.43539643765E+03  0.00000000000E+00 0. -1.
         11    1    1    2    0    0  0.10917228743E+03 -0.27949376823E+02 -0.19629097553E+03  0.22634023744E+03  0.00000000000E+00 0.  1.
</event>
<event>
 7    1  0.2693725E-009  0.1189647E+03  0.7561462E-02  0.1244815E+00
         -2   -1    0    0    0  501 -0.00000000000E+00  0.00000000000E+00  0.26811172725E+02  0.26811172725E+02  0.00000000000E+00 0.  1.
          2   -1    0    0  501    0  0.00000000000E+00 -0.00000000000E+00 -0.63282303023E+03  0.63282303023E+03  0.00000000000E+00 0. -1.
         25    2    1    2    0    0 -0.31135433083E+02  0.48073739434E+02 -0.44572933149E+03  0.46647925044E+03  0.12509098500E+03 0.  0.
          5    1    3    3  502    0 -0.47265990991E+02  0.82120708894E+02 -0.25609238642E+03  0.27309095099E+03  0.41800000000E+01 0. -1.
         -5    1    3    3    0  502  0.16130557908E+02 -0.34046969460E+02 -0.18963694507E+03  0.19338829945E+03  0.41800000000E+01 0. -1.
        -11    1    1    2    0    0  0.20413744298E+01 -0.69196262401E+02 -0.84192687069E+02  0.10899861694E+03  0.00000000000E+00 0.  1.
         11    1    1    2    0    0  0.29094058653E+02  0.21122522967E+02 -0.76089838950E+02  0.84156335572E+02  0.00000000000E+00 0. -1.
</event>
<event>
 7    1  0.2693725E-009  0.1120013E+03  0.7561462E-02  0.1256908E+00
         -1   -1    0    0    0  501 -0.00000000000E+00  0.00000000000E+00  0.16430731347E+03  0.16430731347E+03  0.00000000000E+00 0.  1.
          1   -1    0    0  501    0  0.00000000000E+00 -0.00000000000E+00 -0.89451714127E+02  0.89451714127E+02  0.00000000000E+00 0. -1.
         25    2    1    2    0    0  0.46175880777E+02 -0.20704019333E+01  0.95811029110E+01  0.13370116319E+03  0.12509078693E+03 0.  0.
          5    1    3    3  502    0  0.23386149704E+02 -0.58814055227E+02  0.28523448979E+02  0.69549008849E+02  0.41800000000E+01 0.  1.
         -5    1    3    3    0  502  0.22789731074E+02  0.56743653294E+02 -0.18942346068E+02  0.64152154337E+02  0.41800000000E+01 0.  1.
        -11    1    1    2    0    0  0.13420871693E+02 -0.29084109437E+02  0.11784827847E+02  0.34130446615E+02  0.00000000000E+00 0.  1.
         11    1    1    2    0    0 -0.59596752471E+02  0.31154511371E+02  0.53489668586E+02  0.85927417797E+02  0.00000000000E+00 0. -1.
</event>
<event>
 7    1  0.2693725E-009  0.1231744E+03  0.7561462E-02  0.1237950E+00
          1   -1    0    0  501    0  0.00000000000E+00  0.00000000000E+00  0.43007612537E+03  0.43007612537E+03  0.00000000000E+00 0. -1.
         -1   -1    0    0    0  501 -0.00000000000E+00 -0.00000000000E+00 -0.44371369285E+02  0.44371369285E+02  0.00000000000E+00 0.  1.
         25    2    1    2    0    0  0.59672657826E+02  0.55400688712E+02  0.24794656614E+03  0.28940557641E+03  0.12509206846E+03 0.  0.
          5    1    3    3  502    0  0.20343423955E+02  0.90079603567E+02  0.18903564067E+03  0.21042845749E+03  0.41800000000E+01 0. -1.
         -5    1    3    3    0  502  0.39329233871E+02 -0.34678914856E+02  0.58910925469E+02  0.78977118915E+02  0.41800000000E+01 0. -1.
        -11    1    1    2    0    0 -0.48469349326E+02 -0.39293102527E+01  0.11995713495E+03  0.12943891041E+03  0.00000000000E+00 0. -1.
         11    1    1    2    0    0 -0.11203308500E+02 -0.51471378459E+02  0.17801054994E+02  0.55603007839E+02  0.00000000000E+00 0.  1.
</event>
<event>
 7    1  0.2693725E-009  0.1210571E+03  0.7561462E-02  0.1241363E+00
          2   -1    0    0  501    0  0.00000000000E+00  0.00000000000E+00  0.12727297703E+04  0.12727297703E+04  0.00000000000E+00 0. -1.
         -2   -1    0    0    0  501 -0.00000000000E+00 -0.00000000000E+00 -0.23147065418E+02  0.23147065418E+02  0.00000000000E+00 0.  1.
         25    2    1    2    0    0  0.61439168242E+02  0.66117645821E+02  0.10257388564E+04  0.10372724768E+04  0.12509066777E+03 0.  0.
          5    1    3    3  502    0  0.71468585170E+02  0.35067259552E+02  0.28881806154E+03  0.29961778390E+03  0.41800000000E+01 0. -1.
         -5    1    3    3    0  502 -0.10029416927E+02  0.31050386268E+02  0.73692079489E+03  0.73765469295E+03  0.41800000000E+01 0. -1.
        -11    1    1    2    0    0 -0.81132753580E+02 -0.72491257786E+02  0.18802176282E+03  0.21723187946E+03  0.00000000000E+00 0.  1.
         11    1    1    2    0    0  0.19693585338E+02  0.63736119654E+01  0.35822085609E+02  0.41372479383E+02  0.00000000000E+00 0. -1.
</event>
<event>
 7    1  0.2693725E-009  0.1564912E+03  0.7561462E-02  0.1192716E+00
         -2   -1    0    0    0  501 -0.00000000000E+00  0.00000000000E+00  0.44560792306E+02  0.44560792306E+02  0.00000000000E+00 0. -1.
          2   -1    0    0  501    0  0.00000000000E+00 -0.00000000000E+00 -0.74009343878E+03  0.74009343878E+03  0.00000000000E+00 0.  1.
         25    2    1    2    0    0  0.96321917444E+02  0.10264234913E+03 -0.29282040639E+03  0.34814417231E+03  0.12508881124E+03 0.  0.
          5    1    3    3  502    0 -0.51749595085E+01 -0.19574234059E+01  0.99299406393E+01  0.12111475278E+02  0.41800000000E+01 0.  1.
         -5    1    3    3    0  502  0.10149687695E+03  0.10459977254E+03 -0.30275034703E+03  0.33603269703E+03  0.41800000000E+01 0.  1.
        -11    1    1    2    0    0 -0.10524438498E+03 -0.69995348741E+02 -0.36276259528E+03  0.38415157158E+03  0.00000000000E+00 0.  1.
         11    1    1    2    0    0  0.89224675403E+01 -0.32647000390E+02 -0.39949644801E+02  0.52358487193E+02  0.00000000000E+00 0. -1.
</event>
<event>
 7    1  0.2693725E-009  0.1058797E+03  0.7561462E-02  0.1268396E+00
         -3   -1    0    0    0  501 -0.00000000000E+00  0.00000000000E+00  0.46284344131E+02  0.46284344131E+02  0.00000000000E+00 0.  1.
          3   -1    0    0  501    0  0.00000000000E+00 -0.00000000000E+00 -0.27346297100E+03  0.27346297100E+03  0.00000000000E+00 0. -1.
         25    2    1    2    0    0  0.36456383315E+02 -0.92239657765E+01 -0.15459328377E+03  0.20237636850E+03  0.12507182620E+03 0.  0.
          5    1    3    3  502    0  0.77664233412E+02 -0.27703939925E+02 -0.79300607893E+02  0.11447838334E+03  0.41800000000E+01 0. -1.
         -5    1    3    3    0  502 -0.41207850097E+02  0.18479974148E+02 -0.75292675881E+02  0.87897985161E+02  0.41800000000E+01 0. -1.
        -11    1    1    2    0    0  0.28838745171E+01  0.36088394815E+02 -0.79310635403E+01  0.37061985125E+02  0.00000000000E+00 0.  1.
         11    1    1    2    0    0 -0.39340257832E+02 -0.26864429038E+02 -0.64654279552E+02  0.80308961507E+02  0.00000000000E+00 0. -1.
</event>
<event>
 7    1  0.2693725E-009  0.2749303E+03  0.7561462E-02  0.1098491E+00
         -1   -1    0    0    0  501 -0.00000000000E+00  0.00000000000E+00  0.61837919795E+02  0.61837919795E+02  0.00000000000E+00 0.  1.
          1   -1    0    0  501    0  0.00000000000E+00 -0.00000000000E+00 -0.13672806676E+04  0.13672806676E+04  0.00000000000E+00 0. -1.
         25    2    1    2    0    0 -0.14950834757E+02 -0.26822172948E+03 -0.62120932574E+03  0.68826953942E+03  0.12509000317E+03 0.  0.
          5    1    3    3  502    0 -0.37721551373E+02 -0.60850737201E+02 -0.27359700318E+03  0.28284009653E+03  0.41800000000E+01 0. -1.
         -5    1    3    3    0  502  0.22770716615E+02 -0.20737099228E+03 -0.34761232255E+03  0.40542944289E+03  0.41800000000E+01 0. -1.
        -11    1    1    2    0    0  0.20454285617E+02  0.20068247264E+03 -0.39195336175E+03  0.44081659499E+03  0.00000000000E+00 0.  1.
         11    1    1    2    0    0 -0.55034508601E+01  0.67539256832E+02 -0.29228006029E+03  0.30003245296E+03  0.00000000000E+00 0. -1.
</event>
<event>
 7    1  0.2693725E-009  0.7834374E+02  0.7561462E-02  0.1333818E+00
         -1   -1    0    0    0  501 -0.00000000000E+00  0.00000000000E+00  0.29418258075E+02  0.29418258075E+02  0.00000000000E+00 0.  1.
          1   -1    0    0  501    0  0.00000000000E+00 -0.00000000000E+00 -0.55369011423E+03  0.55369011423E+03  0.00000000000E+00 0. -1.
         25    2    1    2    0    0  0.57217854098E+02 -0.25877977003E+02 -0.33643399439E+03  0.36438817280E+03  0.12508938955E+03 0.  0.
          5    1    3    3  502    0 -0.51806652306E+01 -0.21274493547E+02 -0.13421168935E+00  0.22292011589E+02  0.41800000000E+01 0. -1.
         -5    1    3    3    0  502  0.62398519329E+02 -0.46034834558E+01 -0.33629978270E+03  0.34209616121E+03  0.41800000000E+01 0. -1.
        -11    1    1    2    0    0 -0.80270562079E+01  0.20728801391E+02  0.22133431427E+01  0.22338659905E+02  0.00000000000E+00 0.  1.
         11    1    1    2    0    0 -0.49190797890E+02  0.51491756122E+01 -0.19005120492E+03  0.19638153960E+03  0.00000000000E+00 0. -1.
</event>
<event>
 7    1  0.2693725E-009  0.1109294E+03  0.7561462E-02  0.1258858E+00
          1   -1    0    0  501    0  0.00000000000E+00  0.00000000000E+00  0.45006034274E+03  0.45006034274E+03  0.00000000000E+00 0. -1.
         -1   -1    0    0    0  501 -0.00000000000E+00 -0.00000000000E+00 -0.39883000321E+02  0.39883000321E+02  0.00000000000E+00 0.  1.
         25    2    1    2    0    0 -0.24862148040E+01  0.78653313570E+02  0.22657238139E+03  0.27051065548E+03  0.12509374772E+03 0.  0.
          5    1    3    3  502    0 -0.53643069809E+02  0.25154812777E+02  0.16073697148E+03  0.17135982593E+03  0.41800000000E+01 0. -1.
         -5    1    3    3    0  502  0.51156855005E+02  0.53498500793E+02  0.65835409916E+02  0.99150829547E+02  0.41800000000E+01 0. -1.
        -11    1    1    2    0    0 -0.13620903659E+02 -0.78689235068E+01 -0.56643312069E+01  0.16719259005E+02  0.00000000000E+00 0.  1.
         11    1    1    2    0    0  0.16107118463E+02 -0.70784390063E+02  0.18926929223E+03  0.20271342857E+03  0.00000000000E+00 0. -1.
</event>
<event>
 7    1  0.2693725E-009  0.1320159E+03  0.7561462E-02  0.1224495E+00
         -2   -1    0    0    0  501 -0.00000000000E+00  0.00000000000E+00  0.24049095298E+02  0.24049095298E+02  0.00000000000E+00 0.  1.
          2   -1    0    0  501    0  0.00000000000E+00 -0.00000000000E+00 -0.95248562487E+03  0.95248562487E+03  0.00000000000E+00 0. -1.
         25    2    1    2    0    0  0.74800770062E+02  0.75836627194E+00 -0.26342780150E+03  0.30106018600E+03  0.12508916288E+03 0.  0.
          5    1    3    3  502    0  0.81157597980E+02  0.50334374152E+02 -0.17188046092E+03  0.19667351164E+03  0.41800000000E+01 0.  1.
         -5    1    3    3    0  502 -0.63568279177E+01 -0.49576007880E+02 -0.91547340577E+02  0.10438667437E+03  0.41800000000E+01 0.  1.
        -11    1    1    2    0    0 -0.14044245395E+02  0.41805972917E+02 -0.26517020746E+03  0.26881260969E+03  0.00000000000E+00 0. -1.
         11    1    1    2    0    0 -0.60756524667E+02 -0.42564339189E+02 -0.39983852061E+03  0.40666192448E+03  0.00000000000E+00 0.  1.
</event>
<event>
 7    1  0.2693725E-009  0.1185637E+03  0.7561462E-02  0.1245486E+00
         -2   -1    0    0    0  501 -0.00000000000E+00  0.00000000000E+00  0.47398434563E+02  0.47398434563E+02  0.00000000000E+00 0.  1.
          2   -1    0    0  501    0  0.00000000000E+00 -0.00000000000E+00 -0.38274268239E+03  0.38274268239E+03  0.00000000000E+00 0. -1.
         25    2    1    2    0    0 -0.16644832045E+02 -0.78448754556E+02 -0.19270809044E+03  0.24333926740E+03  0.12508530453E+03 0.  0.
          5    1    3    3  502    0 -0.42378200450E+02  0.19580628641E+02 -0.54108697106E+02  0.71585867278E+02  0.41800000000E+01 0. -1.
         -5    1    3    3    0  502  0.25733368405E+02 -0.98029383197E+02 -0.13859939334E+03  0.17175340012E+03  0.41800000000E+01 0. -1.
        -11    1    1    2    0    0  0.25591455964E+02  0.29467317337E+02 -0.12957530574E+03  0.13532555290E+03  0.00000000000E+00 0. -1.
         11    1    1    2    0    0 -0.89466239197E+01  0.48981437219E+02 -0.13060851640E+02  0.51476296654E+02  0.00000000000E+00 0.  1.
</event>
<event>
 7    1  0.2693725E-009  0.9758321E+02  0.7561462E-02  0.1285462E+00
          2   -1    0    0  501    0  0.00000000000E+00  0.00000000000E+00  0.54142998074E+03  0.54142998074E+03  0.00000000000E+00 0. -1.
         -2   -1    0    0    0  501 -0.00000000000E+00 -0.00000000000E+00 -0.40696366384E+02  0.40696366384E+02  0.00000000000E+00 0.  1.
         25    2    1    2    0    0  0.18294600344E+02  0.41212212851E+02  0.44986505110E+03  0.46910447243E+03  0.12508918004E+03 0.  0.
          5    1    3    3  502    0 -0.74359620110E+00  0.81040426336E+02  0.35820155814E+03  0.36727909319E+03  0.41800000000E+01 0. -1.
         -5    1    3    3    0  502  0.19038196545E+02 -0.39828213485E+02  0.91663492953E+02  0.10182537924E+03  0.41800000000E+01 0. -1.
        -11    1    1    2    0    0  0.17415718888E+02 -0.24967034443E+02 -0.16825152061E+02  0.34781400419E+02  0.00000000000E+00 0.  1.
         11    1    1    2    0    0 -0.35710319231E+02 -0.16245178408E+02  0.67693715319E+02  0.78240474275E+02  0.00000000000E+00 0. -1.
</event>
<event>
 7    1  0.2693725E-009  0.1804042E+03  0.7561462E-02  0.1167412E+00
         -2   -1    0    0    0  501 -0.00000000000E+00  0.00000000000E+00  0.72747287237E+02  0.72747287237E+02  0.00000000000E+00 0.  1.
          2   -1    0    0  501    0  0.00000000000E+00 -0.00000000000E+00 -0.77835990911E+03  0.77835990911E+03  0.00000000000E+00 0. -1.
         25    2    1    2    0    0  0.11014542649E+03  0.10168143700E+03 -0.62771410448E+03  0.65737749019E+03  0.12509611516E+03 0.  0.
          5    1    3    3  502    0  0.66469730328E+02 -0.69320117679E+01 -0.13202259163E+03  0.14803281710E+03  0.41800000000E+01 0.  1.
         -5    1    3    3    0  502  0.43675696167E+02  0.10861344877E+03 -0.49569151285E+03  0.50934467309E+03  0.41800000000E+01 0.  1.
        -11    1    1    2    0    0  0.68581935826E+00 -0.57325135532E+02 -0.17489186835E+02  0.59937577262E+02  0.00000000000E+00 0.  1.
         11    1    1    2    0    0 -0.11083124585E+03 -0.44356301472E+02 -0.60409330557E+02  0.13379212890E+03  0.00000000000E+00 0. -1.
</event>
<event>
 7    1  0.2693725E-009  0.1283893E+03  0.7561462E-02  0.1229865E+00
         -2   -1    0    0    0  501 -0.00000000000E+00  0.00000000000E+00  0.32655709509E+02  0.32655709509E+02  0.00000000000E+00 0.  1.
          2   -1    0    0  501    0  0.00000000000E+00 -0.00000000000E+00 -0.56637685040E+03  0.56637685040E+03  0.00000000000E+00 0. -1.
         25    2    1    2    0    0 -0.26919921623E+02  0.63785734279E+02 -0.39119675734E+03  0.41650455170E+03  0.12509131290E+03 0.  0.
          5    1    3    3  502    0  0.73745640569E+01  0.95618780164E+02 -0.26201004251E+03  0.27904134119E+03  0.41800000000E+01 0.  1.
         -5    1    3    3    0  502 -0.34294485680E+02 -0.31833045885E+02 -0.12918671483E+03  0.13746321052E+03  0.41800000000E+01 0.  1.
        -11    1    1    2    0    0  0.43129396110E+02 -0.79996547542E+02 -0.10904586000E+03  0.14195278092E+03  0.00000000000E+00 0.  1.
         11    1    1    2    0    0 -0.16209474487E+02  0.16210813263E+02 -0.33478523559E+02  0.40575227289E+02  0.00000000000E+00 0. -1.
</event>
<event>
 7    1  0.2693725E-009  0.1275605E+03  0.7561462E-02  0.1231121E+00
          2   -1    0    0  501    0  0.00000000000E+00  0.00000000000E+00  0.16501778953E+04  0.16501778953E+04  0.00000000000E+00 0. -1.
         -2   -1    0    0    0  501 -0.00000000000E+00 -0.00000000000E+00 -0.11393406370E+02  0.11393406370E+02  0.00000000000E+00 0.  1.
         25    2    1    2    0    0  0.63654985544E+02  0.37798937401E+02  0.11361623429E+04  0.11454226939E+04  0.12509021307E+03 0.  0.
          5    1    3    3  502    0  0.70306441819E+02  0.75956408170E+02  0.91620394059E+03  0.92204094532E+03  0.41800000000E+01 0. -1.
         -5    1    3    3    0  502 -0.66514562756E+01 -0.38157470768E+02  0.21995840235E+03  0.22338174860E+03  0.41800000000E+01 0. -1.
        -11    1    1    2    0    0 -0.47701906694E+02  0.20658462183E+02  0.16069774126E+03  0.16889644167E+03  0.00000000000E+00 0.  1.
         11    1    1    2    0    0 -0.15953078850E+02 -0.58457399585E+02  0.34192440474E+03  0.34725216608E+03  0.00000000000E+00 0. -1.
</event>
<event>
 7    1  0.2693725E-009  0.2527597E+03  0.7561462E-02  0.1111573E+00
         -1   -1    0    0    0  501 -0.00000000000E+00  0.00000000000E+00  0.22415346355E+02  0.22415346355E+02  0.00000000000E+00 0.  1.
          1   -1    0    0  501    0  0.00000000000E+00 -0.00000000000E+00 -0.30339121560E+04  0.30339121560E+04  0.00000000000E+00 0. -1.
         25    2    1    2    0    0 -0.15131440406E+03  0.17000413345E+03 -0.19112048377E+04  0.19287686718E+04  0.12508878136E+03 0.  0.
          5    1    3    3  502    0 -0.74215775588E+01 -0.19381671103E+02 -0.12273269385E+03  0.12454523487E+03  0.41800000000E+01 0. -1.
         -5    1    3    3    0  502 -0.14389282651E+03  0.18938580456E+03 -0.17884721439E+04  0.18042234369E+04  0.41800000000E+01 0. -1.
        -11    1    1    2    0    0  0.67598642389E+02 -0.13439066515E+02 -0.30445893578E+03  0.31216250342E+03  0.00000000000E+00 0. -1.
         11    1    1    2    0    0  0.83715761675E+02 -0.15656506694E+03 -0.79583303615E+03  0.81539632717E+03  0.00000000000E+00 0.  1.
</event>
<event>
 7    1  0.2693725E-009  0.1200029E+03  0.7561462E-02  0.1243092E+00
          2   -1    0    0  501    0  0.00000000000E+00  0.00000000000E+00  0.57164176947E+03  0.57164176947E+03  0.00000000000E+00 0. -1.
         -2   -1    0    0    0  501 -0.00000000000E+00 -0.00000000000E+00 -0.27633839317E+02  0.27633839317E+02  0.00000000000E+00 0.  1.
         25    2    1    2    0    0 -0.15529577886E+02  0.47236948628E+02  0.38862704985E+03  0.41128094264E+03  0.12509409578E+03 0.  0.
          5    1    3    3  502    0  0.90842412330E-01 -0.42687612338E+02  0.11058898040E+03  0.11861549429E+03  0.41800000000E+01 0.  1.
         -5    1    3    3    0  502 -0.15620420299E+02  0.89924560965E+02  0.27803806944E+03  0.29266544835E+03  0.41800000000E+01 0.  1.
        -11    1    1    2    0    0 -0.30402134202E+02 -0.51304316610E+02  0.84054587502E+02  0.10306112918E+03  0.00000000000E+00 0.  1.
         11    1    1    2    0    0  0.45931712089E+02  0.40673679824E+01  0.71326292801E+02  0.84933536971E+02  0.00000000000E+00 0. -1.
</event>
<event>
 7    1  0.2693725E-009  0.1380151E+03  0.7561462E-02  0.1216025E+00
          2   -1    0    0  501    0  0.00000000000E+00  0.00000000000E+00  0.54057452558E+02  0.54057452558E+02  0.00000000000E+00 0. -1.
         -2   -1    0    0    0  501 -0.00000000000E+00 -0.00000000000E+00 -0.42060961579E+03  0.42060961579E+03  0.00000000000E+00 0.  1.
         25    2    1    2    0    0 -0.56031964632E+02 -0.67727172899E+02 -0.27727028004E+03  0.31662571595E+03  0.12508590967E+03 0.  0.
          5    1    3    3  502    0  0.22122108712E+02  0.21388026607E+02 -0.34402870654E+02  0.46345067539E+02  0.41800000000E+01 0.  1.
         -5    1    3    3    0  502 -0.78154073344E+02 -0.89115199505E+02 -0.24286740938E+03  0.27028064841E+03  0.41800000000E+01 0.  1.
        -11    1    1    2    0    0  0.48217353523E+02 -0.91678006431E+01 -0.54323798885E+02  0.73212272706E+02  0.00000000000E+00 0.  1.
         11    1    1    2    0    0  0.78146111090E+01  0.76894973542E+02 -0.34958084306E+02  0.84829079691E+02  0.00000000000E+00 0. -1.
</event>
<event>
 7    1  0.2693725E-009  0.1146846E+03  0.7561462E-02  0.1252133E+00
         -2   -1    0    0    0  501 -0.00000000000E+00  0.00000000000E+00  0.21262659897E+03  0.21262659897E+03  0.00000000000E+00 0.  1.
          2   -1    0    0  501    0  0.00000000000E+00 -0.00000000000E+00 -0.13406428521E+03  0.13406428521E+03  0.00000000000E+00 0. -1.
         25    2    1    2    0    0 -0.37854906784E+02 -0.90971214314E+02 -0.44892459012E+02  0.16544305797E+03  0.12508923516E+03 0.  0.
          5    1    3    3  502    0 -0.25919878798E+02 -0.71885621009E+02  0.33672323017E+02  0.83610288614E+02  0.41800000000E+01 0.  1.
         -5    1    3    3    0  502 -0.11935027986E+02 -0.19085593305E+02 -0.78564782029E+02  0.81832769354E+02  0.41800000000E+01 0.  1.
        -11    1    1    2    0    0  0.39362335353E+01 -0.16647675953E+02  0.53954991601E+01  0.17937403945E+02  0.00000000000E+00 0. -1.
         11    1    1    2    0    0  0.33918673249E+02  0.10761889027E+03  0.11805927361E+03  0.16331042227E+03  0.00000000000E+00 0.  1.
</event>
<event>
 7    1  0.2693725E-009  0.1229501E+03  0.7561462E-02  0.1238308E+00
          1   -1    0    0  501    0  0.00000000000E+00  0.00000000000E+00  0.79511265720E+02  0.79511265720E+02  0.00000000000E+00 0. -1.
         -1   -1    0    0    0  501 -0.00000000000E+00 -0.00000000000E+00 -0.27710440346E+03  0.27710440346E+03  0.00000000000E+00 0.  1.
         25    2    1    2    0    0  0.43994011925E+02  0.80282457867E+02 -0.55494667137E+02  0.16463383906E+03  0.12507556418E+03 0.  0.
          5    1    3    3  502    0  0.63669175153E+02  0.95908805156E+02 -0.70515624171E+02  0.13506364582E+03  0.41800000000E+01 0.  1.
         -5    1    3    3    0  502 -0.19675163228E+02 -0.15626347289E+02  0.15020957034E+02  0.29570193233E+02  0.41800000000E+01 0.  1.
        -11    1    1    2    0    0 -0.56013463282E+02 -0.65626563559E+02 -0.14869344632E+03  0.17191304457E+03  0.00000000000E+00 0.  1.
         11    1    1    2    0    0  0.12019451357E+02 -0.14655894308E+02  0.65949757196E+01  0.20068785555E+02  0.00000000000E+00 0. -1.
</event>
<event>
 7    1  0.2693725E-009  0.1214519E+03  0.7561462E-02  0.1240721E+00
          1   -1    0    0  501    0  0.00000000000E+00  0.00000000000E+00  0.50812119438E+03  0.50812119438E+03  0.00000000000E+00 0. -1.
         -1   -1    0    0    0  501 -0.00000000000E+00 -0.00000000000E+00 -0.31263536098E+02  0.31263536098E+02  0.00000000000E+00 0.  1.
         25    2    1    2    0    0 -0.46930002531E+02 -0.47886390720E+02  0.27500442001E+03  0.30946816230E+03  0.12509029098E+03 0.  0.
          5    1    3    3  502    0 -0.81789661378E+02 -0.11455059836E+02  0.11492917180E+03  0.14158726650E+03  0.41800000000E+01 0. -1.
         -5    1    3    3    0  502  0.34859658847E+02 -0.36431330885E+02  0.16007524821E+03  0.16788089580E+03  0.41800000000E+01 0. -1.
        -11    1    1    2    0    0 -0.25244513286E+02  0.20126726056E+02  0.69402446504E+02  0.76544563056E+02  0.00000000000E+00 0. -1.
         11    1    1    2    0    0  0.72174515817E+02  0.27759664665E+02  0.13245079177E+03  0.15337200512E+03  0.00000000000E+00 0.  1.
</event>
<event>
 7    1  0.2693725E-009  0.9275057E+02  0.7561462E-02  0.1296324E+00
          1   -1    0    0  501    0  0.00000000000E+00  0.00000000000E+00  0.51590172200E+03  0.51590172200E+03  0.00000000000E+00 0. -1.
         -1   -1    0    0    0  501 -0.00000000000E+00 -0.00000000000E+00 -0.44952746880E+02  0.44952746880E+02  0.00000000000E+00 0.  1.
         25    2    1    2    0    0 -0.68886255929E+02 -0.10307704030E+02  0.10481714803E+03  0.17744419405E+03  0.12509293530E+03 0.  0.
          5    1    3    3  502    0 -0.62024150289E+02  0.90874864348E+01  0.13016368798E+03  0.14453247282E+03  0.41800000000E+01 0. -1.
         -5    1    3    3    0  502 -0.68621056393E+01 -0.19395190464E+02 -0.25346539952E+02  0.32911721232E+02  0.41800000000E+01 0. -1.
        -11    1    1    2    0    0 -0.15289902454E+02 -0.50782615489E+01  0.15037659104E+02  0.22038626290E+02  0.00000000000E+00 0.  1.
         11    1    1    2    0    0  0.84176158383E+02  0.15385965578E+02  0.35109416798E+03  0.36137164854E+03  0.00000000000E+00 0. -1.
</event>
<event>
 7    1  0.2693725E-009  0.2975107E+03  0.7561462E-02  0.1086492E+00
          2   -1    0    0  501    0  0.00000000000E+00  0.00000000000E+00  0.17409326864E+04  0.17409326864E+04  0.00000000000E+00 0. -1.
         -2   -1    0    0    0  501 -0.00000000000E+00 -0.00000000000E+00 -0.71618243865E+02  0.71618243865E+02  0.00000000000E+00 0.  1.
         25    2    1    2    0    0  0.25514509647E+02 -0.28191077746E+03  0.38569594932E+03  0.49450321482E+03  0.12508951793E+03 0.  0.
          5    1    3    3  502    0  0.69476012615E+02 -0.23476656421E+03  0.30660018412E+03  0.39238170357E+03  0.41800000000E+01 0. -1.
         -5    1    3    3    0  502 -0.43961502969E+02 -0.47144213252E+02  0.79095765198E+02  0.10212151124E+03  0.41800000000E+01 0. -1.
        -11    1    1    2    0    0 -0.28663384251E+02  0.11171231420E+03  0.33551901937E+03  0.35478760279E+03  0.00000000000E+00 0. -1.
         11    1    1    2    0    0  0.31488746049E+01  0.17019846326E+03  0.94809947385E+03  0.96326011265E+03  0.00000000000E+00 0.  1.
</event>
<event>
 7    1  0.2693725E-009  0.1571928E+03  0.7561462E-02  0.1191903E+00
          2   -1    0    0  501    0  0.00000000000E+00  0.00000000000E+00  0.32409697674E+03  0.32409697674E+03  0.00000000000E+00 0. -1.
         -2   -1    0    0    0  501 -0.00000000000E+00 -0.00000000000E+00 -0.14730020827E+03  0.14730020827E+03  0.00000000000E+00 0.  1.
         25    2    1    2    0    0  0.31000409738E+01 -0.14139916288E+03 -0.45258733307E+02  0.19416294551E+03  0.12509021925E+03 0.  0.
          5    1    3    3  502    0  0.19821707465E+02 -0.84131774968E+01 -0.55496646974E+02  0.59674382006E+02  0.41800000000E+01 0. -1.
         -5    1    3    3    0  502 -0.16721666491E+02 -0.13298598538E+03  0.10237913667E+02  0.13448856351E+03  0.41800000000E+01 0. -1.
        -11    1    1    2    0    0 -0.35254353815E+02  0.47875089538E+02  0.12621255054E+03  0.13951523779E+03  0.00000000000E+00 0.  1.
         11    1    1    2    0    0  0.32154312842E+02  0.93524073338E+02  0.95842951237E+02  0.13771900170E+03  0.00000000000E+00 0. -1.
</event>
<event>
 7    1  0.2693725E-009  0.1107110E+03  0.7561462E-02  0.1259259E+00
          2   -1    0    0  501    0  0.00000000000E+00  0.00000000000E+00  0.74994588635E+03  0.74994588635E+03  0.00000000000E+00 0. -1.
         -2   -1    0    0    0  501 -0.00000000000E+00 -0.00000000000E+00 -0.28475400844E+02  0.28475400844E+02  0.00000000000E+00 0.  1.
         25    2    1    2    0    0 -0.75004113406E+02 -0.91059640816E+01  0.55477657324E+03  0.57370245525E+03  0.12509566475E+03 0.  0.
          5    1    3    3  502    0 -0.61393630555E+02  0.30663819966E+02  0.13210187104E+03  0.14892220943E+03  0.41800000000E+01 0.  1.
         -5    1    3    3    0  502 -0.13610482851E+02 -0.39769784048E+02  0.42267470219E+03  0.42478024582E+03  0.41800000000E+01 0.  1.
        -11    1    1    2    0    0  0.87026821396E+02 -0.10263935905E+02  0.93896216283E+02  0.12843486853E+03  0.00000000000E+00 0.  1.
         11    1    1    2    0    0 -0.12022707989E+02  0.19369899986E+02  0.72797695985E+02  0.76283963411E+02  0.00000000000E+00 0. -1.
</event>
<event>
 7    1  0.2693725E-009  0.1119579E+03  0.7561462E-02  0.1256986E+00
         -4   -1    0    0    0  501 -0.00000000000E+00  0.00000000000E+00  0.27791682507E+02  0.27791682507E+02  0.00000000000E+00 0.  1.
          4   -1    0    0  501    0  0.00000000000E+00 -0.00000000000E+00 -0.56851263240E+03  0.56851263240E+03  0.00000000000E+00 0. -1.
         25    2    1    2    0    0  0.47679763713E+02  0.34018351269E+02 -0.33336913079E+03  0.36085009996E+03  0.12508880521E+03 0.  0.
          5    1    3    3  502    0  0.65526778677E+02 -0.25664543364E+02 -0.12713563669E+03  0.14537320945E+03  0.41800000000E+01 0.  1.
         -5    1    3    3    0  502 -0.17847014964E+02  0.59682894633E+02 -0.20623349410E+03  0.21547689051E+03  0.41800000000E+01 0.  1.
        -11    1    1    2    0    0 -0.31704795262E+02  0.18075781199E+02 -0.22812897129E+02  0.43039007702E+02  0.00000000000E+00 0.  1.
         11    1    1    2    0    0 -0.15974968450E+02 -0.52094132469E+02 -0.18453892197E+03  0.19241520724E+03  0.00000000000E+00 0. -1.
</event>
<event>
 7    1  0.2693725E-009  0.8021351E+02  0.7561462E-02  0.1328447E+00
         -2   -1    0    0    0  501 -0.00000000000E+00  0.00000000000E+00  0.27456161448E+02  0.27456161448E+02  0.00000000000E+00 0.  1.
          2   -1    0    0  501    0  0.00000000000E+00 -0.00000000000E+00 -0.50786161288E+03  0.50786161288E+03  0.00000000000E+00 0. -1.
         25    2    1    2    0    0 -0.50397286685E+02 -0.18569671709E+02 -0.23305747814E+03  0.26990087101E+03  0.12508386324E+03 0.  0.
          5    1    3    3  502    0 -0.47879695381E+02 -0.35838883124E+02 -0.31837321955E+02  0.67882090735E+02  0.41800000000E+01 0. -1.
         -5    1    3    3    0  502 -0.25175913035E+01  0.17269211415E+02 -0.20122015618E+03  0.20201878027E+03  0.41800000000E+01 0. -1.
        -11    1    1    2    0    0  0.96655497630E+01  0.36694628431E+02 -0.48225711377E+02  0.61364793210E+02  0.00000000000E+00 0.  1.
         11    1    1    2    0    0  0.40731736922E+02 -0.18124956722E+02 -0.19912226192E+03  0.20405211011E+03  0.00000000000E+00 0. -1.
</event>
<event>
 7    1  0.2693725E-009  0.8824287E+02  0.7561462E-02  0.1307164E+00
         -2   -1    0    0    0  501 -0.00000000000E+00  0.00000000000E+00  0.51828784077E+02  0.51828784077E+02  0.00000000000E+00 0.  1.
          2   -1    0    0  501    0  0.00000000000E+00 -0.00000000000E+00 -0.40585076821E+03  0.40585076821E+03  0.00000000000E+00 0. -1.
         25    2    1    2    0    0  0.51123388568E+02  0.19557804819E+02 -0.31206816609E+03  0.34063225973E+03  0.12509071705E+03 0.  0.
          5    1    3    3  502    0 -0.33439747969E+02  0.14138114734E+02 -0.34022164752E+02  0.49930783359E+02  0.41800000000E+01 0. -1.
         -5    1    3    3    0  502  0.84563136537E+02  0.54196900851E+01 -0.27804600134E+03  0.29070147637E+03  0.41800000000E+01 0. -1.
        -11    1    1    2    0    0 -0.41023125735E+02 -0.18308702379E+02 -0.72255555940E+02  0.85082141441E+02  0.00000000000E+00 0. -1.
         11    1    1    2    0    0 -0.10100262833E+02 -0.12491024406E+01  0.30301737900E+02  0.31965151118E+02  0.00000000000E+00 0.  1.
</event>
<event>
 7    1  0.2693725E-009  0.1952714E+03  0.7561462E-02  0.1153791E+00
         -1   -1    0    0    0  501 -0.00000000000E+00  0.00000000000E+00  0.52830743742E+03  0.52830743742E+03  0.00000000000E+00 0.  1.
          1   -1    0    0  501    0  0.00000000000E+00 -0.00000000000E+00 -0.93406057438E+02  0.93406057438E+02  0.00000000000E+00 0. -1.
         25    2    1    2    0    0  0.16894215876E+03  0.63272732169E+02  0.32323698554E+03  0.39073556510E+03  0.12508893384E+03 0.  0.
          5    1    3    3  502    0  0.59193538733E+02 -0.28404272520E+02  0.51163220334E+02  0.83341617695E+02  0.41800000000E+01 0. -1.
         -5    1    3    3    0  502  0.10974862003E+03  0.91677004689E+02  0.27207376520E+03  0.30739394740E+03  0.41800000000E+01 0. -1.
        -11    1    1    2    0    0 -0.76692741038E+02 -0.17292896803E+02  0.10006362796E+03  0.12725388186E+03  0.00000000000E+00 0.  1.
         11    1    1    2    0    0 -0.92249417725E+02 -0.45979835366E+02  0.11600766491E+02  0.10372404791E+03  0.00000000000E+00 0. -1.
</event>
<event>
 7    1  0.2693725E-009  0.1842444E+03  0.7561462E-02  0.1163757E+00
          2   -1    0    0  501    0  0.00000000000E+00  0.00000000000E+00  0.49683942369E+03  0.49683942369E+03  0.00000000000E+00 0. -1.
         -2   -1    0    0    0  501 -0.00000000000E+00 -0.00000000000E+00 -0.98234468997E+02  0.98234468997E+02  0.00000000000E+00 0.  1.
         25    2    1    2    0    0  0.67689201034E+02  0.16336367395E+03  0.30685127005E+03  0.37560131579E+03  0.12509647713E+03 0.  0.
          5    1    3    3  502    0  0.32811374199E+02  0.20655296926E+02  0.17124706800E+03  0.17563102877E+03  0.41800000000E+01 0. -1.
         -5    1    3    3    0  502  0.34877826835E+02  0.14270837703E+03  0.13560420204E+03  0.19997028702E+03  0.41800000000E+01 0. -1.
        -11    1    1    2    0    0 -0.36065227050E+02 -0.13601502102E+03  0.10504689354E+03  0.17560078698E+03  0.00000000000E+00 0. -1.
         11    1    1    2    0    0 -0.31623973984E+02 -0.27348652938E+02 -0.13293208894E+02  0.43871789920E+02  0.00000000000E+00 0.  1.
</event>
<event>
 7    1  0.2693725E-009  0.1328242E+03  0.7561462E-02  0.1223324E+00
          2   -1    0    0  501    0  0.00000000000E+00  0.00000000000E+00  0.11300268894E+03  0.11300268894E+03  0.00000000000E+00 0. -1.
         -2   -1    0    0    0  501 -0.00000000000E+00 -0.00000000000E+00 -0.20774837218E+03  0.20774837218E+03  0.00000000000E+00 0.  1.
         25    2    1    2    0    0 -0.46561262952E+02  0.75530791903E+02  0.11403788878E+02  0.15378633447E+03  0.12508932223E+03 0.  0.
          5    1    3    3  502    0  0.15687019380E+02 -0.18125797993E+02  0.31155893176E+02  0.39532128826E+02  0.41800000000E+01 0. -1.
         -5    1    3    3    0  502 -0.62248282332E+02  0.93656589896E+02 -0.19752104297E+02  0.11425420565E+03  0.41800000000E+01 0. -1.
        -11    1    1    2    0    0 -0.13067888682E+02 -0.67335449727E+02 -0.59753933504E+02  0.90969033598E+02  0.00000000000E+00 0.  1.
         11    1    1    2    0    0  0.59629151634E+02 -0.81953421762E+01 -0.46395538613E+02  0.75995693043E+02  0.00000000000E+00 0. -1.
</event>
<event>
 7    1  0.2693725E-009  0.1531850E+03  0.7561462E-02  0.1196613E+00
          1   -1    0    0  501    0  0.00000000000E+00  0.00000000000E+00  0.65377196340E+03  0.65377196340E+03  0.00000000000E+00 0. -1.
         -1   -1    0    0    0  501 -0.00000000000E+00 -0.00000000000E+00 -0.38482483009E+02  0.38482483009E+02  0.00000000000E+00 0.  1.
         25    2    1    2    0    0  0.16841216848E+02 -0.10882889127E+03  0.40916329756E+03  0.44180253276E+03  0.12509004649E+03 0.  0.
          5    1    3    3  502    0  0.65641842000E+02 -0.92356372990E+02  0.25125462479E+03  0.27565360497E+03  0.41800000000E+01 0. -1.
         -5    1    3    3    0  502 -0.48800625151E+02 -0.16472518280E+02  0.15790867276E+03  0.16614892779E+03  0.41800000000E+01 0. -1.
        -11    1    1    2    0    0  0.35802028828E+02  0.31048524155E+02  0.83233946649E+02  0.95779361008E+02  0.00000000000E+00 0.  1.
         11    1    1    2    0    0 -0.52643245676E+02  0.77780367115E+02  0.12289223618E+03  0.15467255263E+03  0.00000000000E+00 0. -1.
</event>
<event>
 7    1  0.2693725E-009  0.1020203E+03  0.7561462E-02  0.1276104E+00
          2   -1    0    0  501    0  0.00000000000E+00  0.00000000000E+00  0.36837163627E+03  0.36837163627E+03  0.00000000000E+00 0. -1.
         -2   -1    0    0    0  501 -0.00000000000E+00 -0.00000000000E+00 -0.33980998547E+02  0.33980998547E+02  0.00000000000E+00 0.  1.
         25    2    1    2    0    0 -0.11146380335E+02 -0.22975534387E+02  0.17593543561E+03  0.21737250595E+03  0.12508162082E+03 0.  0.
          5    1    3    3  502    0 -0.21558970633E+02  0.40028908459E+02  0.22034052851E+02  0.50695903308E+02  0.41800000000E+01 0. -1.
         -5    1    3    3    0  502  0.10412590298E+02 -0.63004442845E+02  0.15390138276E+03  0.16667660265E+03  0.41800000000E+01 0. -1.
        -11    1    1    2    0    0 -0.25100064264E+02  0.45320694778E+02  0.73142836456E+02  0.89631764046E+02  0.00000000000E+00 0.  1.
         11    1    1    2    0    0  0.36246444599E+02 -0.22345160392E+02  0.85312365655E+02  0.95348364814E+02  0.00000000000E+00 0. -1.
</event>
<event>
 7    1  0.2693725E-009  0.1617911E+03  0.7561462E-02  0.1186689E+00
          2   -1    0    0  501    0  0.00000000000E+00  0.00000000000E+00  0.17160440917E+03  0.17160440917E+03  0.00000000000E+00 0.  1.
         -2   -1    0    0    0  501 -0.00000000000E+00 -0.00000000000E+00 -0.21428419156E+03  0.21428419156E+03  0.00000000000E+00 0. -1.
         25    2    1    2    0    0  0.13184973737E+03 -0.64754810862E+02  0.33631831626E+02  0.19584480106E+03  0.12508615922E+03 0.  0.
          5    1    3    3  502    0  0.98731891731E+01 -0.14089542185E+02 -0.40588290734E+02  0.44281788673E+02  0.41800000000E+01 0. -1.
         -5    1    3    3    0  502  0.12197654820E+03 -0.50665268677E+02  0.74220122359E+02  0.15156301239E+03  0.41800000000E+01 0. -1.
        -11    1    1    2    0    0 -0.39909437979E+02  0.71138826684E+02 -0.41575218501E+02  0.91553234215E+02  0.00000000000E+00 0.  1.
         11    1    1    2    0    0 -0.91940299395E+02 -0.63840158221E+01 -0.34736395519E+02  0.98490565460E+02  0.00000000000E+00 0. -1.
</event>
<event>
 7    1  0.2693725E-009  0.8973834E+02  0.7561462E-02  0.1303487E+00
         -3   -1    0    0    0  501 -0.00000000000E+00  0.00000000000E+00  0.18771360883E+03  0.18771360883E+03  0.00000000000E+00 0.  1.
          3   -1    0    0  501    0  0.00000000000E+00 -0.00000000000E+00 -0.10233981029E+03  0.10233981029E+03  0.00000000000E+00 0. -1.
         25    2    1    2    0    0 -0.64443652715E+02 -0.46968680467E+02  0.11907488641E+02  0.14883014790E+03  0.12509829463E+03 0.  0.
          5    1    3    3  502    0 -0.54346144252E+02 -0.51816883072E+02 -0.47024521042E+02  0.88697636640E+02  0.41800000000E+01 0.  1.
         -5    1    3    3    0  502 -0.10097508463E+02  0.48482026050E+01  0.58932009683E+02  0.60132511264E+02  0.41800000000E+01 0.  1.
        -11    1    1    2    0    0  0.25376528760E+02  0.46811583708E+02 -0.50884721028E+01  0.53490047014E+02  0.00000000000E+00 0. -1.
         11    1    1    2    0    0  0.39067123954E+02  0.15709675903E+00  0.78554782007E+02  0.87733224206E+02  0.00000000000E+00 0.  1.
</event>
<event>
 7    1  0.2693725E-009  0.1248243E+03  0.7561462E-02  0.1235344E+00
         -2   -1    0    0    0  501 -0.00000000000E+00  0.00000000000E+00  0.28390551577E+03  0.28390551577E+03  0.00000000000E+00 0.  1.
          2   -1    0    0  501    0  0.00000000000E+00 -0.00000000000E+00 -0.63670790566E+02  0.63670790566E+02  0.00000000000E+00 0. -1.
         25    2    1    2    0    0 -0.63619275360E+02  0.33190780552E+02  0.14252644253E+03  0.20275709693E+03  0.12509042099E+03 0.  0.
          5    1    3    3  502    0 -0.82669399165E+02  0.65736800409E+02  0.11253403020E+03  0.15439215277E+03  0.41800000000E+01 0.  1.
         -5    1    3    3    0  502  0.19050123805E+02 -0.32546019857E+02  0.29992412338E+02  0.48364944158E+02  0.41800000000E+01 0.  1.
        -11    1    1    2    0    0  0.28308013037E+02 -0.56843880087E+02  0.80138605975E+02  0.10224855243E+03  0.00000000000E+00 0.  1.
         11    1    1    2    0    0  0.35311262324E+02  0.23653099535E+02 -0.24303233006E+01  0.42570656982E+02  0.00000000000E+00 0. -1.
</event>
<event>
 7    1  0.2693725E-009  0.1302248E+03  0.7561462E-02  0.1227123E+00
          2   -1    0    0  501    0  0.00000000000E+00  0.00000000000E+00  0.70042871297E+02  0.70042871297E+02  0.00000000000E+00 0. -1.
         -2   -1    0    0    0  501 -0.00000000000E+00 -0.00000000000E+00 -0.33247794524E+03  0.33247794524E+03  0.00000000000E+00 0.  1.
         25    2    1    2    0    0  0.14920326198E+02  0.84341262138E+02 -0.56480261213E+02  0.16178128290E+03  0.12508836460E+03 0.  0.
          5    1    3    3  502    0 -0.53657672900E+02  0.23146090567E+02 -0.31142981593E+02  0.66349416516E+02  0.41800000000E+01 0.  1.
         -5    1    3    3    0  502  0.68577999098E+02  0.61195171571E+02 -0.25337279619E+02  0.95431866388E+02  0.41800000000E+01 0.  1.
        -11    1    1    2    0    0 -0.40878108747E+02 -0.33812298848E+02 -0.43387588390E+02  0.68533015069E+02  0.00000000000E+00 0. -1.
         11    1    1    2    0    0  0.25957782549E+02 -0.50528963290E+02 -0.16256722434E+03  0.17220651856E+03  0.00000000000E+00 0.  1.
</event>
<event>
 7    1  0.2693725E-009  0.1255993E+03  0.7561462E-02  0.1234136E+00
         -1   -1    0    0    0  501 -0.00000000000E+00  0.00000000000E+00  0.17828838580E+03  0.17828838580E+03  0.00000000000E+00 0.  1.
          1   -1    0    0  501    0  0.00000000000E+00 -0.00000000000E+00 -0.11053096571E+03  0.11053096571E+03  0.00000000000E+00 0. -1.
         25    2    1    2    0    0 -0.67332984266E+02  0.52927932566E+02  0.63569099310E+02  0.16438887055E+03  0.12509026165E+03 0.  0.
          5    1    3    3  502    0  0.80806421890E+00  0.63015150208E+02  0.70945084352E+02  0.94985470032E+02  0.41800000000E+01 0.  1.
         -5    1    3    3    0  502 -0.68141048484E+02 -0.10087217642E+02 -0.73759850427E+01  0.69403400520E+02  0.41800000000E+01 0.  1.
        -11    1    1    2    0    0  0.84918438161E+02 -0.55222533792E+02  0.16786803749E+02  0.10267651220E+03  0.00000000000E+00 0.  1.
         11    1    1    2    0    0 -0.17585453895E+02  0.22946012268E+01 -0.12598482972E+02  0.21753968757E+02  0.00000000000E+00 0. -1.
</event>
<event>
 7    1  0.2693725E-009  0.8397471E+02  0.7561462E-02  0.1318136E+00
         -1   -1    0    0    0  501 -0.00000000000E+00  0.00000000000E+00  0.56370618732E+02  0.56370618732E+02  0.00000000000E+00 0.  1.
          1   -1    0    0  501    0  0.00000000000E+00 -0.00000000000E+00 -0.21456341562E+03  0.21456341562E+03  0.00000000000E+00 0. -1.
         25    2    1    2    0    0  0.23459868269E+02  0.37210332433E+01 -0.12274042793E+03  0.17685600183E+03  0.12509444923E+03 0.  0.
          5    1    3    3  502    0  0.37953548398E+02  0.46140934754E+02 -0.17508853090E+02  0.62397836761E+02  0.41800000000E+01 0. -1.
         -5    1    3    3    0  502 -0.14493680130E+02 -0.42419901510E+02 -0.10523157484E+03  0.11445816507E+03  0.41800000000E+01 0. -1.
        -11    1    1    2    0    0 -0.33742598263E+02 -0.23242114413E+02 -0.52213230992E+02  0.66370025694E+02  0.00000000000E+00 0. -1.
         11    1    1    2    0    0  0.10282729994E+02  0.19521081170E+02  0.16760862035E+02  0.27708006827E+02  0.00000000000E+00 0.  1.
</event>
<event>
 7    1  0.2693725E-009  0.1119363E+03  0.7561462E-02  0.1257026E+00
          1   -1    0    0  501    0  0.00000000000E+00  0.00000000000E+00  0.29260248116E+03  0.29260248116E+03  0.00000000000E+00 0. -1.
         -1   -1    0    0    0  501 -0.00000000000E+00 -0.00000000000E+00 -0.46330876383E+02  0.46330876383E+02  0.00000000000E+00 0.  1.
         25    2    1    2    0    0  0.20320442444E+02 -0.36246356666E+02  0.13219976610E+03  0.18668793715E+03  0.12509551938E+03 0.  0.
          5    1    3    3  502    0  0.42510277314E+01 -0.77969754793E+02  0.11398265062E+03  0.13822760557E+03  0.41800000000E+01 0.  1.
         -5    1    3    3    0  502  0.16069414713E+02  0.41723398127E+02  0.18217115471E+02  0.48460331578E+02  0.41800000000E+01 0.  1.
        -11    1    1    2    0    0 -0.55463600258E+02  0.87541733677E+01  0.60974831860E+02  0.82890147939E+02  0.00000000000E+00 0.  1.
         11    1    1    2    0    0  0.35143157814E+02  0.27492183298E+02  0.53097006822E+02  0.69355272453E+02  0.00000000000E+00 0. -1.
</event>
<event>
 7    1  0.2693725E-009  0.8555783E+02  0.7561462E-02  0.1313980E+00
         -4   -1    0    0    0  501 -0.00000000000E+00  0.00000000000E+00  0.26457096630E+03  0.26457096630E+03  0.00000000000E+00 0.  1.
          4   -1    0    0  501    0  0.00000000000E+00 -0.00000000000E+00 -0.47913939962E+02  0.47913939962E+02  0.00000000000E+00 0. -1.
         25    2    1    2    0    0  0.21950195055E+02 -0.24333349684E+02  0.11624723397E+03  0.17388095920E+03  0.12508895074E+03 0.  0.
          5    1    3    3  502    0 -0.25713803013E+02 -0.23155190284E+02 -0.12104065594E+02  0.36896386088E+02  0.41800000000E+01 0.  1.
         -5    1    3    3    0  502  0.47663998068E+02 -0.11781594003E+01  0.12835129957E+03  0.13698457312E+03  0.41800000000E+01 0.  1.
        -11    1    1    2    0    0  0.31423487146E+02  0.11866473754E+02  0.65528082502E+02  0.73635442147E+02  0.00000000000E+00 0.  1.
         11    1    1    2    0    0 -0.53373682201E+02  0.12466875931E+02  0.34881709859E+02  0.64968504907E+02  0.00000000000E+00 0. -1.
</event>
<event>
 7    1  0.2693725E-009  0.9041026E+02  0.7561462E-02  0.1301861E+00
         -2   -1    0    0    0  501 -0.00000000000E+00  0.00000000000E+00  0.37345423068E+03  0.37345423068E+03  0.00000000000E+00 0.  1.
          2   -1    0    0  501    0  0.00000000000E+00 -0.00000000000E+00 -0.42868689400E+02  0.42868689400E+02  0.00000000000E+00 0. -1.
         25    2    1    2    0    0  0.29748078165E+02 -0.45552107003E+02  0.12479325781E+03  0.18488194582E+03  0.12509210242E+03 0.  0.
          5    1    3    3  502    0  0.52153825668E+02 -0.44255016192E+02  0.11714128031E+02  0.69521372149E+02  0.41800000000E+01 0.  1.
         -5    1    3    3    0  502 -0.22405747503E+02 -0.12970908108E+01  0.11307912978E+03  0.11536057367E+03  0.41800000000E+01 0.  1.
        -11    1    1    2    0    0 -0.29029528265E+02 -0.12357198605E+02  0.21286571158E+02  0.38059584606E+02  0.00000000000E+00 0.  1.
         11    1    1    2    0    0 -0.71854989943E+00  0.57909305608E+02  0.18450571231E+03  0.19338138965E+03  0.00000000000E+00 0. -1.
</event>
<event>
 7    1  0.2693725E-009  0.1057136E+03  0.7561462E-02  0.1268720E+00
          2   -1    0    0  501    0  0.00000000000E+00  0.00000000000E+00  0.79120936711E+03  0.79120936711E+03  0.00000000000E+00 0. -1.
         -2   -1    0    0    0  501 -0.00000000000E+00 -0.00000000000E+00 -0.20586794865E+02  0.20586794865E+02  0.00000000000E+00 0.  1.
         25    2    1    2    0    0  0.11115699314E+02 -0.63984139239E+02  0.49541154000E+03  0.51507113688E+03  0.12509257869E+03 0.  0.
          5    1    3    3  502    0  0.17348178498E+02  0.21374099164E+02  0.26649864278E+02  0.38542172724E+02  0.41800000000E+01 0.  1.
         -5    1    3    3    0  502 -0.62324791846E+01 -0.85358238403E+02  0.46876167572E+03  0.47652896416E+03  0.41800000000E+01 0.  1.
        -11    1    1    2    0    0 -0.42053427904E+02  0.45031756252E+02  0.23326429912E+03  0.24126455006E+03  0.00000000000E+00 0. -1.
         11    1    1    2    0    0  0.30937728590E+02  0.18952382987E+02  0.41946733130E+02  0.55460475038E+02  0.00000000000E+00 0.  1.
</event>
<event>
 7    1  0.2693725E-009  0.1057321E+03  0.7561462E-02  0.1268684E+00
         -2   -1    0    0    0  501 -0.00000000000E+00  0.00000000000E+00  0.66889646145E+02  0.66889646145E+02  0.00000000000E+00 0.  1.
          2   -1    0    0  501    0  0.00000000000E+00 -0.00000000000E+00 -0.18089890998E+03  0.18089890998E+03  0.00000000000E+00 0. -1.
         25    2    1    2    0    0  0.20268307306E+02  0.20293502697E+01 -0.64531300601E+02  0.14222168689E+03  0.12509115445E+03 0.  0.
          5    1    3    3  502    0 -0.12477653849E+01 -0.56180139587E+02 -0.55994186301E+02  0.79439198775E+02  0.41800000000E+01 0.  1.
         -5    1    3    3    0  502  0.21516072691E+02  0.58209489857E+02 -0.85371142998E+01  0.62782488116E+02  0.41800000000E+01 0.  1.
        -11    1    1    2    0    0 -0.56339922615E+02  0.33777028716E+01 -0.25629267711E+02  0.61987540041E+02  0.00000000000E+00 0.  1.
         11    1    1    2    0    0  0.36071615309E+02 -0.54070531413E+01 -0.23848695520E+02  0.43579329190E+02  0.00000000000E+00 0. -1.
</event>
<event>
 7    1  0.3050227E-009  0.1526827E+03  0.7561462E-02  0.1197215E+00
         -2   -1    0    0    0  501 -0.00000000000E+00  0.00000000000E+00  0.13705263905E+03  0.13705263905E+03  0.00000000000E+00 0.  1.
          2   -1    0    0  501    0  0.00000000000E+00 -0.00000000000E+00 -0.19533347104E+03  0.19533347104E+03  0.00000000000E+00 0. -1.
         25    2    1    2    0    0  0.14951009485E+02  0.12093901366E+03 -0.40372947996E+02  0.17924127606E+03  0.12509069671E+03 0.  0.
          5    1    3    3  502    0 -0.46746601263E+02  0.30000291378E+02  0.12700660293E+02  0.57131789612E+02  0.41800000000E+01 0.  1.
         -5    1    3    3    0  502  0.61697610749E+02  0.90938722287E+02 -0.53073608289E+02  0.12210948645E+03  0.41800000000E+01 0.  1.
        -11    1    1    2    0    0  0.22492086149E+02 -0.84504701954E+02 -0.40322239370E+02  0.96295490961E+02  0.00000000000E+00 0. -1.
         11    1    1    2    0    0 -0.37443095634E+02 -0.36434311711E+02  0.22414355384E+02  0.56849343073E+02  0.00000000000E+00 0.  1.
</event>
<event>
 7    1  0.2693725E-009  0.1141094E+03  0.7561462E-02  0.1253144E+00
          2   -1    0    0  501    0  0.00000000000E+00  0.00000000000E+00  0.12315566556E+03  0.12315566556E+03  0.00000000000E+00 0.  1.
         -2   -1    0    0    0  501 -0.00000000000E+00 -0.00000000000E+00 -0.16518432276E+03  0.16518432276E+03  0.00000000000E+00 0. -1.
         25    2    1    2    0    0  0.63479812341E+02 -0.77541377994E+02 -0.46202889687E+01  0.16034942586E+03  0.12509292317E+03 0.  0.
          5    1    3    3  502    0  0.72473652087E+02 -0.34880321106E+02  0.46526448590E+02  0.93012095266E+02  0.41800000000E+01 0. -1.
         -5    1    3    3    0  502 -0.89938397468E+01 -0.42661056888E+02 -0.51146737559E+02  0.67337330591E+02  0.41800000000E+01 0. -1.
        -11    1    1    2    0    0 -0.27289929941E+02  0.13795481400E+02  0.18554381284E+02  0.35767592148E+02  0.00000000000E+00 0.  1.
         11    1    1    2    0    0 -0.36189882400E+02  0.63745896594E+02 -0.55962749516E+02  0.92222970317E+02  0.00000000000E+00 0. -1.
</event>
<event>
 7    1  0.2693725E-009  0.8070551E+02  0.7561462E-02  0.1327061E+00
         -1   -1    0    0    0  501 -0.00000000000E+00  0.00000000000E+00  0.17281087963E+02  0.17281087963E+02  0.00000000000E+00 0.  1.
          1   -1    0    0  501    0  0.00000000000E+00 -0.00000000000E+00 -0.67636821449E+03  0.67636821449E+03  0.00000000000E+00 0. -1.
         25    2    1    2    0    0 -0.73960091001E+01  0.13535529777E+01 -0.30051257063E+03  0.32559532773E+03  0.12509188333E+03 0.  0.
          5    1    3    3  502    0 -0.21255000412E+02  0.35441045379E+02 -0.28038570806E+03  0.28344569220E+03  0.41800000000E+01 0. -1.
         -5    1    3    3    0  502  0.13858991312E+02 -0.34087492402E+02 -0.20126862569E+02  0.42149635530E+02  0.41800000000E+01 0. -1.
        -11    1    1    2    0    0  0.44966253291E+02  0.27285795966E+01 -0.18378295615E+03  0.18922363503E+03  0.00000000000E+00 0. -1.
         11    1    1    2    0    0 -0.37570244191E+02 -0.40821325743E+01 -0.17479159974E+03  0.17883033970E+03  0.00000000000E+00 0.  1.
</event>
<event>
 7    1  0.2693725E-009  0.9905066E+02  0.7561462E-02  0.1282305E+00
         -1   -1    0    0    0  501 -0.00000000000E+00  0.00000000000E+00  0.74385932140E+03  0.74385932140E+03  0.00000000000E+00 0.  1.
          1   -1    0    0  501    0  0.00000000000E+00 -0.00000000000E+00 -0.18952249806E+02  0.18952249806E+02  0.00000000000E+00 0. -1.
         25    2    1    2    0    0  0.21544332855E+02 -0.34516244498E+02  0.35670306325E+03  0.38018889955E+03  0.12510393520E+03 0.  0.
          5    1    3    3  502    0 -0.19394235345E+02 -0.49696231377E+02  0.60553134669E+02  0.80808454359E+02  0.41800000000E+01 0. -1.
         -5    1    3    3    0  502  0.40938568200E+02  0.15179986879E+02  0.29614992858E+03  0.29938044520E+03  0.41800000000E+01 0. -1.
        -11    1    1    2    0    0 -0.53727169337E+02  0.26119144633E+00  0.24345383848E+03  0.24931195001E+03  0.00000000000E+00 0.  1.
         11    1    1    2    0    0  0.32182836481E+02  0.34255053052E+02  0.12475016986E+03  0.13331072164E+03  0.00000000000E+00 0. -1.
</event>
<event>
 7    1  0.2693725E-009  0.1829258E+03  0.7561462E-02  0.1165001E+00
          3   -1    0    0  501    0  0.00000000000E+00  0.00000000000E+00  0.15839477792E+03  0.15839477792E+03  0.00000000000E+00 0. -1.
         -3   -1    0    0    0  501 -0.00000000000E+00 -0.00000000000E+00 -0.28267393405E+03  0.28267393405E+03  0.00000000000E+00 0.  1.
         25    2    1    2    0    0 -0.32473151559E+02  0.16340139524E+03 -0.13969745165E+03  0.25083326720E+03  0.12508968140E+03 0.  0.
          5    1    3    3  502    0  0.38963139524E+02  0.76219847441E+02 -0.23431659855E+02  0.88848784286E+02  0.41800000000E+01 0.  1.
         -5    1    3    3    0  502 -0.71436291083E+02  0.87181547802E+02 -0.11626579180E+03  0.16198448291E+03  0.41800000000E+01 0.  1.
        -11    1    1    2    0    0  0.46112045093E+00 -0.35840974802E+02 -0.34323198064E+02  0.49627311353E+02  0.00000000000E+00 0. -1.
         11    1    1    2    0    0  0.32012031108E+02 -0.12756042044E+03  0.49741493585E+02  0.14060813342E+03  0.00000000000E+00 0.  1.
</event>
<event>
 7    1  0.2693725E-009  0.9434079E+02  0.7561462E-02  0.1292668E+00
         -1   -1    0    0    0  501 -0.00000000000E+00  0.00000000000E+00  0.59146804479E+02  0.59146804479E+02  0.00000000000E+00 0.  1.
          1   -1    0    0  501    0  0.00000000000E+00 -0.00000000000E+00 -0.31306679072E+03  0.31306679072E+03  0.00000000000E+00 0. -1.
         25    2    1    2    0    0  0.25832025667E+02  0.81424901657E+02 -0.14592052082E+03  0.21032794890E+03  0.12509092505E+03 0.  0.
          5    1    3    3  502    0  0.10417471562E+02  0.13593991406E+02  0.22193444498E+02  0.28343283063E+02  0.41800000000E+01 0.  1.
         -5    1    3    3    0  502  0.15414554105E+02  0.67830910252E+02 -0.16811396532E+03  0.18198466583E+03  0.41800000000E+01 0.  1.
        -11    1    1    2    0    0 -0.42603903564E+02 -0.66143251538E+02 -0.36235277690E+02  0.86619961164E+02  0.00000000000E+00 0.  1.
         11    1    1    2    0    0  0.16771877897E+02 -0.15281650120E+02 -0.71764187730E+02  0.75265685137E+02  0.00000000000E+00 0. -1.
</event>
<event>
 7    1  0.2693725E-009  0.8948900E+02  0.7561462E-02  0.1304094E+00
         -2   -1    0    0    0  501 -0.00000000000E+00  0.00000000000E+00  0.17647962739E+02  0.17647962739E+02  0.00000000000E+00 0. -1.
          2   -1    0    0  501    0  0.00000000000E+00 -0.00000000000E+00 -0.11480048698E+04  0.11480048698E+04  0.00000000000E+00 0.  1.
         25    2    1    2    0    0  0.20172050688E+02  0.29404287350E+02 -0.94729354565E+03  0.95618190563E+03  0.12508897351E+03 0.  0.
          5    1    3    3  502    0 -0.61555359709E+01 -0.28653088597E+02 -0.63270914284E+02  0.69853926901E+02  0.41800000000E+01 0.  1.
         -5    1    3    3    0  502  0.26327586659E+02  0.58057375947E+02 -0.88402263136E+03  0.88632797873E+03  0.41800000000E+01 0.  1.
        -11    1    1    2    0    0 -0.39242914033E+02  0.11047150995E+02 -0.14538523033E+03  0.15099308277E+03  0.00000000000E+00 0.  1.
         11    1    1    2    0    0  0.19070863345E+02 -0.40451438345E+02 -0.37678131092E+02  0.58477844142E+02  0.00000000000E+00 0. -1.
</event>
<event>
 7    1  0.2693725E-009  0.1653790E+03  0.7561462E-02  0.1182754E+00
          1   -1    0    0  501    0  0.00000000000E+00  0.00000000000E+00  0.16979943406E+03  0.16979943406E+03  0.00000000000E+00 0. -1.
         -1   -1    0    0    0  501 -0.00000000000E+00 -0.00000000000E+00 -0.20881071586E+03  0.20881071586E+03  0.00000000000E+00 0.  1.
         25    2    1    2    0    0 -0.55691241915E+02  0.13040840270E+03 -0.82076483474E+02  0.20613286553E+03  0.12508534363E+03 0.  0.
          5    1    3    3  502    0  0.37993042909E+02  0.17099278472E+02 -0.21430142223E+02  0.47038070002E+02  0.41800000000E+01 0.  1.
         -5    1    3    3    0  502 -0.93684284824E+02  0.11330912423E+03 -0.60646341250E+02  0.15909479553E+03  0.41800000000E+01 0.  1.
        -11    1    1    2    0    0  0.33518392305E+02 -0.77865748129E+02 -0.20358716442E+02  0.87183913021E+02  0.00000000000E+00 0.  1.
         11    1    1    2    0    0  0.22172849610E+02 -0.52542654575E+02  0.63423918114E+02  0.85293371363E+02  0.00000000000E+00 0. -1.
</event>
<event>
 7    1  0.2693725E-009  0.8965139E+02  0.7561462E-02  0.1303698E+00
          2   -1    0    0  501    0  0.00000000000E+00  0.00000000000E+00  0.49851504368E+03  0.49851504368E+03  0.00000000000E+00 0. -1.
         -2   -1    0    0    0  501 -0.00000000000E+00 -0.00000000000E+00 -0.31907663593E+02  0.31907663593E+02  0.00000000000E+00 0.  1.
         25    2    1    2    0    0 -0.22972779032E+02 -0.18469807839E+02  0.38080879614E+03  0.40191009098E+03  0.12508996617E+03 0.  0.
          5    1    3    3  502    0 -0.28830516940E+02  0.32089340902E+02  0.31809240739E+03  0.32103142610E+03  0.41800000000E+01 0.  1.
         -5    1    3    3    0  502  0.58577379089E+01 -0.50559148741E+02  0.62716388752E+02  0.80878664881E+02  0.41800000000E+01 0.  1.
        -11    1    1    2    0    0  0.23967922603E+02 -0.28881775883E+02  0.95098103637E+01  0.38717628869E+02  0.00000000000E+00 0.  1.
         11    1    1    2    0    0 -0.99514357167E+00  0.47351583722E+02  0.76288773587E+02  0.89794987427E+02  0.00000000000E+00 0. -1.
</event>
<event>
 7    1  0.2693725E-009  0.6776429E+02  0.7561462E-02  0.1367865E+00
          3   -1    0    0  501    0  0.00000000000E+00  0.00000000000E+00  0.15483869709E+03  0.15483869709E+03  0.00000000000E+00 0. -1.
         -3   -1    0    0    0  501 -0.00000000000E+00 -0.00000000000E+00 -0.96932485980E+02  0.96932485980E+02  0.00000000000E+00 0.  1.
         25    2    1    2    0    0  0.13528359391E+02 -0.58078106124E+01  0.93612310626E+02  0.15693185307E+03  0.12509034590E+03 0.  0.
          5    1    3    3  502    0 -0.24171833981E+02  0.13525014041E+02  0.10832437774E+03  0.11188765247E+03  0.41800000000E+01 0. -1.
         -5    1    3    3    0  502  0.37700193371E+02 -0.19332824653E+02 -0.14712067112E+02  0.45044200603E+02  0.41800000000E+01 0. -1.
        -11    1    1    2    0    0 -0.39099987322E+02  0.29309033927E+01 -0.51438220161E+02  0.64678355704E+02  0.00000000000E+00 0.  1.
         11    1    1    2    0    0  0.25571627932E+02  0.28769072198E+01  0.15732120642E+02  0.30160974290E+02  0.00000000000E+00 0. -1.
</event>
<event>
 7    1  0.2693725E-009  0.1719214E+03  0.7561462E-02  0.1175859E+00
          2   -1    0    0  501    0  0.00000000000E+00  0.00000000000E+00  0.14824219292E+04  0.14824219292E+04  0.00000000000E+00 0. -1.
         -2   -1    0    0    0  501 -0.00000000000E+00 -0.00000000000E+00 -0.40502795384E+02  0.40502795384E+02  0.00000000000E+00 0.  1.
         25    2    1    2    0    0  0.38007325862E+02  0.13890849584E+03  0.12592709298E+04  0.12736369244E+04  0.12509042146E+03 0.  0.
          5    1    3    3  502    0 -0.26135441498E+02  0.11876886116E+03  0.72569282987E+03  0.73582379644E+03  0.41800000000E+01 0.  1.
         -5    1    3    3    0  502  0.64142767360E+02  0.20139634685E+02  0.53357809996E+03  0.53781312800E+03  0.41800000000E+01 0.  1.
        -11    1    1    2    0    0 -0.51292292341E+02 -0.84979645239E+02  0.16208344796E+03  0.19006178853E+03  0.00000000000E+00 0. -1.
         11    1    1    2    0    0  0.13284966479E+02 -0.53928850602E+02  0.20564756035E+02  0.59226011620E+02  0.00000000000E+00 0.  1.
</event>
<event>
 7    1  0.2693725E-009  0.1058403E+03  0.7561462E-02  0.1268473E+00
         -4   -1    0    0    0  501 -0.00000000000E+00  0.00000000000E+00  0.78801317045E+02  0.78801317045E+02  0.00000000000E+00 0.  1.
          4   -1    0    0  501    0  0.00000000000E+00 -0.00000000000E+00 -0.19775824378E+03  0.19775824378E+03  0.00000000000E+00 0. -1.
         25    2    1    2    0    0 -0.33751730640E+01 -0.22742130811E+02 -0.38690392053E+01  0.12724541530E+03  0.12509128644E+03 0.  0.
          5    1    3    3  502    0  0.12494458572E+02 -0.68378900827E+02 -0.25478328132E+02  0.74151218316E+02  0.41800000000E+01 0.  1.
         -5    1    3    3    0  502 -0.15869631636E+02  0.45636770016E+02  0.21609288927E+02  0.53094196987E+02  0.41800000000E+01 0.  1.
        -11    1    1    2    0    0 -0.14340322579E+01 -0.35287971723E+02 -0.30752547738E+02  0.46829655019E+02  0.00000000000E+00 0.  1.
         11    1    1    2    0    0  0.48092053219E+01  0.58030102533E+02 -0.84335339794E+02  0.10248449050E+03  0.00000000000E+00 0. -1.
</event>
<event>
 7    1  0.2693725E-009  0.1064288E+03  0.7561462E-02  0.1267330E+00
         -1   -1    0    0    0  501 -0.00000000000E+00  0.00000000000E+00  0.59426735576E+02  0.59426735576E+02  0.00000000000E+00 0.  1.
          1   -1    0    0  501    0  0.00000000000E+00 -0.00000000000E+00 -0.22042113292E+03  0.22042113292E+03  0.00000000000E+00 0. -1.
         25    2    1    2    0    0 -0.86060354182E+01  0.36981251509E+02 -0.83837963280E+02  0.15529894714E+03  0.12508909660E+03 0.  0.
          5    1    3    3  502    0 -0.40135447345E+02 -0.31631191146E+02 -0.16014613654E+02  0.53715236548E+02  0.41800000000E+01 0. -1.
         -5    1    3    3    0  502  0.31529411927E+02  0.68612442656E+02 -0.67823349627E+02  0.10158371059E+03  0.41800000000E+01 0. -1.
        -11    1    1    2    0    0 -0.26067430507E+02 -0.43467530585E+02 -0.14622387345E+02  0.52751790112E+02  0.00000000000E+00 0.  1.
         11    1    1    2    0    0  0.34673465925E+02  0.64862790756E+01 -0.62534046716E+02  0.71797131239E+02  0.00000000000E+00 0. -1.
</event>
<event>
 7    1  0.2693725E-009  0.1315890E+03  0.7561462E-02  0.1225117E+00
         -1   -1    0    0    0  501 -0.00000000000E+00  0.00000000000E+00  0.36950560183E+02  0.36950560183E+02  0.00000000000E+00 0.  1.
          1   -1    0    0  501    0  0.00000000000E+00 -0.00000000000E+00 -0.62288043633E+03  0.62288043633E+03  0.00000000000E+00 0. -1.
         25    2    1    2    0    0  0.53118584280E+02  0.84296439698E+02 -0.37682041531E+03  0.40935110711E+03  0.12508888742E+03 0.  0.
          5    1    3    3  502    0  0.94034953398E+02  0.60604532582E+02 -0.27902008307E+03  0.30064124964E+03  0.41800000000E+01 0. -1.
         -5    1    3    3    0  502 -0.40916369118E+02  0.23691907116E+02 -0.97800332239E+02  0.10870985747E+03  0.41800000000E+01 0. -1.
        -11    1    1    2    0    0 -0.11970927210E+02 -0.46064658783E+02 -0.17341411085E+02  0.50655507356E+02  0.00000000000E+00 0.  1.
         11    1    1    2    0    0 -0.41147657070E+02 -0.38231780915E+02 -0.19176804975E+03  0.19982438204E+03  0.00000000000E+00 0. -1.
</event>
<event>
 7    1  0.2693725E-009  0.1386104E+03  0.7561462E-02  0.1215211E+00
         -3   -1    0    0    0  501 -0.00000000000E+00  0.00000000000E+00  0.27633348193E+02  0.27633348193E+02  0.00000000000E+00 0.  1.
          3   -1    0    0  501    0  0.00000000000E+00 -0.00000000000E+00 -0.79188793243E+03  0.79188793243E+03  0.00000000000E+00 0. -1.
         25    2    1    2    0    0  0.73462043102E+02 -0.74600775709E+02 -0.45519399668E+03  0.48353983392E+03  0.12508896377E+03 0.  0.
          5    1    3    3  502    0  0.71432125588E+02  0.48851201877E+01 -0.12726448677E+03  0.14608263059E+03  0.41800000000E+01 0. -1.
         -5    1    3    3    0  502  0.20299175144E+01 -0.79485895896E+02 -0.32792950991E+03  0.33745720333E+03  0.41800000000E+01 0. -1.
        -11    1    1    2    0    0 -0.79952129599E+02  0.83012576811E+02 -0.30194638979E+03  0.32319506996E+03  0.00000000000E+00 0. -1.
         11    1    1    2    0    0  0.64900864974E+01 -0.84118011018E+01 -0.71141977635E+01  0.12786376748E+02  0.00000000000E+00 0.  1.
</event>
<event>
 7    1  0.2693725E-009  0.2083219E+03  0.7561462E-02  0.1142902E+00
         -2   -1    0    0    0  501 -0.00000000000E+00  0.00000000000E+00  0.44289540756E+03  0.44289540756E+03  0.00000000000E+00 0. -1.
          2   -1    0    0  501    0  0.00000000000E+00 -0.00000000000E+00 -0.13382661139E+03  0.13382661139E+03  0.00000000000E+00 0.  1.
         25    2    1    2    0    0 -0.15751581970E+03 -0.10024328757E+03  0.29246747881E+03  0.36884203861E+03  0.12508906079E+03 0.  0.
          5    1    3    3  502    0 -0.41487733996E+02 -0.89470557878E+02  0.18776254908E+03  0.21212840460E+03  0.41800000000E+01 0. -1.
         -5    1    3    3    0  502 -0.11602808571E+03 -0.10772729688E+02  0.10470492972E+03  0.15671363401E+03  0.41800000000E+01 0. -1.
        -11    1    1    2    0    0  0.16180223754E+03  0.79738262652E+02  0.30215463778E+02  0.18289649765E+03  0.00000000000E+00 0.  1.
         11    1    1    2    0    0 -0.42864178349E+01  0.20505024914E+02 -0.13614146409E+02  0.24983482684E+02  0.00000000000E+00 0. -1.
</event>
<event>
 7    1  0.2693725E-009  0.8394978E+02  0.7561462E-02  0.1318202E+00
          2   -1    0    0  501    0  0.00000000000E+00  0.00000000000E+00  0.66851731242E+03  0.66851731242E+03  0.00000000000E+00 0.  1.
         -2   -1    0    0    0  501 -0.00000000000E+00 -0.00000000000E+00 -0.19280675224E+02  0.19280675224E+02  0.00000000000E+00 0. -1.
         25    2    1    2    0    0  0.92639033880E+01 -0.31407238147E+02  0.35021034467E+03  0.37331876352E+03  0.12508948466E+03 0.  0.
          5    1    3    3  502    0 -0.35804923938E+02 -0.48193517882E+01  0.29463580698E+03  0.29687194190E+03  0.41800000000E+01 0. -1.
         -5    1    3    3    0  502  0.45068827326E+02 -0.26587886359E+02  0.55574537686E+02  0.76446821625E+02  0.41800000000E+01 0. -1.
        -11    1    1    2    0    0  0.23946299679E+02  0.38251673738E+02  0.25471886522E+03  0.25868574779E+03  0.00000000000E+00 0.  1.
         11    1    1    2    0    0 -0.33210203067E+02 -0.68444355909E+01  0.44307427312E+02  0.55793476333E+02  0.00000000000E+00 0. -1.
</event>
<event>
 7    1  0.2693725E-009  0.1180618E+03  0.7561462E-02  0.1246329E+00
         -2   -1    0    0    0  501 -0.00000000000E+00  0.00000000000E+00  0.11770914700E+02  0.11770914700E+02  0.00000000000E+00 0.  1.
          2   -1    0    0  501    0  0.00000000000E+00 -0.00000000000E+00 -0.16201712584E+04  0.16201712584E+04  0.00000000000E+00 0. -1.
         25    2    1    2    0    0  0.67302551415E+02  0.14010038104E+02 -0.11866422727E+04  0.11951959624E+04  0.12509032967E+03 0.  0.
          5    1    3    3  502    0 -0.26297420100E+02  0.11474064703E+02 -0.63394888402E+03  0.63461158863E+03  0.41800000000E+01 0. -1.
         -5    1    3    3    0  502  0.93599971515E+02  0.25359734006E+01 -0.55269338865E+03  0.56058437374E+03  0.41800000000E+01 0. -1.
        -11    1    1    2    0    0 -0.27759635443E+02 -0.51759034334E+02 -0.21317980526E+03  0.22112264552E+03  0.00000000000E+00 0.  1.
         11    1    1    2    0    0 -0.39542915972E+02  0.37748996230E+02 -0.20857826581E+03  0.21562356524E+03  0.00000000000E+00 0. -1.
</event>
<event>
 7    1  0.2693725E-009  0.9357805E+02  0.7561462E-02  0.1294411E+00
         -1   -1    0    0    0  501 -0.00000000000E+00  0.00000000000E+00  0.21109884442E+03  0.21109884442E+03  0.00000000000E+00 0.  1.
          1   -1    0    0  501    0  0.00000000000E+00 -0.00000000000E+00 -0.70306426519E+02  0.70306426519E+02  0.00000000000E+00 0. -1.
         25    2    1    2    0    0 -0.53133336907E+02 -0.14739276634E+02  0.63303673218E+02  0.15064831790E+03  0.12508862009E+03 0.  0.
          5    1    3    3  502    0  0.81574576433E+01  0.15977869964E+02 -0.29750125186E+02  0.34991124480E+02  0.41800000000E+01 0.  1.
         -5    1    3    3    0  502 -0.61290794551E+02 -0.30717146598E+02  0.93053798404E+02  0.11565719342E+03  0.41800000000E+01 0.  1.
        -11    1    1    2    0    0  0.66326099866E+02  0.35670178696E+02  0.38498766100E+02  0.84579360147E+02  0.00000000000E+00 0. -1.
         11    1    1    2    0    0 -0.13192762959E+02 -0.20930902061E+02  0.38989978586E+02  0.46177592897E+02  0.00000000000E+00 0.  1.
</event>
<event>
 7    1  0.2693725E-009  0.1020126E+03  0.7561462E-02  0.1276120E+00
         -1   -1    0    0    0  501 -0.00000000000E+00  0.00000000000E+00  0.51060337771E+02  0.51060337771E+02  0.00000000000E+00 0.  1.
          1   -1    0    0  501    0  0.00000000000E+00 -0.00000000000E+00 -0.31981300897E+03  0.31981300897E+03  0.00000000000E+00 0. -1.
         25    2    1    2    0    0 -0.14899355049E+02  0.17213821552E+02 -0.24173504577E+03  0.27313842155E+03  0.12510179271E+03 0.  0.
          5    1    3    3  502    0 -0.62067438858E+02  0.30616622228E+02 -0.89923623926E+02  0.11354943885E+03  0.41800000000E+01 0.  1.
         -5    1    3    3    0  502  0.47168083809E+02 -0.13402800676E+02 -0.15181142185E+03  0.15958898270E+03  0.41800000000E+01 0.  1.
        -11    1    1    2    0    0 -0.75580542922E+01  0.31203544591E+02 -0.30454592859E+02  0.44252317520E+02  0.00000000000E+00 0. -1.
         11    1    1    2    0    0  0.22457409341E+02 -0.48417366142E+02  0.34369674309E+01  0.53482607674E+02  0.00000000000E+00 0.  1.
</event>
<event>
 7    1  0.2693725E-009  0.1079282E+03  0.7561462E-02  0.1264455E+00
          2   -1    0    0  501    0  0.00000000000E+00  0.00000000000E+00  0.89992149842E+03  0.89992149842E+03  0.00000000000E+00 0. -1.
         -2   -1    0    0    0  501 -0.00000000000E+00 -0.00000000000E+00 -0.19414416489E+02  0.19414416489E+02  0.00000000000E+00 0.  1.
         25    2    1    2    0    0 -0.59990605146E+02 -0.38289954772E+02  0.45939634341E+03  0.48141222929E+03  0.12509093022E+03 0.  0.
          5    1    3    3  502    0 -0.19276565213E+02 -0.56679112021E+02  0.83399098624E+02  0.10274721289E+03  0.41800000000E+01 0.  1.
         -5    1    3    3    0  502 -0.40714039933E+02  0.18389157249E+02  0.37599724479E+03  0.37866501639E+03  0.41800000000E+01 0.  1.
        -11    1    1    2    0    0 -0.21266255212E+02  0.16298970819E+02  0.43872727705E+02  0.51407453708E+02  0.00000000000E+00 0.  1.
         11    1    1    2    0    0  0.81256860358E+02  0.21990983953E+02  0.37723801081E+03  0.38651623191E+03  0.00000000000E+00 0. -1.
</event>
<event>
 7    1  0.2693725E-009  0.7901502E+02  0.7561462E-02  0.1331870E+00
         -2   -1    0    0    0  501 -0.00000000000E+00  0.00000000000E+00  0.41463614460E+02  0.41463614460E+02  0.00000000000E+00 0.  1.
          2   -1    0    0  501    0  0.00000000000E+00 -0.00000000000E+00 -0.35704142132E+03  0.35704142132E+03  0.00000000000E+00 0. -1.
         25    2    1    2    0    0 -0.20306905689E+02 -0.35657371562E+02 -0.24000788577E+03  0.27374417944E+03  0.12509305330E+03 0.  0.
          5    1    3    3  502    0 -0.37697597056E+02 -0.71009524321E+01 -0.23676977346E+03  0.23989358135E+03  0.41800000000E+01 0.  1.
         -5    1    3    3    0  502  0.17390691367E+02 -0.28556419130E+02 -0.32381123059E+01  0.33850598090E+02  0.41800000000E+01 0.  1.
        -11    1    1    2    0    0 -0.35002559422E+01 -0.22570477040E+02 -0.53369632436E+02  0.58051665711E+02  0.00000000000E+00 0. -1.
         11    1    1    2    0    0  0.23807161631E+02  0.58227848602E+02 -0.22200288659E+02  0.66709190628E+02  0.00000000000E+00 0.  1.
</event>
<event>
 7    1  0.2693725E-009  0.1220220E+03  0.7561462E-02  0.1239798E+00
         -3   -1    0    0    0  501 -0.00000000000E+00  0.00000000000E+00  0.53368293917E+02  0.53368293917E+02  0.00000000000E+00 0.  1.
          3   -1    0    0  501    0  0.00000000000E+00 -0.00000000000E+00 -0.46116181002E+03  0.46116181002E+03  0.00000000000E+00 0. -1.
         25    2    1    2    0    0 -0.76195410588E+02  0.61144494289E+02 -0.12937242330E+03  0.20476202199E+03  0.12508345999E+03 0.  0.
          5    1    3    3  502    0 -0.89100998408E+00  0.37655325851E+02  0.14543663044E+02  0.40591969630E+02  0.41800000000E+01 0.  1.
         -5    1    3    3    0  502 -0.75304400604E+02  0.23489168438E+02 -0.14391608634E+03  0.16417005236E+03  0.41800000000E+01 0.  1.
        -11    1    1    2    0    0  0.96290904787E+01 -0.59803312472E+02 -0.18773628412E+03  0.19726648965E+03  0.00000000000E+00 0. -1.
         11    1    1    2    0    0  0.66566320109E+02 -0.13411818175E+01 -0.90684808688E+02  0.11250159229E+03  0.00000000000E+00 0.  1.
</event>
<event>
 7    1  0.2693725E-009  0.1310606E+03  0.7561462E-02  0.1225890E+00
          1   -1    0    0  501    0  0.00000000000E+00  0.00000000000E+00  0.19664108727E+03  0.19664108727E+03  0.00000000000E+00 0. -1.
         -1   -1    0    0    0  501 -0.00000000000E+00 -0.00000000000E+00 -0.10160822837E+03  0.10160822837E+03  0.00000000000E+00 0.  1.
         25    2    1    2    0    0  0.63118865575E+02 -0.26841014421E+02  0.86905951027E+02  0.16705148127E+03  0.12509645009E+03 0.  0.
          5    1    3    3  502    0  0.84453271678E+02  0.16427122075E+02  0.81053129758E+02  0.11827631919E+03  0.41800000000E+01 0. -1.
         -5    1    3    3    0  502 -0.21334406103E+02 -0.43268136496E+02  0.58528212688E+01  0.48775162085E+02  0.41800000000E+01 0. -1.
        -11    1    1    2    0    0 -0.87678360500E+02  0.43508187305E+02 -0.65255789483E+01  0.98097097017E+02  0.00000000000E+00 0.  1.
         11    1    1    2    0    0  0.24559494925E+02 -0.16667172884E+02  0.14652486824E+02  0.33100737349E+02  0.00000000000E+00 0. -1.
</event>
<event>
 7    1  0.2693725E-009  0.9445348E+02  0.7561462E-02  0.1292412E+00
         -2   -1    0    0    0  501 -0.00000000000E+00  0.00000000000E+00  0.73474473936E+02  0.73474473936E+02  0.00000000000E+00 0.  1.
          2   -1    0    0  501    0  0.00000000000E+00 -0.00000000000E+00 -0.22890650458E+03  0.22890650458E+03  0.00000000000E+00 0. -1.
         25    2    1    2    0    0  0.44973589634E+02 -0.25008645075E+02 -0.14091541844E+03  0.19532621409E+03  0.12508844336E+03 0.  0.
          5    1    3    3  502    0  0.69841893770E+02  0.12204064955E+02 -0.32786649081E+02  0.78225737994E+02  0.41800000000E+01 0. -1.
         -5    1    3    3    0  502 -0.24868304136E+02 -0.37212710030E+02 -0.10812876936E+03  0.11710047609E+03  0.41800000000E+01 0. -1.
        -11    1    1    2    0    0 -0.56037742651E+02  0.26092270650E+02  0.24494362623E+02  0.66490668439E+02  0.00000000000E+00 0.  1.
         11    1    1    2    0    0  0.11064153017E+02 -0.10836255753E+01 -0.39010974833E+02  0.40564095994E+02  0.00000000000E+00 0. -1.
</event>
<event>
 7    1  0.2693725E-009  0.1213184E+03  0.7561462E-02  0.1240938E+00
         -1   -1    0    0    0  501 -0.00000000000E+00  0.00000000000E+00  0.11770799412E+03  0.11770799412E+03  0.00000000000E+00 0.  1.
          1   -1    0    0  501    0  0.00000000000E+00 -0.00000000000E+00 -0.16906656369E+03  0.16906656369E+03  0.00000000000E+00 0. -1.
         25    2    1    2    0    0  0.76395314821E+02  0.30952014966E+02  0.77704354095E+01  0.15000857339E+03  0.12509165067E+03 0.  0.
          5    1    3    3  502    0  0.84257857883E+02 -0.28473976822E+01 -0.37875208732E+02  0.92517555767E+02  0.41800000000E+01 0.  1.
         -5    1    3    3    0  502 -0.78625430627E+01  0.33799412648E+02  0.45645644142E+02  0.57491017628E+02  0.41800000000E+01 0.  1.
        -11    1    1    2    0    0  0.19672963941E+02  0.56524208680E+01 -0.11268851934E+02  0.23365838222E+02  0.00000000000E+00 0. -1.
         11    1    1    2    0    0 -0.96068278762E+02 -0.36604435833E+02 -0.47860153047E+02  0.11340014619E+03  0.00000000000E+00 0.  1.
</event>
<event>
 7    1  0.2693725E-009  0.1260144E+03  0.7561462E-02  0.1233492E+00
         -2   -1    0    0    0  501 -0.00000000000E+00  0.00000000000E+00  0.49914476729E+02  0.49914476729E+02  0.00000000000E+00 0.  1.
          2   -1    0    0  501    0  0.00000000000E+00 -0.00000000000E+00 -0.14130917431E+04  0.14130917431E+04  0.00000000000E+00 0. -1.
         25    2    1    2    0    0  0.82823238973E+02 -0.28508256201E+02 -0.13215747775E+04  0.13303690111E+04  0.12509757650E+03 0.  0.
          5    1    3    3  502    0  0.83931152681E+02 -0.54883512008E+02 -0.12490475898E+04  0.12530738175E+04  0.41800000000E+01 0.  1.
         -5    1    3    3    0  502 -0.11079137082E+01  0.26375255807E+02 -0.72527187717E+02  0.77295193575E+02  0.41800000000E+01 0.  1.
        -11    1    1    2    0    0  0.18090383478E+02 -0.47060424501E+01 -0.12490593560E+02  0.22481631111E+02  0.00000000000E+00 0. -1.
         11    1    1    2    0    0 -0.10091362245E+03  0.33214298651E+02 -0.29111895337E+02  0.11015557762E+03  0.00000000000E+00 0.  1.
</event>
<event>
 7    1  0.2693726E-009  0.1648613E+03  0.7561462E-02  0.1183315E+00
         -2   -1    0    0    0  501 -0.00000000000E+00  0.00000000000E+00  0.49848226637E+02  0.49848226637E+02  0.00000000000E+00 0.  1.
          2   -1    0    0  501    0  0.00000000000E+00 -0.00000000000E+00 -0.76542948769E+03  0.76542948769E+03  0.00000000000E+00 0. -1.
         25    2    1    2    0    0  0.13686806703E+02 -0.13994715220E+03 -0.20737521975E+03  0.28004449346E+03  0.12509157631E+03 0.  0.
          5    1    3    3  502    0  0.16093804531E+02 -0.16337636311E+03 -0.18335857545E+03  0.24614769176E+03  0.41800000000E+01 0. -1.
         -5    1    3    3    0  502 -0.24069978286E+01  0.23429210907E+02 -0.24016644296E+02  0.33896801700E+02  0.41800000000E+01 0. -1.
        -11    1    1    2    0    0 -0.17299342987E+02  0.10135041001E+03 -0.46885104363E+03  0.47999216034E+03  0.00000000000E+00 0. -1.
         11    1    1    2    0    0  0.36125362839E+01  0.38596742191E+02 -0.39354997674E+02  0.55241060526E+02  0.00000000000E+00 0.  1.
</event>
<event>
 7    1  0.2693725E-009  0.1137926E+03  0.7561462E-02  0.1253704E+00
         -2   -1    0    0    0  501 -0.00000000000E+00  0.00000000000E+00  0.11249488084E+03  0.11249488084E+03  0.00000000000E+00 0.  1.
          2   -1    0    0  501    0  0.00000000000E+00 -0.00000000000E+00 -0.37847780926E+03  0.37847780926E+03  0.00000000000E+00 0. -1.
         25    2    1    2    0    0  0.45844786886E+02  0.88877565454E+02  0.32293073452E+02  0.16336155140E+03  0.12507272987E+03 0.  0.
          5    1    3    3  502    0 -0.48164378108E+01  0.26020870506E+02 -0.44447944771E+02  0.51897745321E+02  0.41800000000E+01 0.  1.
         -5    1    3    3    0  502  0.50661224697E+02  0.62856694948E+02  0.76741018222E+02  0.11146380608E+03  0.41800000000E+01 0.  1.
        -11    1    1    2    0    0 -0.16750895329E+01 -0.72998282630E+02 -0.24930749417E+03  0.25978025684E+03  0.00000000000E+00 0. -1.
         11    1    1    2    0    0 -0.44169697353E+02 -0.15879282825E+02 -0.48968507708E+02  0.67830881864E+02  0.00000000000E+00 0.  1.
</event>
<event>
 7    1  0.2693725E-009  0.9762912E+02  0.7561462E-02  0.1285362E+00
         -3   -1    0    0    0  501 -0.00000000000E+00  0.00000000000E+00  0.31570101151E+03  0.31570101151E+03  0.00000000000E+00 0.  1.
          3   -1    0    0  501    0  0.00000000000E+00 -0.00000000000E+00 -0.39762944327E+02  0.39762944327E+02  0.00000000000E+00 0. -1.
         25    2    1    2    0    0 -0.28310940125E+01 -0.86976616013E+01  0.13370341022E+03  0.18332472145E+03  0.12509071581E+03 0.  0.
          5    1    3    3  502    0 -0.57404206581E+02  0.78204895461E+01  0.31146343358E+02  0.65908801344E+02  0.41800000000E+01 0.  1.
         -5    1    3    3    0  502  0.54573112569E+02 -0.16518151147E+02  0.10255706686E+03  0.11741592011E+03  0.41800000000E+01 0.  1.
        -11    1    1    2    0    0  0.17826985356E+02  0.40824807801E+02  0.28206751471E+02  0.52726531911E+02  0.00000000000E+00 0. -1.
         11    1    1    2    0    0 -0.14995891343E+02 -0.32127146199E+02  0.11402790550E+03  0.11941270247E+03  0.00000000000E+00 0.  1.
</event>
<event>
 7    1  0.2693725E-009  0.1445761E+03  0.7561462E-02  0.1207301E+00
         -2   -1    0    0    0  501 -0.00000000000E+00  0.00000000000E+00  0.19373382225E+03  0.19373382225E+03  0.00000000000E+00 0.  1.
          2   -1    0    0  501    0  0.00000000000E+00 -0.00000000000E+00 -0.29907140520E+03  0.29907140520E+03  0.00000000000E+00 0. -1.
         25    2    1    2    0    0 -0.49792458663E+02  0.10196111752E+03  0.13113041892E+03  0.21381766571E+03  0.12508976368E+03 0.  0.
          5    1    3    3  502    0  0.29077905147E+02 -0.43131867567E+01  0.34767833460E+01  0.29894624436E+02  0.41800000000E+01 0.  1.
         -5    1    3    3    0  502 -0.78870363810E+02  0.10627430427E+03  0.12765363557E+03  0.18392304127E+03  0.41800000000E+01 0.  1.
        -11    1    1    2    0    0  0.30869938111E+02 -0.10355816654E+03 -0.12208885817E+03  0.16304274356E+03  0.00000000000E+00 0.  1.
         11    1    1    2    0    0  0.18922520552E+02  0.15970490274E+01 -0.11437914370E+03  0.11594481818E+03  0.00000000000E+00 0. -1.
</event>
<event>
 7    1  0.2693725E-009  0.1071205E+03  0.7561462E-02  0.1265997E+00
         -1   -1    0    0    0  501 -0.00000000000E+00  0.00000000000E+00  0.17655415977E+02  0.17655415977E+02  0.00000000000E+00 0.  1.
          1   -1    0    0  501    0  0.00000000000E+00 -0.00000000000E+00 -0.90736977617E+03  0.90736977617E+03  0.00000000000E+00 0. -1.
         25    2    1    2    0    0 -0.10599856653E+01  0.40613461350E+02 -0.67858270325E+03  0.69121093292E+03  0.12508993492E+03 0.  0.
          5    1    3    3  502    0 -0.23077309480E+02  0.72020138765E+02 -0.58651829462E+03  0.59138874264E+03  0.41800000000E+01 0. -1.
         -5    1    3    3    0  502  0.22017323815E+02 -0.31406677415E+02 -0.92064408634E+02  0.99822190275E+02  0.41800000000E+01 0. -1.
        -11    1    1    2    0    0  0.29294162184E+01  0.29566329256E+02 -0.74383479072E+02  0.80097760667E+02  0.00000000000E+00 0.  1.
         11    1    1    2    0    0 -0.18694305531E+01 -0.70179790606E+02 -0.13674817787E+03  0.15371649856E+03  0.00000000000E+00 0. -1.
</event>
<event>
 7    1  0.2693725E-009  0.9546495E+02  0.7561462E-02  0.1290132E+00
          2   -1    0    0  501    0  0.00000000000E+00  0.00000000000E+00  0.69292849975E+02  0.69292849975E+02  0.00000000000E+00 0. -1.
         -2   -1    0    0    0  501 -0.00000000000E+00 -0.00000000000E+00 -0.21596514554E+03  0.21596514554E+03  0.00000000000E+00 0.  1.
         25    2    1    2    0    0  0.41544971757E+02  0.33117944510E+01 -0.11856695587E+03  0.17732101149E+03  0.12509062887E+03 0.  0.
          5    1    3    3  502    0  0.73844014452E+02  0.74871321819E+01 -0.12346946189E+03  0.14412208727E+03  0.41800000000E+01 0.  1.
         -5    1    3    3    0  502 -0.32299042695E+02 -0.41753377309E+01  0.49025060252E+01  0.33198924222E+02  0.41800000000E+01 0.  1.
        -11    1    1    2    0    0 -0.60731459881E+02 -0.13230745228E+02 -0.48030567286E+02  0.78551245899E+02  0.00000000000E+00 0.  1.
         11    1    1    2    0    0  0.19186488123E+02  0.99189507771E+01  0.19925227584E+02  0.29385738128E+02  0.00000000000E+00 0. -1.
</event>
<event>
 7    1  0.2693725E-009  0.1333691E+03  0.7561462E-02  0.1222541E+00
         -2   -1    0    0    0  501 -0.00000000000E+00  0.00000000000E+00  0.46380940081E+02  0.46380940081E+02  0.00000000000E+00 0.  1.
          2   -1    0    0  501    0  0.00000000000E+00 -0.00000000000E+00 -0.77076683670E+03  0.77076683670E+03  0.00000000000E+00 0. -1.
         25    2    1    2    0    0 -0.46363042346E+02  0.11856762367E+03 -0.56940014161E+03  0.59671823571E+03  0.12509323916E+03 0.  0.
          5    1    3    3  502    0 -0.29825533570E+02  0.26055425301E+02 -0.31835247377E+02  0.50984340889E+02  0.41800000000E+01 0. -1.
         -5    1    3    3    0  502 -0.16537508776E+02  0.92512198368E+02 -0.53756489423E+03  0.54573389482E+03  0.41800000000E+01 0. -1.
        -11    1    1    2    0    0  0.52564554270E+02 -0.96114825986E+02 -0.16247897074E+03  0.19596047579E+03  0.00000000000E+00 0. -1.
         11    1    1    2    0    0 -0.62015119237E+01 -0.22452797683E+02  0.74932157260E+01  0.24469065284E+02  0.00000000000E+00 0.  1.
</event>
<event>
 7    1  0.2693725E-009  0.1922450E+03  0.7561462E-02  0.1156452E+00
         -2   -1    0    0    0  501 -0.00000000000E+00  0.00000000000E+00  0.10913039243E+03  0.10913039243E+03  0.00000000000E+00 0.  1.
          2   -1    0    0  501    0  0.00000000000E+00 -0.00000000000E+00 -0.38554931952E+03  0.38554931952E+03  0.00000000000E+00 0. -1.
         25    2    1    2    0    0  0.16738978074E+03  0.45354517428E+02 -0.15083976098E+03  0.26168307610E+03  0.12509607459E+03 0.  0.
          5    1    3    3  502    0  0.48397875560E+02  0.60584345755E+02 -0.11048605645E+03  0.13504613426E+03  0.41800000000E+01 0.  1.
         -5    1    3    3    0  502  0.11899190518E+03 -0.15229828327E+02 -0.40353704531E+02  0.12663694184E+03  0.41800000000E+01 0.  1.
        -11    1    1    2    0    0 -0.10156843090E+03  0.82629727699E+01 -0.32373021303E+02  0.10692256723E+03  0.00000000000E+00 0.  1.
         11    1    1    2    0    0 -0.65821349840E+02 -0.53617490197E+02 -0.93206144803E+02  0.12607406862E+03  0.00000000000E+00 0. -1.
</event>
<event>
 7    1  0.2693725E-009  0.1523814E+03  0.7561462E-02  0.1197577E+00
         -2   -1    0    0    0  501 -0.00000000000E+00  0.00000000000E+00  0.95782182826E+03  0.95782182826E+03  0.00000000000E+00 0.  1.
          2   -1    0    0  501    0  0.00000000000E+00 -0.00000000000E+00 -0.27590783479E+02  0.27590783479E+02  0.00000000000E+00 0. -1.
         25    2    1    2    0    0  0.86566430041E+02 -0.68669611673E+02  0.35188630232E+03  0.38946115007E+03  0.12508699086E+03 0.  0.
          5    1    3    3  502    0  0.43621079954E+02  0.31478721710E+02  0.79728224441E+02  0.96269261498E+02  0.41800000000E+01 0. -1.
         -5    1    3    3    0  502  0.42945350086E+02 -0.10014833338E+03  0.27215807788E+03  0.29319188858E+03  0.41800000000E+01 0. -1.
        -11    1    1    2    0    0 -0.32122841610E+02 -0.19905227663E+02  0.20225928178E+03  0.20575935485E+03  0.00000000000E+00 0.  1.
         11    1    1    2    0    0 -0.54443588431E+02  0.88574839336E+02  0.37608546068E+03  0.39019210681E+03  0.00000000000E+00 0. -1.
</event>
<event>
 7    1  0.2693725E-009  0.1119390E+03  0.7561462E-02  0.1257021E+00
         -2   -1    0    0    0  501 -0.00000000000E+00  0.00000000000E+00  0.10953247627E+02  0.10953247627E+02  0.00000000000E+00 0.  1.
          2   -1    0    0  501    0  0.00000000000E+00 -0.00000000000E+00 -0.18706192917E+04  0.18706192917E+04  0.00000000000E+00 0. -1.
         25    2    1    2    0    0 -0.23242985532E+02  0.18164918362E+02 -0.15675312993E+04  0.15727908669E+04  0.12508611537E+03 0.  0.
          5    1    3    3  502    0 -0.55955550575E+01  0.70426636211E+02 -0.72524444912E+03  0.72868937464E+03  0.41800000000E+01 0. -1.
         -5    1    3    3    0  502 -0.17647430474E+02 -0.52261717849E+02 -0.84228685014E+03  0.84410149229E+03  0.41800000000E+01 0. -1.
        -11    1    1    2    0    0  0.49491522145E+02  0.18378306812E+02 -0.18952775671E+03  0.19674334421E+03  0.00000000000E+00 0. -1.
         11    1    1    2    0    0 -0.26248536613E+02 -0.36543225174E+02 -0.10260698814E+03  0.11203832824E+03  0.00000000000E+00 0.  1.
</event>
<event>
 7    1  0.2693725E-009  0.1154925E+03  0.7561462E-02  0.1250724E+00
         -1   -1    0    0    0  501 -0.00000000000E+00  0.00000000000E+00  0.74193662897E+02  0.74193662897E+02  0.00000000000E+00 0.  1.
          1   -1    0    0  501    0  0.00000000000E+00 -0.00000000000E+00 -0.20550048204E+03  0.20550048204E+03  0.00000000000E+00 0. -1.
         25    2    1    2    0    0 -0.48047575522E+02 -0.26900830343E+02 -0.50365996270E+02  0.14565627603E+03  0.12508714155E+03 0.  0.
          5    1    3    3  502    0  0.36971199197E+02  0.72797089402E+01 -0.36972936555E+02  0.52955964440E+02  0.41800000000E+01 0. -1.
         -5    1    3    3    0  502 -0.85018774719E+02 -0.34180539283E+02 -0.13393059715E+02  0.92700311591E+02  0.41800000000E+01 0. -1.
        -11    1    1    2    0    0  0.68495185246E+02  0.37737859793E+02 -0.42073281110E+02  0.88802575678E+02  0.00000000000E+00 0.  1.
         11    1    1    2    0    0 -0.20447609724E+02 -0.10837029450E+02 -0.38867541763E+02  0.45235293227E+02  0.00000000000E+00 0. -1.
</event>
<event>
 7    1  0.2693725E-009  0.8734793E+02  0.7561462E-02  0.1309404E+00
         -2   -1    0    0    0  501 -0.00000000000E+00  0.00000000000E+00  0.81068600219E+02  0.81068600219E+02  0.00000000000E+00 0. -1.
          2   -1    0    0  501    0  0.00000000000E+00 -0.00000000000E+00 -0.16528257902E+03  0.16528257902E+03  0.00000000000E+00 0.  1.
         25    2    1    2    0    0 -0.26142540148E+02 -0.93936926505E+01 -0.82401402447E+02  0.15234557004E+03  0.12508999847E+03 0.  0.
          5    1    3    3  502    0  0.36291732123E+02 -0.42699802187E+02 -0.46214617539E+02  0.72757310296E+02  0.41800000000E+01 0. -1.
         -5    1    3    3    0  502 -0.62434272271E+02  0.33306109536E+02 -0.36186784908E+02  0.79588259740E+02  0.41800000000E+01 0. -1.
        -11    1    1    2    0    0 -0.10258080029E+02  0.26571308652E+01  0.38113161415E+02  0.39558837488E+02  0.00000000000E+00 0. -1.
         11    1    1    2    0    0  0.36400620176E+02  0.67365617853E+01 -0.39925737773E+02  0.54446771719E+02  0.00000000000E+00 0.  1.
</event>
<event>
 7    1  0.2693725E-009  0.1127901E+03  0.7561462E-02  0.1255489E+00
          2   -1    0    0  501    0  0.00000000000E+00  0.00000000000E+00  0.23668012876E+03  0.23668012876E+03  0.00000000000E+00 0. -1.
         -2   -1    0    0    0  501 -0.00000000000E+00 -0.00000000000E+00 -0.11499545828E+03  0.11499545828E+03  0.00000000000E+00 0.  1.
         25    2    1    2    0    0 -0.10980863538E+03  0.21884525520E+02  0.92175279965E+01  0.16813464704E+03  0.12508967924E+03 0.  0.
          5    1    3    3  502    0 -0.43361625679E+02  0.12913827708E+02  0.66030162400E+02  0.80152681016E+02  0.41800000000E+01 0.  1.
         -5    1    3    3    0  502 -0.66447009698E+02  0.89706978123E+01 -0.56812634403E+02  0.87981966021E+02  0.41800000000E+01 0.  1.
        -11    1    1    2    0    0  0.41986264648E+02 -0.99759860073E+00 -0.89169275769E+01  0.42934289554E+02  0.00000000000E+00 0.  1.
         11    1    1    2    0    0  0.67822370728E+02 -0.20886926919E+02  0.12138407006E+03  0.14060665045E+03  0.00000000000E+00 0. -1.
</event>
<event>
 7    1  0.3789971E-009  0.1195903E+03  0.7561462E-02  0.1243774E+00
          1   -1    0    0  501    0  0.00000000000E+00  0.00000000000E+00  0.89548097508E+03  0.89548097508E+03  0.00000000000E+00 0. -1.
         -1   -1    0    0    0  501 -0.00000000000E+00 -0.00000000000E+00 -0.19659354983E+02  0.19659354983E+02  0.00000000000E+00 0.  1.
         25    2    1    2    0    0 -0.50225217105E+02 -0.26565720510E+02  0.65962232510E+03  0.67377783306E+03  0.12508655648E+03 0.  0.
          5    1    3    3  502    0 -0.60726566416E+01 -0.71943446146E+02  0.40224379828E+03  0.40869338416E+03  0.41800000000E+01 0. -1.
         -5    1    3    3    0  502 -0.44152560463E+02  0.45377725636E+02  0.25737852682E+03  0.26508444890E+03  0.41800000000E+01 0. -1.
        -11    1    1    2    0    0  0.71274161697E+02  0.23345856102E+01  0.11619053760E+03  0.13632937117E+03  0.00000000000E+00 0.  1.
         11    1    1    2    0    0 -0.21048944592E+02  0.24231134899E+02  0.10000875740E+03  0.10503312584E+03  0.00000000000E+00 0. -1.
</event>
<event>
 7    1  0.2693725E-009  0.1083650E+03  0.7561462E-02  0.1263628E+00
          2   -1    0    0  501    0  0.00000000000E+00  0.00000000000E+00  0.14102662521E+04  0.14102662521E+04  0.00000000000E+00 0. -1.
         -2   -1    0    0    0  501 -0.00000000000E+00 -0.00000000000E+00 -0.91418237186E+01  0.91418237186E+01  0.00000000000E+00 0.  1.
         25    2    1    2    0    0  0.26482041890E+02 -0.15190413813E+02  0.86800109432E+03  0.87749981512E+03  0.12509188057E+03 0.  0.
          5    1    3    3  502    0 -0.45901809253E+02 -0.74061182764E+01  0.51096423867E+03  0.51309234284E+03  0.41800000000E+01 0. -1.
         -5    1    3    3    0  502  0.72383851143E+02 -0.77842955365E+01  0.35703685565E+03  0.36440747228E+03  0.41800000000E+01 0. -1.
        -11    1    1    2    0    0  0.13441583109E+02  0.45216004506E+02  0.24984804070E+03  0.25426208262E+03  0.00000000000E+00 0.  1.
         11    1    1    2    0    0 -0.39923624999E+02 -0.30025590693E+02  0.28327529341E+03  0.28764617811E+03  0.00000000000E+00 0. -1.
</event>
<event>
 7    1  0.2693725E-009  0.1203973E+03  0.7561462E-02  0.1242443E+00
          1   -1    0    0  501    0  0.00000000000E+00  0.00000000000E+00  0.15051334857E+03  0.15051334857E+03  0.00000000000E+00 0. -1.
         -1   -1    0    0    0  501 -0.00000000000E+00 -0.00000000000E+00 -0.21662477771E+03  0.21662477771E+03  0.00000000000E+00 0.  1.
         25    2    1    2    0    0  0.92543377323E+01  0.63839391989E+02  0.95730695737E+02  0.17020697821E+03  0.12507972892E+03 0.  0.
          5    1    3    3  502    0  0.27548625870E+01 -0.33193328381E+02  0.55539490875E+02  0.64896022709E+02  0.41800000000E+01 0. -1.
         -5    1    3    3    0  502  0.64994751454E+01  0.97032720370E+02  0.40191204863E+02  0.10531095550E+03  0.41800000000E+01 0. -1.
        -11    1    1    2    0    0 -0.46878743946E+02 -0.17135619701E+02 -0.93631693046E+02  0.10610438275E+03  0.00000000000E+00 0.  1.
         11    1    1    2    0    0  0.37624406214E+02 -0.46703772288E+02 -0.68210431830E+02  0.90826765324E+02  0.00000000000E+00 0. -1.
</event>
<event>
 7    1  0.2693725E-009  0.1522253E+03  0.7561462E-02  0.1197765E+00
          1   -1    0    0  501    0  0.00000000000E+00  0.00000000000E+00  0.37147667103E+03  0.37147667103E+03  0.00000000000E+00 0. -1.
         -1   -1    0    0    0  501 -0.00000000000E+00 -0.00000000000E+00 -0.85753307216E+02  0.85753307216E+02  0.00000000000E+00 0.  1.
         25    2    1    2    0    0  0.14026668985E+03 -0.55655041030E+01  0.16713055245E+03  0.25156228662E+03  0.12508094728E+03 0.  0.
          5    1    3    3  502    0  0.10738304966E+03 -0.17976797457E+02  0.34498861915E+02  0.11428879418E+03  0.41800000000E+01 0. -1.
         -5    1    3    3    0  502  0.32883640186E+02  0.12411293354E+02  0.13263169053E+03  0.13727349245E+03  0.41800000000E+01 0. -1.
        -11    1    1    2    0    0 -0.71429376768E+02 -0.35684521046E+02  0.27932998410E+02  0.84591922238E+02  0.00000000000E+00 0.  1.
         11    1    1    2    0    0 -0.68837313078E+02  0.41250025149E+02  0.90659812953E+02  0.12107576938E+03  0.00000000000E+00 0. -1.
</event>
<event>
 7    1  0.2693725E-009  0.1025788E+03  0.7561462E-02  0.1274965E+00
          1   -1    0    0  501    0  0.00000000000E+00  0.00000000000E+00  0.56089680595E+03  0.56089680595E+03  0.00000000000E+00 0. -1.
         -1   -1    0    0    0  501 -0.00000000000E+00 -0.00000000000E+00 -0.34386388633E+02  0.34386388633E+02  0.00000000000E+00 0.  1.
         25    2    1    2    0    0 -0.28632590947E+02  0.45576928186E+02  0.14289304167E+03  0.19739043488E+03  0.12508989078E+03 0.  0.
          5    1    3    3  502    0 -0.48699280676E+02  0.62516411410E+02  0.15014672938E+03  0.16982766081E+03  0.41800000000E+01 0.  1.
         -5    1    3    3    0  502  0.20066689729E+02 -0.16939483224E+02 -0.72536877117E+01  0.27562774062E+02  0.41800000000E+01 0.  1.
        -11    1    1    2    0    0  0.58068593636E+02 -0.35682778633E+02  0.31901110053E+03  0.32621052177E+03  0.00000000000E+00 0. -1.
         11    1    1    2    0    0 -0.29436002689E+02 -0.98941495535E+01  0.64606275123E+02  0.71682237932E+02  0.00000000000E+00 0.  1.
</event>
<event>
 7    1  0.2693725E-009  0.9924058E+02  0.7561462E-02  0.1281901E+00
          4   -1    0    0  501    0  0.00000000000E+00  0.00000000000E+00  0.13232562277E+03  0.13232562277E+03  0.00000000000E+00 0. -1.
         -4   -1    0    0    0  501 -0.00000000000E+00 -0.00000000000E+00 -0.11840414449E+03  0.11840414449E+03  0.00000000000E+00 0.  1.
         25    2    1    2    0    0 -0.38078855101E+02 -0.39742476231E+02 -0.23924189022E+02  0.13874188451E+03  0.12508988798E+03 0.  0.
          5    1    3    3  502    0 -0.39203975164E+02  0.28402432536E+02 -0.46068706436E+02  0.66958554012E+02  0.41800000000E+01 0. -1.
         -5    1    3    3    0  502  0.11251200638E+01 -0.68144908767E+02  0.22144517415E+02  0.71783330500E+02  0.41800000000E+01 0. -1.
        -11    1    1    2    0    0  0.43981989436E+02  0.51937901943E+02  0.56829159656E+02  0.88665181668E+02  0.00000000000E+00 0. -1.
         11    1    1    2    0    0 -0.59031343358E+01 -0.12195425712E+02 -0.18983492361E+02  0.23322701076E+02  0.00000000000E+00 0.  1.
</event>
<event>
 7    1  0.2693725E-009  0.9922106E+02  0.7561462E-02  0.1281943E+00
          2   -1    0    0  501    0  0.00000000000E+00  0.00000000000E+00  0.26840338489E+03  0.26840338489E+03  0.00000000000E+00 0.  1.
         -2   -1    0    0    0  501 -0.00000000000E+00 -0.00000000000E+00 -0.48910989995E+02  0.48910989995E+02  0.00000000000E+00 0. -1.
         25    2    1    2    0    0 -0.24120328935E+02 -0.13540584597E+02  0.10552604963E+03  0.16598541283E+03  0.12510104885E+03 0.  0.
          5    1    3    3  502    0  0.39017690944E+02 -0.13766424104E+02 -0.15450842869E+01  0.41614352387E+02  0.41800000000E+01 0. -1.
         -5    1    3    3    0  502 -0.63138019879E+02  0.22583950622E+00  0.10707113392E+03  0.12437106044E+03  0.41800000000E+01 0. -1.
        -11    1    1    2    0    0 -0.11371716077E+02 -0.33083780359E+02  0.69371161691E+02  0.77693053253E+02  0.00000000000E+00 0.  1.
         11    1    1    2    0    0  0.35492045012E+02  0.46624364957E+02  0.44595183570E+02  0.73635908797E+02  0.00000000000E+00 0. -1.
</event>
<event>
 7    1  0.2693725E-009  0.8961203E+02  0.7561462E-02  0.1303794E+00
          2   -1    0    0  501    0  0.00000000000E+00  0.00000000000E+00  0.15858891183E+04  0.15858891183E+04  0.00000000000E+00 0. -1.
         -2   -1    0    0    0  501 -0.00000000000E+00 -0.00000000000E+00 -0.11198195912E+02  0.11198195912E+02  0.00000000000E+00 0.  1.
         25    2    1    2    0    0 -0.43372688870E+02 -0.14496834940E+02  0.12323670898E+04  0.12395432146E+04  0.12508952174E+03 0.  0.
          5    1    3    3  502    0 -0.32086230384E+02  0.21055965709E+02  0.11052129119E+03  0.11706967190E+03  0.41800000000E+01 0. -1.
         -5    1    3    3    0  502 -0.11286458485E+02 -0.35552800649E+02  0.11218457987E+04  0.11224735427E+04  0.41800000000E+01 0. -1.
        -11    1    1    2    0    0 -0.22806294690E+02  0.27409974124E+02  0.11016454467E+03  0.11579145332E+03  0.00000000000E+00 0.  1.
         11    1    1    2    0    0  0.66178983560E+02 -0.12913139184E+02  0.23215928787E+03  0.24175264626E+03  0.00000000000E+00 0. -1.
</event>
<event>
 7    1  0.2693725E-009  0.1250577E+03  0.7561462E-02  0.1234979E+00
          2   -1    0    0  501    0  0.00000000000E+00  0.00000000000E+00  0.38866389289E+03  0.38866389289E+03  0.00000000000E+00 0.  1.
         -2   -1    0    0    0  501 -0.00000000000E+00 -0.00000000000E+00 -0.78443604534E+02  0.78443604534E+02  0.00000000000E+00 0. -1.
         25    2    1    2    0    0 -0.11297109568E+02 -0.89863182414E+02  0.29908653588E+03  0.33660464986E+03  0.12508764177E+03 0.  0.
          5    1    3    3  502    0  0.49601885455E+02 -0.56260635982E+01  0.87426261578E+02  0.10076121896E+03  0.41800000000E+01 0.  1.
         -5    1    3    3    0  502 -0.60898995022E+02 -0.84237118816E+02  0.21166027430E+03  0.23584343090E+03  0.41800000000E+01 0.  1.
        -11    1    1    2    0    0 -0.80124430478E+01  0.59305137965E+02 -0.36961426224E+02  0.70338081159E+02  0.00000000000E+00 0. -1.
         11    1    1    2    0    0  0.19309552615E+02  0.30558044449E+02  0.48095178701E+02  0.60164766409E+02  0.00000000000E+00 0.  1.
</event>
<event>
 7    1  0.2693725E-009  0.9393349E+02  0.7561462E-02  0.1293596E+00
         -3   -1    0    0    0  501 -0.00000000000E+00  0.00000000000E+00  0.71216218753E+03  0.71216218753E+03  0.00000000000E+00 0.  1.
          3   -1    0    0  501    0  0.00000000000E+00 -0.00000000000E+00 -0.18769539231E+02  0.18769539231E+02  0.00000000000E+00 0. -1.
         25    2    1    2    0    0 -0.12340298503E+02  0.37699977374E+02  0.42106195755E+03  0.44103864165E+03  0.12509332546E+03 0.  0.
          5    1    3    3  502    0 -0.54068667957E+02  0.61899960105E+01  0.34088109148E+03  0.34522330140E+03  0.41800000000E+01 0.  1.
         -5    1    3    3    0  502  0.41728369455E+02  0.31509981363E+02  0.80180866076E+02  0.95815340251E+02  0.41800000000E+01 0.  1.
        -11    1    1    2    0    0  0.41129345248E+02 -0.13708479599E+02  0.58555712434E+02  0.72858197289E+02  0.00000000000E+00 0. -1.
         11    1    1    2    0    0 -0.28789046745E+02 -0.23991497774E+02  0.21377497832E+03  0.21703488782E+03  0.00000000000E+00 0.  1.
</event>
<event>
 7    1  0.2693725E-009  0.9046144E+02  0.7561462E-02  0.1301738E+00
          2   -1    0    0  501    0  0.00000000000E+00  0.00000000000E+00  0.32368277612E+02  0.32368277612E+02  0.00000000000E+00 0. -1.
         -2   -1    0    0    0  501 -0.00000000000E+00 -0.00000000000E+00 -0.40258425031E+03  0.40258425031E+03  0.00000000000E+00 0.  1.
         25    2    1    2    0    0  0.82847828324E+01 -0.26766380006E+02 -0.17107644564E+03  0.21377487800E+03  0.12508985365E+03 0.  0.
          5    1    3    3  502    0  0.37996420394E+02 -0.39814556292E+02 -0.17240978197E+03  0.18102909206E+03  0.41800000000E+01 0.  1.
         -5    1    3    3    0  502 -0.29711637562E+02  0.13048176286E+02  0.13333363268E+01  0.32745785939E+02  0.41800000000E+01 0.  1.
        -11    1    1    2    0    0 -0.43829874872E+02 -0.65205924068E+01 -0.12358435993E+03  0.13128849941E+03  0.00000000000E+00 0.  1.
         11    1    1    2    0    0  0.35545092040E+02  0.33286972413E+02 -0.75555167126E+02  0.89889150513E+02  0.00000000000E+00 0. -1.
</event>
<event>
 7    1  0.2693725E-009  0.2762867E+03  0.7561462E-02  0.1097735E+00
          2   -1    0    0  501    0  0.00000000000E+00  0.00000000000E+00  0.15551770725E+03  0.15551770725E+03  0.00000000000E+00 0. -1.
         -2   -1    0    0    0  501 -0.00000000000E+00 -0.00000000000E+00 -0.57618018338E+03  0.57618018338E+03  0.00000000000E+00 0.  1.
         25    2    1    2    0    0  0.21550726019E+03  0.16802683031E+03 -0.14804125565E+03  0.33502158816E+03  0.12508739449E+03 0.  0.
          5    1    3    3  502    0  0.73727309323E+02  0.57942986649E+02  0.11837285812E+02  0.94608136951E+02  0.41800000000E+01 0.  1.
         -5    1    3    3    0  502  0.14177995087E+03  0.11008384366E+03 -0.15987854146E+03  0.24041345121E+03  0.41800000000E+01 0.  1.
        -11    1    1    2    0    0 -0.91579179371E+02 -0.36888347120E+02 -0.51732633608E+02  0.11146192905E+03  0.00000000000E+00 0. -1.
         11    1    1    2    0    0 -0.12392808082E+03 -0.13113848319E+03 -0.22088858688E+03  0.28521437342E+03  0.00000000000E+00 0.  1.
</event>
<event>
 7    1  0.2693725E-009  0.3426468E+03  0.7561462E-02  0.1065674E+00
         -2   -1    0    0    0  501 -0.00000000000E+00  0.00000000000E+00  0.90584887674E+02  0.90584887674E+02  0.00000000000E+00 0.  1.
          2   -1    0    0  501    0  0.00000000000E+00 -0.00000000000E+00 -0.13957587504E+04  0.13957587504E+04  0.00000000000E+00 0. -1.
         25    2    1    2    0    0 -0.32006173649E+03 -0.88677134552E+02 -0.79253224467E+03  0.86836481192E+03  0.12508772276E+03 0.  0.
          5    1    3    3  502    0 -0.29364871386E+03 -0.49091030261E+02 -0.73836764317E+03  0.79614304323E+03  0.41800000000E+01 0. -1.
         -5    1    3    3    0  502 -0.26413022630E+02 -0.39586104290E+02 -0.54164601505E+02  0.72221768696E+02  0.41800000000E+01 0. -1.
        -11    1    1    2    0    0  0.11085303057E+03  0.66786892310E+02 -0.24975054076E+03  0.28129026997E+03  0.00000000000E+00 0. -1.
         11    1    1    2    0    0  0.20920870592E+03  0.21890242242E+02 -0.26289107728E+03  0.33668855617E+03  0.00000000000E+00 0.  1.
</event>
<event>
 7    1  0.2693725E-009  0.1146192E+03  0.7561462E-02  0.1252247E+00
          2   -1    0    0  501    0  0.00000000000E+00  0.00000000000E+00  0.16679988631E+03  0.16679988631E+03  0.00000000000E+00 0. -1.
         -2   -1    0    0    0  501 -0.00000000000E+00 -0.00000000000E+00 -0.99715768196E+02  0.99715768196E+02  0.00000000000E+00 0.  1.
         25    2    1    2    0    0 -0.69298288738E+01  0.69450796530E+02  0.44674408797E+02  0.15005141067E+03  0.12509271512E+03 0.  0.
          5    1    3    3  502    0 -0.46345670095E+01 -0.25405827500E+02 -0.21857260288E+02  0.34090284681E+02  0.41800000000E+01 0.  1.
         -5    1    3    3    0  502 -0.22952618642E+01  0.94856624031E+02  0.66531669085E+02  0.11596112599E+03  0.41800000000E+01 0.  1.
        -11    1    1    2    0    0  0.14811805487E+02  0.16279216467E+02 -0.10387236567E+02  0.24337155834E+02  0.00000000000E+00 0.  1.
         11    1    1    2    0    0 -0.78819766135E+01 -0.85730012997E+02  0.32796945880E+02  0.92127087997E+02  0.00000000000E+00 0. -1.
</event>
<event>
 7    1  0.2693725E-009  0.4066318E+03  0.7561462E-02  0.1041507E+00
         -3   -1    0    0    0  501 -0.00000000000E+00  0.00000000000E+00  0.57769676898E+03  0.57769676898E+03  0.00000000000E+00 0.  1.
          3   -1    0    0  501    0  0.00000000000E+00 -0.00000000000E+00 -0.35250348036E+03  0.35250348036E+03  0.00000000000E+00 0. -1.
         25    2    1    2    0    0 -0.26179339915E+03 -0.29696037577E+03  0.30702978177E+03  0.51636764638E+03  0.12508801189E+03 0.  0.
          5    1    3    3  502    0 -0.55663878641E+02 -0.10418615564E+02  0.74437984360E+02  0.93624253542E+02  0.41800000000E+01 0.  1.
         -5    1    3    3    0  502 -0.20612952051E+03 -0.28654176020E+03  0.23259179741E+03  0.42274339284E+03  0.41800000000E+01 0.  1.
        -11    1    1    2    0    0  0.66427910351E+02  0.30574489273E+02 -0.31704202820E+02  0.79703344625E+02  0.00000000000E+00 0.  1.
         11    1    1    2    0    0  0.19536548880E+03  0.26638588649E+03 -0.50132290336E+02  0.33412925833E+03  0.00000000000E+00 0. -1.
</event>
<event>
 7    1  0.2693725E-009  0.1047376E+03  0.7561462E-02  0.1270638E+00
          2   -1    0    0  501    0  0.00000000000E+00  0.00000000000E+00  0.13343175794E+04  0.13343175794E+04  0.00000000000E+00 0. -1.
         -2   -1    0    0    0  501 -0.00000000000E+00 -0.00000000000E+00 -0.14403170395E+02  0.14403170395E+02  0.00000000000E+00 0.  1.
         25    2    1    2    0    0 -0.19017249601E+02  0.40151121119E+02  0.10761136880E+04  0.10842702756E+04  0.12509033836E+03 0.  0.
          5    1    3    3  502    0 -0.47180197109E+01  0.83459453968E+02  0.80216286183E+03  0.80651749483E+03  0.41800000000E+01 0.  1.
         -5    1    3    3    0  502 -0.14299229890E+02 -0.43308332849E+02  0.27395082621E+03  0.27775278081E+03  0.41800000000E+01 0.  1.
        -11    1    1    2    0    0  0.35429809237E+02  0.12411093364E+01  0.19577443583E+03  0.19895839127E+03  0.00000000000E+00 0. -1.
         11    1    1    2    0    0 -0.16412559635E+02 -0.41392230455E+02  0.48026285154E+02  0.65492082892E+02  0.00000000000E+00 0.  1.
</event>
<event>
 7    1  0.2693725E-009  0.1221325E+03  0.7561462E-02  0.1239620E+00
          1   -1    0    0  501    0  0.00000000000E+00  0.00000000000E+00  0.63255368258E+02  0.63255368258E+02  0.00000000000E+00 0. -1.
         -1   -1    0    0    0  501 -0.00000000000E+00 -0.00000000000E+00 -0.26993173799E+03  0.26993173799E+03  0.00000000000E+00 0.  1.
         25    2    1    2    0    0 -0.65503024813E+02  0.24560311744E+02 -0.14334907354E+03  0.20270595074E+03  0.12508753099E+03 0.  0.
          5    1    3    3  502    0 -0.10082364246E+03  0.19454984943E+02 -0.81440841142E+02  0.13112584155E+03  0.41800000000E+01 0.  1.
         -5    1    3    3    0  502  0.35320617644E+02  0.51053268011E+01 -0.61908232396E+02  0.71580109185E+02  0.41800000000E+01 0.  1.
        -11    1    1    2    0    0  0.84057414469E+02 -0.18766279697E+02 -0.28720948259E+02  0.90789399435E+02  0.00000000000E+00 0. -1.
         11    1    1    2    0    0 -0.18554389656E+02 -0.57940320465E+01 -0.34606347935E+02  0.39691756074E+02  0.00000000000E+00 0.  1.
</event>
<event>
 7    1  0.2693725E-009  0.1080507E+03  0.7561462E-02  0.1264223E+00
         -1   -1    0    0    0  501 -0.00000000000E+00  0.00000000000E+00  0.18750872786E+02  0.18750872786E+02  0.00000000000E+00 0.  1.
          1   -1    0    0  501    0  0.00000000000E+00 -0.00000000000E+00 -0.84196185186E+03  0.84196185186E+03  0.00000000000E+00 0. -1.
         25    2    1    2    0    0  0.16025661349E+02 -0.46348601436E+02 -0.60357934726E+03  0.61835300909E+03  0.12508957086E+03 0.  0.
          5    1    3    3  502    0  0.66949725178E+02 -0.35069288113E+01 -0.32975620985E+03  0.33652814828E+03  0.41800000000E+01 0. -1.
         -5    1    3    3    0  502 -0.50924063829E+02 -0.42841672624E+02 -0.27382313741E+03  0.28182486081E+03  0.41800000000E+01 0. -1.
        -11    1    1    2    0    0  0.10528830030E+02  0.53679539429E+02 -0.63484338305E+02  0.83801016850E+02  0.00000000000E+00 0.  1.
         11    1    1    2    0    0 -0.26554491379E+02 -0.73309379931E+01 -0.15614729351E+03  0.15855869870E+03  0.00000000000E+00 0. -1.
</event>
<event>
 7    1  0.2693725E-009  0.1381535E+03  0.7561462E-02  0.1215835E+00
          1   -1    0    0  501    0  0.00000000000E+00  0.00000000000E+00  0.34262091011E+03  0.34262091011E+03  0.00000000000E+00 0. -1.
         -1   -1    0    0    0  501 -0.00000000000E+00 -0.00000000000E+00 -0.70839190703E+02  0.70839190703E+02  0.00000000000E+00 0.  1.
         25    2    1    2    0    0  0.94604548195E+02  0.56128884672E+02  0.12630935444E+03  0.20905122575E+03  0.12509152544E+03 0.  0.
          5    1    3    3  502    0  0.27424919400E+02  0.85930998476E+02  0.50839591214E+02  0.10362624734E+03  0.41800000000E+01 0. -1.
         -5    1    3    3    0  502  0.67179628796E+02 -0.29802113804E+02  0.75469763224E+02  0.10542497841E+03  0.41800000000E+01 0. -1.
        -11    1    1    2    0    0 -0.54008819966E+02 -0.45011363589E+02  0.21552111421E+02  0.73535494783E+02  0.00000000000E+00 0.  1.
         11    1    1    2    0    0 -0.40595728229E+02 -0.11117521083E+02  0.12392025354E+03  0.13087338027E+03  0.00000000000E+00 0. -1.
</event>
<event>
 7    1  0.2693725E-009  0.4685535E+03  0.7561462E-02  0.1022329E+00
         -1   -1    0    0    0  501 -0.00000000000E+00  0.00000000000E+00  0.10830516231E+04  0.10830516231E+04  0.00000000000E+00 0.  1.
          1   -1    0    0  501    0  0.00000000000E+00 -0.00000000000E+00 -0.23221358698E+03  0.23221358698E+03  0.00000000000E+00 0. -1.
         25    2    1    2    0    0  0.29720465863E+03  0.35169039288E+03  0.21151710707E+03  0.52192381910E+03  0.12509294469E+03 0.  0.
          5    1    3    3  502    0  0.24836242832E+03  0.20553084912E+03  0.13099357361E+03  0.34799944608E+03  0.41800000000E+01 0.  1.
         -5    1    3    3    0  502  0.48842230306E+02  0.14615954375E+03  0.80523533452E+02  0.17392437302E+03  0.41800000000E+01 0.  1.
        -11    1    1    2    0    0 -0.21591206087E+03 -0.24915936594E+03  0.38154076622E+03  0.50425367024E+03  0.00000000000E+00 0. -1.
         11    1    1    2    0    0 -0.81292597755E+02 -0.10253102694E+03  0.25778016286E+03  0.28908772077E+03  0.00000000000E+00 0.  1.
</event>
<event>
 7    1  0.2693725E-009  0.2106802E+03  0.7561462E-02  0.1141028E+00
         -4   -1    0    0    0  501 -0.00000000000E+00  0.00000000000E+00  0.51411127443E+02  0.51411127443E+02  0.00000000000E+00 0.  1.
          4   -1    0    0  501    0  0.00000000000E+00 -0.00000000000E+00 -0.18318090633E+04  0.18318090633E+04  0.00000000000E+00 0. -1.
         25    2    1    2    0    0  0.19138690574E+03  0.62041469178E+02 -0.15283347295E+04  0.15465877076E+04  0.12509356699E+03 0.  0.
          5    1    3    3  502    0  0.82239813358E+02  0.46572789317E+02 -0.33312768093E+03  0.34630035491E+03  0.41800000000E+01 0.  1.
         -5    1    3    3    0  502  0.10914709238E+03  0.15468679861E+02 -0.11952070485E+04  0.12002873527E+04  0.41800000000E+01 0.  1.
        -11    1    1    2    0    0 -0.13801306166E+03 -0.46875501375E+01 -0.11936185670E+03  0.18252898715E+03  0.00000000000E+00 0.  1.
         11    1    1    2    0    0 -0.53373844074E+02 -0.57353919040E+02 -0.13270134973E+03  0.15410349601E+03  0.00000000000E+00 0. -1.
</event>
<event>
 7    1  0.2693725E-009  0.9703199E+02  0.7561462E-02  0.1286664E+00
         -1   -1    0    0    0  501 -0.00000000000E+00  0.00000000000E+00  0.48286357763E+02  0.48286357763E+02  0.00000000000E+00 0.  1.
          1   -1    0    0  501    0  0.00000000000E+00 -0.00000000000E+00 -0.32616093202E+03  0.32616093202E+03  0.00000000000E+00 0. -1.
         25    2    1    2    0    0 -0.20930869973E+02  0.24774207302E+02 -0.23344062488E+03  0.26682033089E+03  0.12508677374E+03 0.  0.
          5    1    3    3  502    0 -0.55011297698E+02  0.57757958602E+02 -0.12435072104E+03  0.14779309483E+03  0.41800000000E+01 0. -1.
         -5    1    3    3    0  502  0.34080427725E+02 -0.32983751299E+02 -0.10908990384E+03  0.11902723606E+03  0.41800000000E+01 0. -1.
        -11    1    1    2    0    0  0.92647190903E+01 -0.43522480317E+02 -0.64117791046E+02  0.78045707386E+02  0.00000000000E+00 0. -1.
         11    1    1    2    0    0  0.11666150882E+02  0.18748273014E+02  0.19683841674E+02  0.29581251503E+02  0.00000000000E+00 0.  1.
</event>
<event>
 7    1  0.2693725E-009  0.1130277E+03  0.7561462E-02  0.1255064E+00
         -3   -1    0    0    0  501 -0.00000000000E+00  0.00000000000E+00  0.15769857802E+03  0.15769857802E+03  0.00000000000E+00 0.  1.
          3   -1    0    0  501    0  0.00000000000E+00 -0.00000000000E+00 -0.10434601805E+03  0.10434601805E+03  0.00000000000E+00 0. -1.
         25    2    1    2    0    0  0.34165684762E+02  0.45142111359E+02 -0.12697601247E+02  0.13789751074E+03  0.12509752259E+03 0.  0.
          5    1    3    3  502    0  0.66200634926E+02  0.61942089003E+02  0.15206076490E+02  0.92021973555E+02  0.41800000000E+01 0. -1.
         -5    1    3    3    0  502 -0.32034950164E+02 -0.16799977645E+02 -0.27903677737E+02  0.45875537186E+02  0.41800000000E+01 0. -1.
        -11    1    1    2    0    0  0.99272094693E+01 -0.53151333646E+02  0.56736635716E+02  0.78375120980E+02  0.00000000000E+00 0.  1.
         11    1    1    2    0    0 -0.44092894232E+02  0.80092222874E+01  0.93135255024E+01  0.45771964352E+02  0.00000000000E+00 0. -1.
</event>
<event>
 7    1  0.2693725E-009  0.1066339E+03  0.7561462E-02  0.1266933E+00
          2   -1    0    0  501    0  0.00000000000E+00  0.00000000000E+00  0.36713754114E+03  0.36713754114E+03  0.00000000000E+00 0. -1.
         -2   -1    0    0    0  501 -0.00000000000E+00 -0.00000000000E+00 -0.35232780925E+02  0.35232780925E+02  0.00000000000E+00 0.  1.
         25    2    1    2    0    0  0.42803515776E+01  0.17075301129E+02  0.13642998657E+03  0.18593109459E+03  0.12508934160E+03 0.  0.
          5    1    3    3  502    0 -0.56146393405E+02  0.21805609005E+02  0.41646597919E+02  0.73347212590E+02  0.41800000000E+01 0. -1.
         -5    1    3    3    0  502  0.60426744983E+02 -0.47303078759E+01  0.94783388646E+02  0.11258388200E+03  0.41800000000E+01 0. -1.
        -11    1    1    2    0    0  0.25844987774E+01  0.37269330967E+02  0.93426295408E+02  0.10061886174E+03  0.00000000000E+00 0. -1.
         11    1    1    2    0    0 -0.68648503549E+01 -0.54344632096E+02  0.10204847824E+03  0.11582036573E+03  0.00000000000E+00 0.  1.
</event>
<event>
 7    1  0.2693725E-009  0.1541272E+03  0.7561462E-02  0.1195491E+00
          2   -1    0    0  501    0  0.00000000000E+00  0.00000000000E+00  0.48282587271E+03  0.48282587271E+03  0.00000000000E+00 0. -1.
         -2   -1    0    0    0  501 -0.00000000000E+00 -0.00000000000E+00 -0.60795614115E+02  0.60795614115E+02  0.00000000000E+00 0.  1.
         25    2    1    2    0    0  0.12744430988E+03  0.20853376006E+02  0.17974303157E+03  0.25423087922E+03  0.12509543212E+03 0.  0.
          5    1    3    3  502    0  0.29923092978E+02 -0.41169235176E+02  0.10435595355E+03  0.11618061309E+03  0.41800000000E+01 0. -1.
         -5    1    3    3    0  502  0.97521216901E+02  0.62022611182E+02  0.75387078026E+02  0.13805026612E+03  0.41800000000E+01 0. -1.
        -11    1    1    2    0    0 -0.56267622811E+02  0.19704511104E+02  0.16994849340E+03  0.18010220305E+03  0.00000000000E+00 0. -1.
         11    1    1    2    0    0 -0.71176687068E+02 -0.40557887110E+02  0.72338733625E+02  0.10928840456E+03  0.00000000000E+00 0.  1.
</event>
<event>
 7    1  0.2693725E-009  0.1297028E+03  0.7561462E-02  0.1227897E+00
         -2   -1    0    0    0  501 -0.00000000000E+00  0.00000000000E+00  0.97706202916E+02  0.97706202916E+02  0.00000000000E+00 0.  1.
          2   -1    0    0  501    0  0.00000000000E+00 -0.00000000000E+00 -0.31473486623E+03  0.31473486623E+03  0.00000000000E+00 0. -1.
         25    2    1    2    0    0  0.11623968023E+03  0.51428687322E+02 -0.60212004275E+02  0.18822501246E+03  0.12508635704E+03 0.  0.
          5    1    3    3  502    0  0.22449407976E+02  0.11982989652E+02 -0.80378345613E+02  0.84413972794E+02  0.41800000000E+01 0. -1.
         -5    1    3    3    0  502  0.93790272253E+02  0.39445697670E+02  0.20166341337E+02  0.10381103967E+03  0.41800000000E+01 0. -1.
        -11    1    1    2    0    0 -0.73624766818E+02 -0.13744431621E+02 -0.22269957573E+02  0.78137485882E+02  0.00000000000E+00 0.  1.
         11    1    1    2    0    0 -0.42614913410E+02 -0.37684255701E+02 -0.13454670147E+03  0.14607857081E+03  0.00000000000E+00 0. -1.
</event>
<event>
 7    1  0.2693725E-009  0.8399439E+02  0.7561462E-02  0.1318083E+00
          1   -1    0    0  501    0  0.00000000000E+00  0.00000000000E+00  0.62582006256E+02  0.62582006256E+02  0.00000000000E+00 0. -1.
         -1   -1    0    0    0  501 -0.00000000000E+00 -0.00000000000E+00 -0.26991507432E+03  0.26991507432E+03  0.00000000000E+00 0.  1.
         25    2    1    2    0    0  0.96241475109E+01 -0.24882113834E+02 -0.20057882723E+03  0.23788822849E+03  0.12508876656E+03 0.  0.
          5    1    3    3  502    0 -0.38649566376E+02 -0.17120205861E+02 -0.17953949458E+03  0.18449605129E+03  0.41800000000E+01 0.  1.
         -5    1    3    3    0  502  0.48273713887E+02 -0.77619079738E+01 -0.21039332654E+02  0.53392177202E+02  0.41800000000E+01 0.  1.
        -11    1    1    2    0    0  0.29931053625E+02  0.21270327815E+02  0.24435692826E+02  0.44106665033E+02  0.00000000000E+00 0. -1.
         11    1    1    2    0    0 -0.39555201136E+02  0.36117860195E+01 -0.31189933661E+02  0.50502187051E+02  0.00000000000E+00 0.  1.
</event>
<event>
 7    1  0.2693725E-009  0.1589380E+03  0.7561462E-02  0.1189901E+00
          1   -1    0    0  501    0  0.00000000000E+00  0.00000000000E+00  0.71820269807E+03  0.71820269807E+03  0.00000000000E+00 0. -1.
         -1   -1    0    0    0  501 -0.00000000000E+00 -0.00000000000E+00 -0.60800799518E+02  0.60800799518E+02  0.00000000000E+00 0.  1.
         25    2    1    2    0    0  0.97657060714E+02  0.79896959671E+02  0.57831147697E+03  0.60498973026E+03  0.12509190082E+03 0.  0.
          5    1    3    3  502    0  0.11699373784E+03  0.89180743312E+02  0.41705190601E+03  0.44225615244E+03  0.41800000000E+01 0.  1.
         -5    1    3    3    0  502 -0.19336677124E+02 -0.92837836405E+01  0.16125957096E+03  0.16273357781E+03  0.41800000000E+01 0.  1.
        -11    1    1    2    0    0 -0.66089691582E+02 -0.34871354648E+01  0.59624677917E+02  0.89079232506E+02  0.00000000000E+00 0.  1.
         11    1    1    2    0    0 -0.31567369132E+02 -0.76409824206E+02  0.19465743664E+02  0.84934534823E+02  0.00000000000E+00 0. -1.
</event>
<event>
 7    1  0.2693725E-009  0.2116993E+03  0.7561462E-02  0.1140227E+00
          2   -1    0    0  501    0  0.00000000000E+00  0.00000000000E+00  0.34926277144E+03  0.34926277144E+03  0.00000000000E+00 0.  1.
         -2   -1    0    0    0  501 -0.00000000000E+00 -0.00000000000E+00 -0.14993450751E+03  0.14993450751E+03  0.00000000000E+00 0. -1.
         25    2    1    2    0    0  0.19054662749E+03 -0.65091496178E+02  0.10115360384E+03  0.25772850153E+03  0.12508800426E+03 0.  0.
          5    1    3    3  502    0  0.14530405521E+03 -0.36519487769E+02  0.12855970023E+03  0.19746394702E+03  0.41800000000E+01 0. -1.
         -5    1    3    3    0  502  0.45242572277E+02 -0.28572008409E+02 -0.27406096397E+02  0.60264554512E+02  0.41800000000E+01 0. -1.
        -11    1    1    2    0    0 -0.56335958474E+02  0.64492184313E+02  0.28513388105E+02  0.90255168028E+02  0.00000000000E+00 0.  1.
         11    1    1    2    0    0 -0.13421066901E+03  0.59931186533E+00  0.69661271991E+02  0.15121360940E+03  0.00000000000E+00 0. -1.
</event>
<event>
 7    1  0.2693725E-009  0.1992816E+03  0.7561462E-02  0.1150347E+00
         -2   -1    0    0    0  501 -0.00000000000E+00  0.00000000000E+00  0.71973081362E+02  0.71973081362E+02  0.00000000000E+00 0.  1.
          2   -1    0    0  501    0  0.00000000000E+00 -0.00000000000E+00 -0.72932923703E+03  0.72932923703E+03  0.00000000000E+00 0. -1.
         25    2    1    2    0    0 -0.31759389333E+02  0.17633373198E+03 -0.17534490683E+03  0.28017059466E+03  0.12508989535E+03 0.  0.
          5    1    3    3  502    0 -0.49322492916E+02  0.18967989365E+03 -0.15581100966E+03  0.25041108900E+03  0.41800000000E+01 0.  1.
         -5    1    3    3    0  502  0.17563103583E+02 -0.13346161670E+02 -0.19533897164E+02  0.29759505661E+02  0.41800000000E+01 0.  1.
        -11    1    1    2    0    0  0.80493549874E+01 -0.95547847674E+02 -0.36232998023E+03  0.37480287870E+03  0.00000000000E+00 0.  1.
         11    1    1    2    0    0  0.23710034345E+02 -0.80785884302E+02 -0.11968126861E+03  0.14632884503E+03  0.00000000000E+00 0. -1.
</event>
<event>
 7    1  0.2693725E-009  0.1438637E+03  0.7561462E-02  0.1208223E+00
         -1   -1    0    0    0  501 -0.00000000000E+00  0.00000000000E+00  0.12262396812E+02  0.12262396812E+02  0.00000000000E+00 0.  1.
          1   -1    0    0  501    0  0.00000000000E+00 -0.00000000000E+00 -0.17945400407E+04  0.17945400407E+04  0.00000000000E+00 0. -1.
         25    2    1    2    0    0 -0.87273256571E+02  0.38988643595E+02 -0.11444053967E+04  0.11551838666E+04  0.12509723422E+03 0.  0.
          5    1    3    3  502    0 -0.11231320111E+03  0.55093074373E+02 -0.98977767353E+03  0.99766067248E+03  0.41800000000E+01 0. -1.
         -5    1    3    3    0  502  0.25039944544E+02 -0.16104430778E+02 -0.15462772321E+03  0.15752319416E+03  0.41800000000E+01 0. -1.
        -11    1    1    2    0    0 -0.11839320328E+02 -0.30856991108E+02 -0.13294725127E+03  0.13699377733E+03  0.00000000000E+00 0.  1.
         11    1    1    2    0    0  0.99112576900E+02 -0.81316524869E+01 -0.50492499590E+03  0.51462479357E+03  0.00000000000E+00 0. -1.
</event>
<event>
 7    1  0.2693725E-009  0.1521666E+03  0.7561462E-02  0.1197836E+00
          1   -1    0    0  501    0  0.00000000000E+00  0.00000000000E+00  0.12193907305E+03  0.12193907305E+03  0.00000000000E+00 0. -1.
         -1   -1    0    0    0  501 -0.00000000000E+00 -0.00000000000E+00 -0.27435101495E+03  0.27435101495E+03  0.00000000000E+00 0.  1.
         25    2    1    2    0    0 -0.62227757175E+02 -0.97497229600E+02 -0.18115904781E+03  0.24868408558E+03  0.12508864968E+03 0.  0.
          5    1    3    3  502    0 -0.18245041442E+02  0.29808208168E+02 -0.44825071286E+02  0.56992720827E+02  0.41800000000E+01 0. -1.
         -5    1    3    3    0  502 -0.43982715732E+02 -0.12730543777E+03 -0.13633397652E+03  0.19169136476E+03  0.41800000000E+01 0. -1.
        -11    1    1    2    0    0  0.84962966184E+01  0.76057474616E+02 -0.11140053305E+02  0.77337101631E+02  0.00000000000E+00 0.  1.
         11    1    1    2    0    0  0.53731460556E+02  0.21439754985E+02  0.39887159218E+02  0.70268900787E+02  0.00000000000E+00 0. -1.
</event>
<event>
 7    1  0.2693725E-009  0.1839021E+03  0.7561462E-02  0.1164079E+00
         -2   -1    0    0    0  501 -0.00000000000E+00  0.00000000000E+00  0.18475832137E+03  0.18475832137E+03  0.00000000000E+00 0.  1.
          2   -1    0    0  501    0  0.00000000000E+00 -0.00000000000E+00 -0.24784472977E+03  0.24784472977E+03  0.00000000000E+00 0. -1.
         25    2    1    2    0    0  0.16777316497E+03  0.54695221963E+02 -0.86902483464E+02  0.23310736980E+03  0.12509037545E+03 0.  0.
          5    1    3    3  502    0  0.13563556359E+03  0.49520472735E+02 -0.46264790376E+01  0.14452736778E+03  0.41800000000E+01 0.  1.
         -5    1    3    3    0  502  0.32137601384E+02  0.51747492275E+01 -0.82276004426E+02  0.88580002013E+02  0.41800000000E+01 0.  1.
        -11    1    1    2    0    0 -0.10066035132E+03 -0.68835264620E+02 -0.11252646019E+02  0.12246396215E+03  0.00000000000E+00 0. -1.
         11    1    1    2    0    0 -0.67112813650E+02  0.14140042657E+02  0.35068721090E+02  0.77031719189E+02  0.00000000000E+00 0.  1.
</event>
<event>
 7    1  0.2693725E-009  0.1300724E+03  0.7561462E-02  0.1227348E+00
         -1   -1    0    0    0  501 -0.00000000000E+00  0.00000000000E+00  0.19493948674E+03  0.19493948674E+03  0.00000000000E+00 0.  1.
          1   -1    0    0  501    0  0.00000000000E+00 -0.00000000000E+00 -0.93845464332E+02  0.93845464332E+02  0.00000000000E+00 0. -1.
         25    2    1    2    0    0  0.48801438524E+02  0.60463306818E+02  0.84057833871E+02  0.16956030610E+03  0.12509031176E+03 0.  0.
          5    1    3    3  502    0  0.67457462398E+01  0.90583033680E+02  0.32932042751E+02  0.96709787109E+02  0.41800000000E+01 0.  1.
         -5    1    3    3    0  502  0.42055692284E+02 -0.30119726862E+02  0.51125791121E+02  0.72850518992E+02  0.41800000000E+01 0.  1.
        -11    1    1    2    0    0  0.23517467722E+02 -0.74607121298E+00 -0.16735396695E+01  0.23588739799E+02  0.00000000000E+00 0. -1.
         11    1    1    2    0    0 -0.72318906246E+02 -0.59717235605E+02  0.18709728210E+02  0.95635905175E+02  0.00000000000E+00 0.  1.
</event>
<event>
 7    1  0.2693725E-009  0.1250349E+03  0.7561462E-02  0.1235015E+00
         -1   -1    0    0    0  501 -0.00000000000E+00  0.00000000000E+00  0.16829253224E+03  0.16829253224E+03  0.00000000000E+00 0.  1.
          1   -1    0    0  501    0  0.00000000000E+00 -0.00000000000E+00 -0.10261537754E+03  0.10261537754E+03  0.00000000000E+00 0. -1.
         25    2    1    2    0    0  0.61370321902E+02 -0.30610972059E+02  0.39465271350E+02  0.14802211729E+03  0.12509872718E+03 0.  0.
          5    1    3    3  502    0  0.10722236275E+02 -0.67828811932E+02  0.48793028257E+02  0.84344211925E+02  0.41800000000E+01 0. -1.
         -5    1    3    3    0  502  0.50648085627E+02  0.37217839872E+02 -0.93277569068E+01  0.63677905362E+02  0.41800000000E+01 0. -1.
        -11    1    1    2    0    0 -0.10935551202E+02  0.59271115644E+02  0.28187980344E+01  0.60337360334E+02  0.00000000000E+00 0.  1.
         11    1    1    2    0    0 -0.50434770700E+02 -0.28660143585E+02  0.23393085317E+02  0.62548432167E+02  0.00000000000E+00 0. -1.
</event>
<event>
 7    1  0.2693725E-009  0.1097529E+03  0.7561462E-02  0.1261028E+00
          2   -1    0    0  501    0  0.00000000000E+00  0.00000000000E+00  0.14328404855E+04  0.14328404855E+04  0.00000000000E+00 0. -1.
         -2   -1    0    0    0  501 -0.00000000000E+00 -0.00000000000E+00 -0.14233484414E+02  0.14233484414E+02  0.00000000000E+00 0.  1.
         25    2    1    2    0    0 -0.55573551844E+02  0.68477909203E+02  0.92927172039E+03  0.94179167392E+03  0.12509189835E+03 0.  0.
          5    1    3    3  502    0 -0.46857988754E+02  0.28459045668E+02  0.12610030225E+03  0.13756579160E+03  0.41800000000E+01 0.  1.
         -5    1    3    3    0  502 -0.87155630901E+01  0.40018863535E+02  0.80317141814E+03  0.80422588232E+03  0.41800000000E+01 0.  1.
        -11    1    1    2    0    0 -0.15795527722E+02  0.88653874180E+01  0.42093388125E+02  0.45825179912E+02  0.00000000000E+00 0.  1.
         11    1    1    2    0    0  0.71369079566E+02 -0.77343296621E+02  0.44724189262E+03  0.45945711613E+03  0.00000000000E+00 0. -1.
</event>
<event>
 7    1  0.2693725E-009  0.1005600E+03  0.7561462E-02  0.1279123E+00
          2   -1    0    0  501    0  0.00000000000E+00  0.00000000000E+00  0.32713909759E+03  0.32713909759E+03  0.00000000000E+00 0. -1.
         -2   -1    0    0    0  501 -0.00000000000E+00 -0.00000000000E+00 -0.36779970655E+02  0.36779970655E+02  0.00000000000E+00 0.  1.
         25    2    1    2    0    0  0.73922819058E+01  0.14374397944E+01  0.15231536174E+03  0.19724237104E+03  0.12509145234E+03 0.  0.
          5    1    3    3  502    0  0.57716794789E+02  0.16067698355E+02  0.37083856079E+02  0.70583879978E+02  0.41800000000E+01 0.  1.
         -5    1    3    3    0  502 -0.50324512883E+02 -0.14630258560E+02  0.11523150566E+03  0.12665849107E+03  0.41800000000E+01 0.  1.
        -11    1    1    2    0    0  0.22685448145E+02 -0.36074534790E+02  0.40067256807E+02  0.58492620781E+02  0.00000000000E+00 0.  1.
         11    1    1    2    0    0 -0.30077730050E+02  0.34637094995E+02  0.97976508385E+02  0.10818407642E+03  0.00000000000E+00 0. -1.
</event>
<event>
 7    1  0.2693725E-009  0.1076858E+03  0.7561462E-02  0.1264917E+00
         -1   -1    0    0    0  501 -0.00000000000E+00  0.00000000000E+00  0.43448391168E+02  0.43448391168E+02  0.00000000000E+00 0.  1.
          1   -1    0    0  501    0  0.00000000000E+00 -0.00000000000E+00 -0.32090493824E+03  0.32090493824E+03  0.00000000000E+00 0. -1.
         25    2    1    2    0    0  0.40070938457E+02  0.23858715226E+02 -0.16766613024E+03  0.21432403302E+03  0.12509173234E+03 0.  0.
          5    1    3    3  502    0  0.13182758143E+02 -0.41165210204E+02 -0.12405361954E+03  0.13143489858E+03  0.41800000000E+01 0.  1.
         -5    1    3    3    0  502  0.26888180314E+02  0.65023925430E+02 -0.43612510702E+02  0.82889134442E+02  0.41800000000E+01 0.  1.
        -11    1    1    2    0    0 -0.42005645428E+02 -0.55585153002E+02 -0.66424860125E+02  0.96262378553E+02  0.00000000000E+00 0. -1.
         11    1    1    2    0    0  0.19347069714E+01  0.31726437777E+02 -0.43365556708E+02  0.53766917837E+02  0.00000000000E+00 0.  1.
</event>
<event>
 7    1  0.2693725E-009  0.1825689E+03  0.7561462E-02  0.1165340E+00
         -1   -1    0    0    0  501 -0.00000000000E+00  0.00000000000E+00  0.23300305101E+02  0.23300305101E+02  0.00000000000E+00 0.  1.
          1   -1    0    0  501    0  0.00000000000E+00 -0.00000000000E+00 -0.25391490849E+04  0.25391490849E+04  0.00000000000E+00 0. -1.
         25    2    1    2    0    0  0.12897665820E+03  0.87773748569E+02 -0.20921125206E+04  0.21016474011E+04  0.12509112851E+03 0.  0.
          5    1    3    3  502    0  0.53203524004E+02  0.95724076480E+02 -0.82618477713E+03  0.83342214522E+03  0.41800000000E+01 0.  1.
         -5    1    3    3    0  502  0.75773134196E+02 -0.79503279111E+01 -0.12659277435E+04  0.12682252559E+04  0.41800000000E+01 0.  1.
        -11    1    1    2    0    0 -0.10695492053E+03 -0.10605168838E+03 -0.37732505650E+03  0.40627640086E+03  0.00000000000E+00 0.  1.
         11    1    1    2    0    0 -0.22021737672E+02  0.18277939815E+02 -0.46411202684E+02  0.54525588017E+02  0.00000000000E+00 0. -1.
</event>
<event>
 7    1  0.2693725E-009  0.9326925E+02  0.7561462E-02  0.1295122E+00
          2   -1    0    0  501    0  0.00000000000E+00  0.00000000000E+00  0.62460706270E+03  0.62460706270E+03  0.00000000000E+00 0. -1.
         -2   -1    0    0    0  501 -0.00000000000E+00 -0.00000000000E+00 -0.28382114584E+02  0.28382114584E+02  0.00000000000E+00 0.  1.
         25    2    1    2    0    0 -0.50512558132E+02 -0.42490664062E+02  0.23562226299E+03  0.27480950075E+03  0.12508171659E+03 0.  0.
          5    1    3    3  502    0 -0.55240270899E+02  0.28904122366E+01  0.21924282268E+03  0.22615200576E+03  0.41800000000E+01 0. -1.
         -5    1    3    3    0  502  0.47277127677E+01 -0.45381076299E+02  0.16379440313E+02  0.48657494993E+02  0.41800000000E+01 0. -1.
        -11    1    1    2    0    0  0.62158023839E+02  0.37359669155E+02  0.35789546734E+03  0.36516918044E+03  0.00000000000E+00 0. -1.
         11    1    1    2    0    0 -0.11645465708E+02  0.51309949075E+01  0.27072177874E+01  0.13010496087E+02  0.00000000000E+00 0.  1.
</event>
<event>
 7    1  0.2693725E-009  0.1164867E+03  0.7561462E-02  0.1249008E+00
         -2   -1    0    0    0  501 -0.00000000000E+00  0.00000000000E+00  0.52160221455E+02  0.52160221455E+02  0.00000000000E+00 0.  1.
          2   -1    0    0  501    0  0.00000000000E+00 -0.00000000000E+00 -0.41312007922E+03  0.41312007922E+03  0.00000000000E+00 0. -1.
         25    2    1    2    0    0  0.74807900108E+02  0.28708314385E+02 -0.10649721388E+03  0.18278073467E+03  0.12508697442E+03 0.  0.
          5    1    3    3  502    0 -0.15314981691E+02  0.14439864058E+02  0.18248162917E+02  0.28169596874E+02  0.41800000000E+01 0.  1.
         -5    1    3    3    0  502  0.90122881798E+02  0.14268450327E+02 -0.12474537680E+03  0.15461113780E+03  0.41800000000E+01 0.  1.
        -11    1    1    2    0    0 -0.69978733559E+02  0.18767393934E+02 -0.12442204400E+03  0.14397945430E+03  0.00000000000E+00 0. -1.
         11    1    1    2    0    0 -0.48291665487E+01 -0.47475708320E+02 -0.13004059987E+03  0.13852011170E+03  0.00000000000E+00 0.  1.
</event>
<event>
 7    1  0.2693725E-009  0.6787465E+02  0.7561462E-02  0.1367473E+00
          1   -1    0    0  501    0  0.00000000000E+00  0.00000000000E+00  0.15760184259E+03  0.15760184259E+03  0.00000000000E+00 0. -1.
         -1   -1    0    0    0  501 -0.00000000000E+00 -0.00000000000E+00 -0.97490095201E+02  0.97490095201E+02  0.00000000000E+00 0.  1.
         25    2    1    2    0    0 -0.16561642724E+02 -0.58173459212E+02  0.33228183448E+02  0.14286313891E+03  0.12508926779E+03 0.  0.
          5    1    3    3  502    0 -0.28470343001E+02 -0.47491182047E+02  0.77651098940E+02  0.95462759071E+02  0.41800000000E+01 0. -1.
         -5    1    3    3    0  502  0.11908700278E+02 -0.10682277165E+02 -0.44422915492E+02  0.47400379836E+02  0.41800000000E+01 0. -1.
        -11    1    1    2    0    0 -0.16142125109E+01  0.30709923695E+02  0.58807090502E+02  0.66362481786E+02  0.00000000000E+00 0. -1.
         11    1    1    2    0    0  0.18175855235E+02  0.27463535517E+02 -0.31923526558E+02  0.45866317102E+02  0.00000000000E+00 0.  1.
</event>
<event>
 7    1  0.2693725E-009  0.1280639E+03  0.7561462E-02  0.1230357E+00
         -1   -1    0    0    0  501 -0.00000000000E+00  0.00000000000E+00  0.31531836655E+02  0.31531836655E+02  0.00000000000E+00 0.  1.
          1   -1    0    0  501    0  0.00000000000E+00 -0.00000000000E+00 -0.77026056478E+03  0.77026056478E+03  0.00000000000E+00 0. -1.
         25    2    1    2    0    0  0.23194993541E+02 -0.78594689202E+02 -0.20306770797E+03  0.25218813174E+03  0.12508887591E+03 0.  0.
          5    1    3    3  502    0  0.64480302020E+02 -0.35147508509E+02 -0.16606799686E+03  0.18162904141E+03  0.41800000000E+01 0. -1.
         -5    1    3    3    0  502 -0.41285308480E+02 -0.43447180693E+02 -0.36999711105E+02  0.70559090331E+02  0.41800000000E+01 0. -1.
        -11    1    1    2    0    0 -0.34665912059E+02  0.95762564991E+02 -0.46285121496E+03  0.47392345532E+03  0.00000000000E+00 0.  1.
         11    1    1    2    0    0  0.11470918519E+02 -0.17167875789E+02 -0.72809805198E+02  0.75680814371E+02  0.00000000000E+00 0. -1.
</event>
<event>
 7    1  0.2693725E-009  0.2471448E+03  0.7561462E-02  0.1115123E+00
         -1   -1    0    0    0  501 -0.00000000000E+00  0.00000000000E+00  0.89772753245E+02  0.89772753245E+02  0.00000000000E+00 0.  1.
          1   -1    0    0  501    0  0.00000000000E+00 -0.00000000000E+00 -0.72982324353E+03  0.72982324353E+03  0.00000000000E+00 0. -1.
         25    2    1    2    0    0 -0.91760728097E+02 -0.21112522661E+03 -0.36658083133E+03  0.45058078028E+03  0.12509053171E+03 0.  0.
          5    1    3    3  502    0 -0.11024000708E+03 -0.15947757752E+03 -0.21604793585E+03  0.29031041986E+03  0.41800000000E+01 0. -1.
         -5    1    3    3    0  502  0.18479278980E+02 -0.51647649098E+02 -0.15053289548E+03  0.16027036042E+03  0.41800000000E+01 0. -1.
        -11    1    1    2    0    0  0.76543494976E+01  0.12409548274E+03 -0.11290871911E+03  0.16794837526E+03  0.00000000000E+00 0.  1.
         11    1    1    2    0    0  0.84106378599E+02  0.87029743873E+02 -0.16056093984E+03  0.20106684123E+03  0.00000000000E+00 0. -1.
</event>
<event>
 7    1  0.2693725E-009  0.6806974E+02  0.7561462E-02  0.1366783E+00
         -2   -1    0    0    0  501 -0.00000000000E+00  0.00000000000E+00  0.21095355945E+02  0.21095355945E+02  0.00000000000E+00 0.  1.
          2   -1    0    0  501    0  0.00000000000E+00 -0.00000000000E+00 -0.11473033661E+04  0.11473033661E+04  0.00000000000E+00 0. -1.
         25    2    1    2    0    0  0.78631352162E+01  0.79623547493E+01 -0.10217133302E+04  0.10294032676E+04  0.12509088823E+03 0.  0.
          5    1    3    3  502    0  0.66813863202E+01  0.28641021241E+02 -0.99452976689E+03  0.99497330549E+03  0.41800000000E+01 0. -1.
         -5    1    3    3    0  502  0.11817488960E+01 -0.20678666491E+02 -0.27183563293E+02  0.34429962121E+02  0.41800000000E+01 0. -1.
        -11    1    1    2    0    0 -0.15376892532E+02  0.36816697392E+02 -0.74699674648E+02  0.84687421872E+02  0.00000000000E+00 0. -1.
         11    1    1    2    0    0  0.75137573158E+01 -0.44779052142E+02 -0.29795005363E+02  0.54308032595E+02  0.00000000000E+00 0.  1.
</event>
<event>
 7    1  0.3493758E-009  0.3133480E+03  0.7561462E-02  0.1078752E+00
          2   -1    0    0  501    0  0.00000000000E+00  0.00000000000E+00  0.84992530635E+03  0.84992530635E+03  0.00000000000E+00 0. -1.
         -2   -1    0    0    0  501 -0.00000000000E+00 -0.00000000000E+00 -0.12375760021E+03  0.12375760021E+03  0.00000000000E+00 0.  1.
         25    2    1    2    0    0  0.29536706354E+03  0.76252790427E+02  0.35023931996E+03  0.48101030062E+03  0.12508851980E+03 0.  0.
          5    1    3    3  502    0  0.18004120229E+03  0.24337301398E+02  0.11842849351E+03  0.21690993347E+03  0.41800000000E+01 0. -1.
         -5    1    3    3    0  502  0.11532586126E+03  0.51915489029E+02  0.23181082644E+03  0.26410036716E+03  0.41800000000E+01 0. -1.
        -11    1    1    2    0    0 -0.10197963008E+03 -0.72284715176E+02  0.14969242364E+03  0.19501986231E+03  0.00000000000E+00 0.  1.
         11    1    1    2    0    0 -0.19338743346E+03 -0.39680752509E+01  0.22623596255E+03  0.29765274363E+03  0.00000000000E+00 0. -1.
</event>
<event>
 7    1  0.2693725E-009  0.1047416E+03  0.7561462E-02  0.1270630E+00
          1   -1    0    0  501    0  0.00000000000E+00  0.00000000000E+00  0.36079568634E+03  0.36079568634E+03  0.00000000000E+00 0. -1.
         -1   -1    0    0    0  501 -0.00000000000E+00 -0.00000000000E+00 -0.36557612298E+02  0.36557612298E+02  0.00000000000E+00 0.  1.
         25    2    1    2    0    0 -0.36530951045E+02  0.22382972554E+02  0.18040639900E+03  0.22367032050E+03  0.12508571313E+03 0.  0.
          5    1    3    3  502    0  0.26389937836E+02  0.41267895911E+02  0.25553398227E+02  0.55406828215E+02  0.41800000000E+01 0. -1.
         -5    1    3    3    0  502 -0.62920888881E+02 -0.18884923357E+02  0.15485300078E+03  0.16826349229E+03  0.41800000000E+01 0. -1.
        -11    1    1    2    0    0  0.63577560115E+02 -0.22516810628E+02  0.11989903381E+03  0.13756776955E+03  0.00000000000E+00 0.  1.
         11    1    1    2    0    0 -0.27046609070E+02  0.13383807351E+00  0.23932641235E+02  0.36115208587E+02  0.00000000000E+00 0. -1.
</event>
<event>
 7    1  0.2693725E-009  0.8831812E+02  0.7561462E-02  0.1306976E+00
         -1   -1    0    0    0  501 -0.00000000000E+00  0.00000000000E+00  0.65326293791E+02  0.65326293791E+02  0.00000000000E+00 0.  1.
          1   -1    0    0  501    0  0.00000000000E+00 -0.00000000000E+00 -0.28335468860E+03  0.28335468860E+03  0.00000000000E+00 0. -1.
         25    2    1    2    0    0  0.36435041368E+02 -0.69444044880E+02 -0.13567621006E+03  0.20051456728E+03  0.12509224638E+03 0.  0.
          5    1    3    3  502    0  0.44529425185E+02 -0.56142314310E+02 -0.84549001619E+01  0.72275769800E+02  0.41800000000E+01 0.  1.
         -5    1    3    3    0  502 -0.80943838169E+01 -0.13301730570E+02 -0.12722130990E+03  0.12823879748E+03  0.41800000000E+01 0.  1.
        -11    1    1    2    0    0 -0.45354418543E+02  0.63430368663E+02 -0.10041912535E+03  0.12713943403E+03  0.00000000000E+00 0. -1.
         11    1    1    2    0    0  0.89193771749E+01  0.60136762175E+01  0.18066940601E+02  0.21026981084E+02  0.00000000000E+00 0.  1.
</event>
<event>
 7    1  0.2693725E-009  0.1171598E+03  0.7561462E-02  0.1247857E+00
         -1   -1    0    0    0  501 -0.00000000000E+00  0.00000000000E+00  0.34982622041E+03  0.34982622041E+03  0.00000000000E+00 0.  1.
          1   -1    0    0  501    0  0.00000000000E+00 -0.00000000000E+00 -0.60721957906E+02  0.60721957906E+02  0.00000000000E+00 0. -1.
         25    2    1    2    0    0 -0.67681655464E+02 -0.64328659644E+02  0.19482631423E+03  0.24964832328E+03  0.12509200478E+03 0.  0.
          5    1    3    3  502    0 -0.58931568082E+02  0.11911320356E+02  0.14763283734E+03  0.15946076737E+03  0.41800000000E+01 0. -1.
         -5    1    3    3    0  502 -0.87500873822E+01 -0.76239980001E+02  0.47193476892E+02  0.90187555909E+02  0.41800000000E+01 0. -1.
        -11    1    1    2    0    0  0.20801039568E+02  0.38277612751E+02 -0.90385433230E+01  0.44492180778E+02  0.00000000000E+00 0. -1.
         11    1    1    2    0    0  0.46880615896E+02  0.26051046894E+02  0.10331649159E+03  0.11640767426E+03  0.00000000000E+00 0.  1.
</event>
<event>
 7    1  0.2693725E-009  0.1605415E+03  0.7561462E-02  0.1188087E+00
          2   -1    0    0  501    0  0.00000000000E+00  0.00000000000E+00  0.18331754347E+04  0.18331754347E+04  0.00000000000E+00 0. -1.
         -2   -1    0    0    0  501 -0.00000000000E+00 -0.00000000000E+00 -0.15655615016E+02  0.15655615016E+02  0.00000000000E+00 0.  1.
         25    2    1    2    0    0 -0.93133340330E+02  0.82209660846E+02  0.11791810848E+04  0.11922866177E+04  0.12508837103E+03 0.  0.
          5    1    3    3  502    0 -0.29674674169E+02  0.98172031438E+02  0.88232544713E+03  0.88827585867E+03  0.41800000000E+01 0. -1.
         -5    1    3    3    0  502 -0.63458666161E+02 -0.15962370592E+02  0.29685563765E+03  0.30401075900E+03  0.41800000000E+01 0. -1.
        -11    1    1    2    0    0  0.62278445379E+02  0.28940935493E+01  0.23075688842E+03  0.23903079737E+03  0.00000000000E+00 0.  1.
         11    1    1    2    0    0  0.30854894951E+02 -0.85103754396E+02  0.40758184643E+03  0.41751363463E+03  0.00000000000E+00 0. -1.
</event>
<event>
 7    1  0.2693725E-009  0.9615661E+02  0.7561462E-02  0.1288592E+00
         -1   -1    0    0    0  501 -0.00000000000E+00  0.00000000000E+00  0.49408985177E+02  0.49408985177E+02  0.00000000000E+00 0. -1.
          1   -1    0    0  501    0  0.00000000000E+00 -0.00000000000E+00 -0.24964348636E+03  0.24964348636E+03  0.00000000000E+00 0.  1.
         25    2    1    2    0    0  0.36617608501E+01 -0.52294550003E+01 -0.83603963276E+02  0.15059588002E+03  0.12509492681E+03 0.  0.
          5    1    3    3  502    0 -0.27185080673E+02  0.50819684129E+02 -0.22447587022E+02  0.61992221039E+02  0.41800000000E+01 0.  1.
         -5    1    3    3    0  502  0.30846841524E+02 -0.56049139130E+02 -0.61156376254E+02  0.88603658986E+02  0.41800000000E+01 0.  1.
        -11    1    1    2    0    0  0.18736786172E+02 -0.25960204188E+02 -0.10275556396E+03  0.10762762323E+03  0.00000000000E+00 0.  1.
         11    1    1    2    0    0 -0.22398547022E+02  0.31189659188E+02 -0.13874973948E+02  0.40828968283E+02  0.00000000000E+00 0. -1.
</event>
<event>
 7    1  0.2693725E-009  0.3160694E+03  0.7561462E-02  0.1077473E+00
          2   -1    0    0  501    0  0.00000000000E+00  0.00000000000E+00  0.11359613000E+04  0.11359613000E+04  0.00000000000E+00 0. -1.
         -2   -1    0    0    0  501 -0.00000000000E+00 -0.00000000000E+00 -0.94933851945E+02  0.94933851945E+02  0.00000000000E+00 0.  1.
         25    2    1    2    0    0 -0.30816246562E+03 -0.18560012356E+01  0.47544963933E+03  0.58023038379E+03  0.12508952308E+03 0.  0.
          5    1    3    3  502    0 -0.14932645305E+03 -0.49480591038E+02  0.30008784034E+03  0.33884642950E+03  0.41800000000E+01 0.  1.
         -5    1    3    3    0  502 -0.15883601257E+03  0.47624589802E+02  0.17536179899E+03  0.24138395429E+03  0.41800000000E+01 0.  1.
        -11    1    1    2    0    0  0.11701130540E+03  0.11003993411E+02  0.13204205164E+03  0.17677057692E+03  0.00000000000E+00 0.  1.
         11    1    1    2    0    0  0.19115116021E+03 -0.91479921756E+01  0.43353575708E+03  0.47389419123E+03  0.00000000000E+00 0. -1.
</event>
<event>
 7    1  0.2693725E-009  0.8749071E+02  0.7561462E-02  0.1309045E+00
          1   -1    0    0  501    0  0.00000000000E+00  0.00000000000E+00  0.44989451892E+03  0.44989451892E+03  0.00000000000E+00 0. -1.
         -1   -1    0    0    0  501 -0.00000000000E+00 -0.00000000000E+00 -0.31310361216E+02  0.31310361216E+02  0.00000000000E+00 0.  1.
         25    2    1    2    0    0  0.48179986872E+00  0.28854116256E+02  0.29825780515E+03  0.32471122503E+03  0.12508744608E+03 0.  0.
          5    1    3    3  502    0  0.28332887413E+02  0.44292260374E+02  0.28520833485E+03  0.29004451987E+03  0.41800000000E+01 0.  1.
         -5    1    3    3    0  502 -0.27851087544E+02 -0.15438144118E+02  0.13049470301E+02  0.34666705156E+02  0.41800000000E+01 0.  1.
        -11    1    1    2    0    0 -0.24917936487E+02 -0.51241388953E+02  0.40051947137E+02  0.69647268217E+02  0.00000000000E+00 0.  1.
         11    1    1    2    0    0  0.24436136619E+02  0.22387272697E+02  0.80274405413E+02  0.86846386891E+02  0.00000000000E+00 0. -1.
</event>
<event>
 7    1  0.2693725E-009  0.9209064E+02  0.7561462E-02  0.1297866E+00
         -1   -1    0    0    0  501 -0.00000000000E+00  0.00000000000E+00  0.48927378357E+02  0.48927378357E+02  0.00000000000E+00 0.  1.
          1   -1    0    0  501    0  0.00000000000E+00 -0.00000000000E+00 -0.30937886835E+03  0.30937886835E+03  0.00000000000E+00 0. -1.
         25    2    1    2    0    0  0.47864217823E+02 -0.32674666222E+02 -0.15878318001E+03  0.21028309876E+03  0.12509303021E+03 0.  0.
          5    1    3    3  502    0  0.40747204892E+02 -0.47779003325E+02 -0.17540608385E+03  0.18635432519E+03  0.41800000000E+01 0.  1.
         -5    1    3    3    0  502  0.71170129313E+01  0.15104337104E+02  0.16622903839E+02  0.23928773567E+02  0.41800000000E+01 0.  1.
        -11    1    1    2    0    0 -0.68111609187E+02  0.30851072222E+01 -0.47623113417E+02  0.83166520452E+02  0.00000000000E+00 0.  1.
         11    1    1    2    0    0  0.20247391364E+02  0.29589558999E+02 -0.54045196570E+02  0.64856627503E+02  0.00000000000E+00 0. -1.
</event>
<event>
 7    1  0.2693725E-009  0.1239072E+03  0.7561462E-02  0.1236787E+00
         -2   -1    0    0    0  501 -0.00000000000E+00  0.00000000000E+00  0.29204756940E+02  0.29204756940E+02  0.00000000000E+00 0.  1.
          2   -1    0    0  501    0  0.00000000000E+00 -0.00000000000E+00 -0.60788816353E+03  0.60788816353E+03  0.00000000000E+00 0. -1.
         25    2    1    2    0    0  0.61826194633E+02 -0.47685150294E+02 -0.30997493667E+03  0.34326312027E+03  0.12509498980E+03 0.  0.
          5    1    3    3  502    0  0.77117789747E+02  0.18489272300E+02 -0.16785559505E+03  0.18569324133E+03  0.41800000000E+01 0. -1.
         -5    1    3    3    0  502 -0.15291595114E+02 -0.66174422594E+02 -0.14211934162E+03  0.15756987894E+03  0.41800000000E+01 0. -1.
        -11    1    1    2    0    0 -0.61216801659E+02  0.92468768625E+01 -0.23394873580E+03  0.24200209197E+03  0.00000000000E+00 0.  1.
         11    1    1    2    0    0 -0.60939297400E+00  0.38438273431E+02 -0.34759734124E+02  0.51827708232E+02  0.00000000000E+00 0. -1.
</event>
<event>
 7    1  0.2693725E-009  0.1036606E+03  0.7561462E-02  0.1272781E+00
          1   -1    0    0  501    0  0.00000000000E+00  0.00000000000E+00  0.17535082203E+02  0.17535082203E+02  0.00000000000E+00 0. -1.
         -1   -1    0    0    0  501 -0.00000000000E+00 -0.00000000000E+00 -0.94387474027E+03  0.94387474027E+03  0.00000000000E+00 0.  1.
         25    2    1    2    0    0  0.54580337036E+02 -0.25335865388E+02 -0.63749122412E+03  0.65242879545E+03  0.12508938019E+03 0.  0.
          5    1    3    3  502    0 -0.10179078187E+02  0.29031147930E+02 -0.49897686758E+02  0.58767956632E+02  0.41800000000E+01 0. -1.
         -5    1    3    3    0  502  0.64759415223E+02 -0.54367013318E+02 -0.58759353736E+03  0.59366083881E+03  0.41800000000E+01 0. -1.
        -11    1    1    2    0    0 -0.53075081955E+02 -0.11864938376E+02 -0.79340916905E+02  0.96191071220E+02  0.00000000000E+00 0.  1.
         11    1    1    2    0    0 -0.15052550815E+01  0.37200803763E+02 -0.20950751704E+03  0.21278995580E+03  0.00000000000E+00 0. -1.
</event>
<event>
 7    1  0.2693725E-009  0.8836271E+02  0.7561462E-02  0.1306866E+00
         -1   -1    0    0    0  501 -0.00000000000E+00  0.00000000000E+00  0.21707497413E+02  0.21707497413E+02  0.00000000000E+00 0.  1.
          1   -1    0    0  501    0  0.00000000000E+00 -0.00000000000E+00 -0.49497605847E+03  0.49497605847E+03  0.00000000000E+00 0. -1.
         25    2    1    2    0    0  0.21020833357E+02  0.20523194698E+02 -0.29012854602E+03  0.31730809029E+03  0.12508706565E+03 0.  0.
          5    1    3    3  502    0 -0.37358496621E+02  0.30070847263E+02 -0.22121079832E+03  0.22638816846E+03  0.41800000000E+01 0.  1.
         -5    1    3    3    0  502  0.58379329978E+02 -0.95476525645E+01 -0.68917747697E+02  0.90919921831E+02  0.41800000000E+01 0.  1.
        -11    1    1    2    0    0  0.18634820627E+02 -0.22939402589E+02 -0.12827956356E+03  0.13164011226E+03  0.00000000000E+00 0.  1.
         11    1    1    2    0    0 -0.39655653984E+02  0.24162078913E+01 -0.54860451482E+02  0.67735353326E+02  0.00000000000E+00 0. -1.
</event>
<event>
 7    1  0.2693725E-009  0.1466000E+03  0.7561462E-02  0.1204714E+00
         -1   -1    0    0    0  501 -0.00000000000E+00  0.00000000000E+00  0.19350166326E+02  0.19350166326E+02  0.00000000000E+00 0.  1.
          1   -1    0    0  501    0  0.00000000000E+00 -0.00000000000E+00 -0.15718373683E+04  0.15718373683E+04  0.00000000000E+00 0. -1.
         25    2    1    2    0    0  0.61583863671E+02  0.90868021951E+02 -0.11902495163E+04  0.12018281607E+04  0.12508975648E+03 0.  0.
          5    1    3    3  502    0  0.75790384436E+02  0.10533352966E+03 -0.11415738855E+04  0.11489333067E+04  0.41800000000E+01 0. -1.
         -5    1    3    3    0  502 -0.14206520765E+02 -0.14465507709E+02 -0.48675630760E+02  0.52894853959E+02  0.41800000000E+01 0. -1.
        -11    1    1    2    0    0 -0.54374601244E+02 -0.29530558275E+01 -0.13091413154E+03  0.14178796717E+03  0.00000000000E+00 0. -1.
         11    1    1    2    0    0 -0.72092624266E+01 -0.87914966123E+02 -0.23132355419E+03  0.24757140679E+03  0.00000000000E+00 0.  1.
</event>
<event>
 7    1  0.2693725E-009  0.1278100E+03  0.7561462E-02  0.1230742E+00
          2   -1    0    0  501    0  0.00000000000E+00  0.00000000000E+00  0.12866169252E+04  0.12866169252E+04  0.00000000000E+00 0. -1.
         -2   -1    0    0    0  501 -0.00000000000E+00 -0.00000000000E+00 -0.13547742023E+02  0.13547742023E+02  0.00000000000E+00 0.  1.
         25    2    1    2    0    0  0.30136059771E+02  0.69692907132E+02  0.75489693214E+03  0.76894882683E+03  0.12509051415E+03 0.  0.
          5    1    3    3  502    0 -0.45184281989E+02  0.53600670216E+01  0.18994370327E+03  0.19536231077E+03  0.41800000000E+01 0.  1.
         -5    1    3    3    0  502  0.75320341760E+02  0.64332840110E+02  0.56495322887E+03  0.57358651606E+03  0.41800000000E+01 0.  1.
        -11    1    1    2    0    0 -0.57575792555E+02 -0.55155624299E+02  0.43880924019E+03  0.44599401796E+03  0.00000000000E+00 0.  1.
         11    1    1    2    0    0  0.27439732784E+02 -0.14537282833E+02  0.79363010832E+02  0.85221822415E+02  0.00000000000E+00 0. -1.
</event>
<event>
 7    1  0.2693725E-009  0.1140725E+03  0.7561462E-02  0.1253209E+00
         -2   -1    0    0    0  501 -0.00000000000E+00  0.00000000000E+00  0.11963621229E+03  0.11963621229E+03  0.00000000000E+00 0.  1.
          2   -1    0    0  501    0  0.00000000000E+00 -0.00000000000E+00 -0.20103773864E+03  0.20103773864E+03  0.00000000000E+00 0. -1.
         25    2    1    2    0    0 -0.10826929662E+03 -0.15842088495E+02 -0.27372163812E+02  0.16843115324E+03  0.12508639283E+03 0.  0.
          5    1    3    3  502    0 -0.94150669703E+02 -0.10157732315E+02 -0.73327280807E+02  0.11984110581E+03  0.41800000000E+01 0. -1.
         -5    1    3    3    0  502 -0.14118626914E+02 -0.56843561800E+01  0.45955116996E+02  0.48590047430E+02  0.41800000000E+01 0. -1.
        -11    1    1    2    0    0  0.56153963618E+02 -0.13514492652E+02 -0.69590991179E+02  0.90436802216E+02  0.00000000000E+00 0. -1.
         11    1    1    2    0    0  0.52115332999E+02  0.29356581148E+02  0.15561628650E+02  0.61805995474E+02  0.00000000000E+00 0.  1.
</event>
<event>
 7    1  0.2693725E-009  0.2431833E+03  0.7561462E-02  0.1117690E+00
         -2   -1    0    0    0  501 -0.00000000000E+00  0.00000000000E+00  0.82847881594E+03  0.82847881594E+03  0.00000000000E+00 0.  1.
          2   -1    0    0  501    0  0.00000000000E+00 -0.00000000000E+00 -0.78218030726E+02  0.78218030726E+02  0.00000000000E+00 0. -1.
         25    2    1    2    0    0 -0.11452183774E+03  0.19886279956E+03  0.41729880922E+03  0.49238931289E+03  0.12508906788E+03 0.  0.
          5    1    3    3  502    0  0.93372611483E+01  0.80375322962E+01 -0.39672053055E+01  0.13601378206E+02  0.41800000000E+01 0.  1.
         -5    1    3    3    0  502 -0.12385909889E+03  0.19082526726E+03  0.42126601453E+03  0.47878793468E+03  0.41800000000E+01 0.  1.
        -11    1    1    2    0    0  0.24248429548E+02 -0.13010072636E+03  0.19506245575E+03  0.23571921216E+03  0.00000000000E+00 0.  1.
         11    1    1    2    0    0  0.90273408193E+02 -0.68762073196E+02  0.13789952024E+03  0.17858832162E+03  0.00000000000E+00 0. -1.
</event>
<event>
 7    1  0.2693725E-009  0.1508105E+03  0.7561462E-02  0.1199481E+00
          3   -1    0    0  501    0  0.00000000000E+00  0.00000000000E+00  0.17720876491E+03  0.17720876491E+03  0.00000000000E+00 0. -1.
         -3   -1    0    0    0  501 -0.00000000000E+00 -0.00000000000E+00 -0.23266405894E+03  0.23266405894E+03  0.00000000000E+00 0.  1.
         25    2    1    2    0    0  0.41743570122E+02 -0.59496529655E+02 -0.10748629910E+03  0.18023003604E+03  0.12508876332E+03 0.  0.
          5    1    3    3  502    0 -0.22482924532E+02 -0.19242863014E+02 -0.99506778664E+02  0.10389822459E+03  0.41800000000E+01 0.  1.
         -5    1    3    3    0  502  0.64226494654E+02 -0.40253666640E+02 -0.79795204386E+01  0.76331811455E+02  0.41800000000E+01 0.  1.
        -11    1    1    2    0    0 -0.39351279100E+02  0.12460332450E+03 -0.20365903471E+02  0.13224704786E+03  0.00000000000E+00 0.  1.
         11    1    1    2    0    0 -0.23922910219E+01 -0.65106794847E+02  0.72396908547E+02  0.97395739942E+02  0.00000000000E+00 0. -1.
</event>
<event>
 7    1  0.2693725E-009  0.8730873E+02  0.7561462E-02  0.1309503E+00
         -2   -1    0    0    0  501 -0.00000000000E+00  0.00000000000E+00  0.17232682516E+02  0.17232682516E+02  0.00000000000E+00 0.  1.
          2   -1    0    0  501    0  0.00000000000E+00 -0.00000000000E+00 -0.83587967720E+03  0.83587967720E+03  0.00000000000E+00 0. -1.
         25    2    1    2    0    0 -0.10793823145E+02  0.17101206950E+01 -0.62466991472E+03  0.63716571225E+03  0.12509281103E+03 0.  0.
          5    1    3    3  502    0  0.40399163525E+02 -0.27386844843E+02 -0.12891043428E+03  0.13790396713E+03  0.41800000000E+01 0. -1.
         -5    1    3    3    0  502 -0.51192986670E+02  0.29096965538E+02 -0.49575948044E+03  0.49926174511E+03  0.41800000000E+01 0. -1.
        -11    1    1    2    0    0  0.29978481402E+02  0.21200212502E+02 -0.17860973400E+03  0.18234471595E+03  0.00000000000E+00 0.  1.
         11    1    1    2    0    0 -0.19184658257E+02 -0.22910333197E+02 -0.15367345964E+02  0.33601931516E+02  0.00000000000E+00 0. -1.
</event>
<event>
 7    1  0.2693725E-009  0.1199472E+03  0.7561462E-02  0.1243184E+00
         -2   -1    0    0    0  501 -0.00000000000E+00  0.00000000000E+00  0.66809329792E+02  0.66809329792E+02  0.00000000000E+00 0.  1.
          2   -1    0    0  501    0  0.00000000000E+00 -0.00000000000E+00 -0.25022445151E+03  0.25022445151E+03  0.00000000000E+00 0. -1.
         25    2    1    2    0    0 -0.28902832867E+01 -0.59814002802E+02 -0.53772518237E+02  0.14874531733E+03  0.12509043546E+03 0.  0.
          5    1    3    3  502    0 -0.12646024519E+02  0.37879467545E+02 -0.11473087725E+02  0.41759790943E+02  0.41800000000E+01 0. -1.
         -5    1    3    3    0  502  0.97557412322E+01 -0.97693470348E+02 -0.42299430512E+02  0.10698552639E+03  0.41800000000E+01 0. -1.
        -11    1    1    2    0    0  0.42284339005E+02  0.26682846096E+02 -0.36625397785E+02  0.61978700889E+02  0.00000000000E+00 0. -1.
         11    1    1    2    0    0 -0.39394055719E+02  0.33131156706E+02 -0.93017205696E+02  0.10630976308E+03  0.00000000000E+00 0.  1.
</event>
<event>
 7    1  0.2693725E-009  0.1361383E+03  0.7561462E-02  0.1218622E+00
          4   -1    0    0  501    0  0.00000000000E+00  0.00000000000E+00  0.13764710656E+03  0.13764710656E+03  0.00000000000E+00 0. -1.
         -4   -1    0    0    0  501 -0.00000000000E+00 -0.00000000000E+00 -0.24702255813E+03  0.24702255813E+03  0.00000000000E+00 0.  1.
         25    2    1    2    0    0  0.22008535048E+02  0.11965706414E+03  0.32711155784E+02  0.17753767386E+03  0.12508963712E+03 0.  0.
          5    1    3    3  502    0  0.43330019490E+02  0.11913345635E+03  0.61908252932E+02  0.14113955927E+03  0.41800000000E+01 0.  1.
         -5    1    3    3    0  502 -0.21321484442E+02  0.52360778973E+00 -0.29197097148E+02  0.36398114592E+02  0.41800000000E+01 0.  1.
        -11    1    1    2    0    0 -0.26651089323E+02 -0.98226549950E+02 -0.51762729191E+02  0.11418456906E+03  0.00000000000E+00 0. -1.
         11    1    1    2    0    0  0.46425542757E+01 -0.21430514188E+02 -0.90323878162E+02  0.92947421776E+02  0.00000000000E+00 0.  1.
</event>
<event>
 7    1  0.2693725E-009  0.1027822E+03  0.7561462E-02  0.1274552E+00
          1   -1    0    0  501    0  0.00000000000E+00  0.00000000000E+00  0.55416940989E+03  0.55416940989E+03  0.00000000000E+00 0. -1.
         -1   -1    0    0    0  501 -0.00000000000E+00 -0.00000000000E+00 -0.28348486140E+02  0.28348486140E+02  0.00000000000E+00 0.  1.
         25    2    1    2    0    0  0.99318144590E+01  0.38653435517E+02  0.39460027513E+03  0.41587232339E+03  0.12509069995E+03 0.  0.
          5    1    3    3  502    0 -0.46461013542E+02  0.18551142712E+02  0.29762169500E+03  0.30182597040E+03  0.41800000000E+01 0. -1.
         -5    1    3    3    0  502  0.56392828001E+02  0.20102292806E+02  0.96978580131E+02  0.11404635299E+03  0.41800000000E+01 0. -1.
        -11    1    1    2    0    0 -0.29731624034E+02  0.18394506084E+02  0.20501088514E+02  0.40529272779E+02  0.00000000000E+00 0.  1.
         11    1    1    2    0    0  0.19799809575E+02 -0.57047941601E+02  0.11071956010E+03  0.12611629986E+03  0.00000000000E+00 0. -1.
</event>
<event>
 7    1  0.2693725E-009  0.1063410E+03  0.7561462E-02  0.1267500E+00
         -1   -1    0    0    0  501 -0.00000000000E+00  0.00000000000E+00  0.18940787678E+03  0.18940787678E+03  0.00000000000E+00 0.  1.
          1   -1    0    0  501    0  0.00000000000E+00 -0.00000000000E+00 -0.74768994545E+02  0.74768994545E+02  0.00000000000E+00 0. -1.
         25    2    1    2    0    0  0.14075128060E+02 -0.35629772345E+02  0.30357471481E+02  0.13429956039E+03  0.12508879222E+03 0.  0.
          5    1    3    3  502    0  0.23294059969E+02  0.39738395245E+02 -0.11272203893E+02  0.47605548701E+02  0.41800000000E+01 0.  1.
         -5    1    3    3    0  502 -0.92189319096E+01 -0.75368167590E+02  0.41629675373E+02  0.86694011692E+02  0.41800000000E+01 0.  1.
        -11    1    1    2    0    0 -0.46340629470E+02  0.35069868806E+02  0.77555655575E+02  0.96913514792E+02  0.00000000000E+00 0.  1.
         11    1    1    2    0    0  0.32265501411E+02  0.55990353925E+00  0.67257551799E+01  0.32963796141E+02  0.00000000000E+00 0. -1.
</event>
<event>
 7    1  0.2693725E-009  0.2247462E+03  0.7561462E-02  0.1130393E+00
          1   -1    0    0  501    0  0.00000000000E+00  0.00000000000E+00  0.53514731506E+03  0.53514731506E+03  0.00000000000E+00 0. -1.
         -1   -1    0    0    0  501 -0.00000000000E+00 -0.00000000000E+00 -0.14162456369E+03  0.14162456369E+03  0.00000000000E+00 0.  1.
         25    2    1    2    0    0 -0.20674209495E+03 -0.76591903946E+02  0.46519612220E+02  0.25771906626E+03  0.12508568750E+03 0.  0.
          5    1    3    3  502    0 -0.75253692534E+02 -0.35243557983E+02  0.80417813996E+02  0.11571397421E+03  0.41800000000E+01 0.  1.
         -5    1    3    3    0  502 -0.13148840242E+03 -0.41348345962E+02 -0.33898201776E+02  0.14200509205E+03  0.41800000000E+01 0.  1.
        -11    1    1    2    0    0  0.67156250077E+02  0.55699612938E+02  0.87010279510E+02  0.12322011827E+03  0.00000000000E+00 0. -1.
         11    1    1    2    0    0  0.13958584487E+03  0.20892291007E+02  0.25999285963E+03  0.29583269423E+03  0.00000000000E+00 0.  1.
</event>
<event>
 7    1  0.2693725E-009  0.1191311E+03  0.7561462E-02  0.1244537E+00
         -2   -1    0    0    0  501 -0.00000000000E+00  0.00000000000E+00  0.18049572967E+02  0.18049572967E+02  0.00000000000E+00 0.  1.
          2   -1    0    0  501    0  0.00000000000E+00 -0.00000000000E+00 -0.95327747257E+03  0.95327747257E+03  0.00000000000E+00 0. -1.
         25    2    1    2    0    0 -0.58351260421E+02 -0.46018664082E+02 -0.53663304434E+03  0.55600832114E+03  0.12509053465E+03 0.  0.
          5    1    3    3  502    0 -0.92304961138E+02 -0.22149783049E+02 -0.44913274649E+03  0.45907353998E+03  0.41800000000E+01 0.  1.
         -5    1    3    3    0  502  0.33953700717E+02 -0.23868881033E+02 -0.87500297849E+02  0.96934781156E+02  0.41800000000E+01 0.  1.
        -11    1    1    2    0    0 -0.13626761340E+02  0.21570321848E+02 -0.32004784675E+02  0.40930106906E+02  0.00000000000E+00 0.  1.
         11    1    1    2    0    0  0.71978021761E+02  0.24448342234E+02 -0.36659007059E+03  0.37438861749E+03  0.00000000000E+00 0. -1.
</event>
<event>
 7    1  0.2693725E-009  0.1176440E+03  0.7561462E-02  0.1247035E+00
          2   -1    0    0  501    0  0.00000000000E+00  0.00000000000E+00  0.70217212384E+03  0.70217212384E+03  0.00000000000E+00 0. -1.
         -2   -1    0    0    0  501 -0.00000000000E+00 -0.00000000000E+00 -0.22454617033E+02  0.22454617033E+02  0.00000000000E+00 0.  1.
         25    2    1    2    0    0  0.56687530028E+02 -0.19330243039E+02  0.43337613669E+03  0.45502733875E+03  0.12509144176E+03 0.  0.
          5    1    3    3  502    0  0.46424121319E+02 -0.65056470826E+02  0.17539856500E+03  0.19279437865E+03  0.41800000000E+01 0.  1.
         -5    1    3    3    0  502  0.10263408710E+02  0.45726227787E+02  0.25797757169E+03  0.26223296010E+03  0.41800000000E+01 0.  1.
        -11    1    1    2    0    0 -0.34656837643E+02 -0.35197873033E+02  0.91797278522E+02  0.10424359455E+03  0.00000000000E+00 0.  1.
         11    1    1    2    0    0 -0.22030692385E+02  0.54528116072E+02  0.15454409160E+03  0.16535580757E+03  0.00000000000E+00 0. -1.
</event>
<event>
 7    1  0.2693725E-009  0.1186622E+03  0.7561462E-02  0.1245320E+00
         -2   -1    0    0    0  501 -0.00000000000E+00  0.00000000000E+00  0.60158286697E+02  0.60158286697E+02  0.00000000000E+00 0. -1.
          2   -1    0    0  501    0  0.00000000000E+00 -0.00000000000E+00 -0.11334381730E+04  0.11334381730E+04  0.00000000000E+00 0.  1.
         25    2    1    2    0    0 -0.62569543576E+02  0.97212170561E+02 -0.10226994251E+04  0.10367867457E+04  0.12508991942E+03 0.  0.
          5    1    3    3  502    0 -0.40098909098E+02  0.47958557713E+02 -0.15214119132E+03  0.16453680520E+03  0.41800000000E+01 0. -1.
         -5    1    3    3    0  502 -0.22470634479E+02  0.49253612848E+02 -0.87055823380E+03  0.87224994046E+03  0.41800000000E+01 0. -1.
        -11    1    1    2    0    0  0.65416169995E+02 -0.81999345988E+02 -0.10327676652E+01  0.10490107077E+03  0.00000000000E+00 0. -1.
         11    1    1    2    0    0 -0.28466264187E+01 -0.15212824573E+02 -0.49547693544E+02  0.51908643297E+02  0.00000000000E+00 0.  1.
</event>
<event>
 7    1  0.2693725E-009  0.2018680E+03  0.7561462E-02  0.1148173E+00
         -2   -1    0    0    0  501 -0.00000000000E+00  0.00000000000E+00  0.45261232512E+02  0.45261232512E+02  0.00000000000E+00 0.  1.
          2   -1    0    0  501    0  0.00000000000E+00 -0.00000000000E+00 -0.10332412679E+04  0.10332412679E+04  0.00000000000E+00 0. -1.
         25    2    1    2    0    0  0.18350779488E+03  0.33073080780E+02 -0.52029086938E+03  0.56667303772E+03  0.12508718349E+03 0.  0.
          5    1    3    3  502    0  0.25415203623E+01 -0.94539064697E+01  0.32197333894E+01  0.11120915268E+02  0.41800000000E+01 0.  1.
         -5    1    3    3    0  502  0.18096627451E+03  0.42526987250E+02 -0.52351060277E+03  0.55555212245E+03  0.41800000000E+01 0.  1.
        -11    1    1    2    0    0  0.91671337005E+00 -0.22396226233E+02 -0.38103339473E+02  0.44207417838E+02  0.00000000000E+00 0. -1.
         11    1    1    2    0    0 -0.18442450825E+03 -0.10676854548E+02 -0.42958582650E+03  0.46762204481E+03  0.00000000000E+00 0.  1.
</event>
<event>
 7    1  0.2693725E-009  0.1335079E+03  0.7561462E-02  0.1222342E+00
         -1   -1    0    0    0  501 -0.00000000000E+00  0.00000000000E+00  0.29317632749E+03  0.29317632749E+03  0.00000000000E+00 0.  1.
          1   -1    0    0  501    0  0.00000000000E+00 -0.00000000000E+00 -0.10153251801E+03  0.10153251801E+03  0.00000000000E+00 0. -1.
         25    2    1    2    0    0 -0.14255368954E+01  0.11295781680E+03  0.20772285922E+02  0.16982688003E+03  0.12509268878E+03 0.  0.
          5    1    3    3  502    0  0.23103704418E+02  0.12789557923E+02 -0.41438743221E+02  0.49315269333E+02  0.41800000000E+01 0. -1.
         -5    1    3    3    0  502 -0.24529241314E+02  0.10016825887E+03  0.62211029143E+02  0.12051161070E+03  0.41800000000E+01 0. -1.
        -11    1    1    2    0    0  0.36339297546E+02 -0.30215574221E+02  0.24698229869E+02  0.53324741258E+02  0.00000000000E+00 0. -1.
         11    1    1    2    0    0 -0.34913760651E+02 -0.82742242577E+02  0.14617329370E+03  0.17155722421E+03  0.00000000000E+00 0.  1.
</event>
<event>
 7    1  0.2693725E-009  0.1603987E+03  0.7561462E-02  0.1188247E+00
          2   -1    0    0  501    0  0.00000000000E+00  0.00000000000E+00  0.32886333626E+03  0.32886333626E+03  0.00000000000E+00 0. -1.
         -2   -1    0    0    0  501 -0.00000000000E+00 -0.00000000000E+00 -0.10168952048E+03  0.10168952048E+03  0.00000000000E+00 0.  1.
         25    2    1    2    0    0 -0.97244509265E+02  0.77924760145E+02  0.21132053209E+03  0.27537849868E+03  0.12509271533E+03 0.  0.
          5    1    3    3  502    0 -0.11909728326E+02  0.89160206477E+02  0.11661467760E+03  0.14733580515E+03  0.41800000000E+01 0. -1.
         -5    1    3    3    0  502 -0.85334780939E+02 -0.11235446332E+02  0.94705854485E+02  0.12804269353E+03  0.41800000000E+01 0. -1.
        -11    1    1    2    0    0 -0.88275777797E+01  0.48100271146E+01 -0.14139248425E+02  0.17348799276E+02  0.00000000000E+00 0.  1.
         11    1    1    2    0    0  0.10607208704E+03 -0.82734787260E+02  0.29992532116E+02  0.13782555879E+03  0.00000000000E+00 0. -1.
</event>
<event>
 7    1  0.2693725E-009  0.1192051E+03  0.7561462E-02  0.1244414E+00
         -2   -1    0    0    0  501 -0.00000000000E+00  0.00000000000E+00  0.89016381820E+02  0.89016381820E+02  0.00000000000E+00 0.  1.
          2   -1    0    0  501    0  0.00000000000E+00 -0.00000000000E+00 -0.23410599636E+03  0.23410599636E+03  0.00000000000E+00 0. -1.
         25    2    1    2    0    0 -0.28152352095E+02 -0.79228542680E+02 -0.13227223136E+03  0.20053466097E+03  0.12509392535E+03 0.  0.
          5    1    3    3  502    0 -0.52589683494E+02  0.12339301140E+02 -0.34102447675E+02  0.64018610576E+02  0.41800000000E+01 0. -1.
         -5    1    3    3    0  502  0.24437331400E+02 -0.91567843820E+02 -0.98169783683E+02  0.13651605040E+03  0.41800000000E+01 0. -1.
        -11    1    1    2    0    0 -0.23850510709E+01  0.37922727122E+02  0.35547938442E+02  0.52033427991E+02  0.00000000000E+00 0.  1.
         11    1    1    2    0    0  0.30537403166E+02  0.41305815557E+02 -0.48365321628E+02  0.70554289219E+02  0.00000000000E+00 0. -1.
</event>
<event>
 7    1  0.2693725E-009  0.3699167E+03  0.7561462E-02  0.1054725E+00
          2   -1    0    0  501    0  0.00000000000E+00  0.00000000000E+00  0.17683367219E+04  0.17683367219E+04  0.00000000000E+00 0.  1.
         -2   -1    0    0    0  501 -0.00000000000E+00 -0.00000000000E+00 -0.80276415947E+02  0.80276415947E+02  0.00000000000E+00 0. -1.
         25    2    1    2    0    0 -0.14923385538E+02 -0.35390237795E+03  0.10256231085E+04  0.10922548237E+04  0.12509292025E+03 0.  0.
          5    1    3    3  502    0 -0.67852795696E+02 -0.15894003020E+03  0.50686271248E+03  0.53553078043E+03  0.41800000000E+01 0.  1.
         -5    1    3    3    0  502  0.52929410157E+02 -0.19496234775E+03  0.51876039603E+03  0.55672404330E+03  0.41800000000E+01 0.  1.
        -11    1    1    2    0    0  0.21595757220E+02  0.15858828724E+02  0.43419570006E+02  0.51020958810E+02  0.00000000000E+00 0.  1.
         11    1    1    2    0    0 -0.66723716818E+01  0.33804354923E+03  0.61901762746E+03  0.70533735533E+03  0.00000000000E+00 0. -1.
</event>
<event>
 7    1  0.2693725E-009  0.1072253E+03  0.7561462E-02  0.1265796E+00
         -2   -1    0    0    0  501 -0.00000000000E+00  0.00000000000E+00  0.10992491640E+03  0.10992491640E+03  0.00000000000E+00 0.  1.
          2   -1    0    0  501    0  0.00000000000E+00 -0.00000000000E+00 -0.12423501113E+03  0.12423501113E+03  0.00000000000E+00 0. -1.
         25    2    1    2    0    0 -0.37766583558E+02 -0.83451630667E+01 -0.28048630873E+02  0.13390141867E+03  0.12508759989E+03 0.  0.
          5    1    3    3  502    0 -0.10305202183E+01  0.51762073117E+02  0.11226037565E+02  0.53140102604E+02  0.41800000000E+01 0. -1.
         -5    1    3    3    0  502 -0.36736063340E+02 -0.60107236184E+02 -0.39274668438E+02  0.80761316063E+02  0.41800000000E+01 0. -1.
        -11    1    1    2    0    0  0.92379281521E+01 -0.37128068552E+02  0.24604166461E+02  0.45488435873E+02  0.00000000000E+00 0.  1.
         11    1    1    2    0    0  0.28528655406E+02  0.45473231619E+02 -0.10865630323E+02  0.54770072991E+02  0.00000000000E+00 0. -1.
</event>
<event>
 7    1  0.2693725E-009  0.1215559E+03  0.7561462E-02  0.1240552E+00
         -2   -1    0    0    0  501 -0.00000000000E+00  0.00000000000E+00  0.20084330895E+02  0.20084330895E+02  0.00000000000E+00 0.  1.
          2   -1    0    0  501    0  0.00000000000E+00 -0.00000000000E+00 -0.91821202835E+03  0.91821202835E+03  0.00000000000E+00 0. -1.
         25    2    1    2    0    0 -0.64673661459E+02 -0.40746327060E+02 -0.60513831707E+03  0.62264172331E+03  0.12508951660E+03 0.  0.
          5    1    3    3  502    0 -0.21886730123E+02 -0.79093364460E+02 -0.44340750465E+03  0.45095728937E+03  0.41800000000E+01 0.  1.
         -5    1    3    3    0  502 -0.42786931336E+02  0.38347037400E+02 -0.16173081243E+03  0.17168443395E+03  0.41800000000E+01 0.  1.
        -11    1    1    2    0    0  0.22770185329E+01  0.40871399605E+02 -0.49177435465E+02  0.63984969156E+02  0.00000000000E+00 0.  1.
         11    1    1    2    0    0  0.62396642926E+02 -0.12507254479E+00 -0.24381194491E+03  0.25166966677E+03  0.00000000000E+00 0. -1.
</event>
<event>
 7    1  0.2693725E-009  0.9036262E+02  0.7561462E-02  0.1301976E+00
          1   -1    0    0  501    0  0.00000000000E+00  0.00000000000E+00  0.56862645973E+02  0.56862645973E+02  0.00000000000E+00 0. -1.
         -1   -1    0    0    0  501 -0.00000000000E+00 -0.00000000000E+00 -0.23412233165E+03  0.23412233165E+03  0.00000000000E+00 0.  1.
         25    2    1    2    0    0 -0.30757168791E+02 -0.22421742153E+02 -0.89343149190E+02  0.15836758858E+03  0.12509738947E+03 0.  0.
          5    1    3    3  502    0  0.17425654500E+02  0.17422727926E+02  0.20221422201E+02  0.32149388780E+02  0.41800000000E+01 0. -1.
         -5    1    3    3    0  502 -0.48182823292E+02 -0.39844470078E+02 -0.10956457139E+03  0.12621819980E+03  0.41800000000E+01 0. -1.
        -11    1    1    2    0    0 -0.99733955147E+01  0.45278041760E+02 -0.20717874710E+02  0.50781886694E+02  0.00000000000E+00 0.  1.
         11    1    1    2    0    0  0.40730564306E+02 -0.22856299607E+02 -0.67198661776E+02  0.81835502350E+02  0.00000000000E+00 0. -1.
</event>
<event>
 7    1  0.2693725E-009  0.1150127E+03  0.7561462E-02  0.1251559E+00
         -2   -1    0    0    0  501 -0.00000000000E+00  0.00000000000E+00  0.12282079616E+03  0.12282079616E+03  0.00000000000E+00 0.  1.
          2   -1    0    0  501    0  0.00000000000E+00 -0.00000000000E+00 -0.15937558001E+03  0.15937558001E+03  0.00000000000E+00 0. -1.
         25    2    1    2    0    0 -0.57369858664E+02  0.43627254547E+02 -0.69350189669E+02  0.16016225826E+03  0.12509141514E+03 0.  0.
          5    1    3    3  502    0  0.29785484025E+02 -0.19094399416E+02 -0.83335248480E+01  0.36588129005E+02  0.41800000000E+01 0. -1.
         -5    1    3    3    0  502 -0.87155342689E+02  0.62721653963E+02 -0.61016664821E+02  0.12357412925E+03  0.41800000000E+01 0. -1.
        -11    1    1    2    0    0  0.41961659082E+02 -0.53983785033E+02  0.58733284509E+02  0.90136721643E+02  0.00000000000E+00 0.  1.
         11    1    1    2    0    0  0.15408199582E+02  0.10356530486E+02 -0.25937878690E+02  0.31897396273E+02  0.00000000000E+00 0. -1.
</event>
<event>
 7    1  0.2693725E-009  0.1108283E+03  0.7561462E-02  0.1259044E+00
          3   -1    0    0  501    0  0.00000000000E+00  0.00000000000E+00  0.39072189119E+02  0.39072189119E+02  0.00000000000E+00 0. -1.
         -3   -1    0    0    0  501 -0.00000000000E+00 -0.00000000000E+00 -0.36083351948E+03  0.36083351948E+03  0.00000000000E+00 0.  1.
         25    2    1    2    0    0 -0.36534576467E+02 -0.30715998906E+02 -0.12896103298E+03  0.18589572785E+03  0.12509206905E+03 0.  0.
          5    1    3    3  502    0  0.42090331807E+02 -0.32535674329E+02 -0.67197746276E+02  0.85808948485E+02  0.41800000000E+01 0.  1.
         -5    1    3    3    0  502 -0.78624908274E+02  0.18196754225E+01 -0.61763286705E+02  0.10008677937E+03  0.41800000000E+01 0.  1.
        -11    1    1    2    0    0  0.25259053859E+02  0.56229526090E+02 -0.10361921536E+03  0.12056832585E+03  0.00000000000E+00 0. -1.
         11    1    1    2    0    0  0.11275522608E+02 -0.25513527184E+02 -0.89181082021E+02  0.93441654897E+02  0.00000000000E+00 0.  1.
</event>
<event>
 7    1  0.2693725E-009  0.7459291E+02  0.7561462E-02  0.1345136E+00
          3   -1    0    0  501    0  0.00000000000E+00  0.00000000000E+00  0.24248575579E+03  0.24248575579E+03  0.00000000000E+00 0. -1.
         -3   -1    0    0    0  501 -0.00000000000E+00 -0.00000000000E+00 -0.79456699334E+02  0.79456699334E+02  0.00000000000E+00 0.  1.
         25    2    1    2    0    0  0.26896187839E+02  0.19738154840E+02 -0.39512025552E+01  0.12952253078E+03  0.12508986490E+03 0.  0.
          5    1    3    3  502    0  0.40895757803E+02 -0.12737174645E+02  0.49312365335E+02  0.65451359032E+02  0.41800000000E+01 0.  1.
         -5    1    3    3    0  502 -0.13999569965E+02  0.32475329485E+02 -0.53263567890E+02  0.64071171745E+02  0.41800000000E+01 0.  1.
        -11    1    1    2    0    0  0.20141939521E+02 -0.10062234790E+02  0.12966012207E+03  0.13160050742E+03  0.00000000000E+00 0.  1.
         11    1    1    2    0    0 -0.47038127359E+02 -0.96759200501E+01  0.37320136936E+02  0.60819416926E+02  0.00000000000E+00 0. -1.
</event>
<event>
 7    1  0.2693725E-009  0.8820511E+02  0.7561462E-02  0.1307257E+00
         -1   -1    0    0    0  501 -0.00000000000E+00  0.00000000000E+00  0.35281215395E+02  0.35281215395E+02  0.00000000000E+00 0.  1.
          1   -1    0    0  501    0  0.00000000000E+00 -0.00000000000E+00 -0.35465797290E+03  0.35465797290E+03  0.00000000000E+00 0. -1.
         25    2    1    2    0    0 -0.70296832706E+00 -0.98962529363E+01 -0.23934315373E+03  0.27024264844E+03  0.12509002284E+03 0.  0.
          5    1    3    3  502    0 -0.46111228462E+02  0.96301453053E+01 -0.20380838404E+03  0.20922312228E+03  0.41800000000E+01 0.  1.
         -5    1    3    3    0  502  0.45408260135E+02 -0.19526398242E+02 -0.35534769686E+02  0.61019526165E+02  0.41800000000E+01 0.  1.
        -11    1    1    2    0    0 -0.29200699963E+02 -0.21419094693E+02 -0.63977044725E+02  0.73515445639E+02  0.00000000000E+00 0.  1.
         11    1    1    2    0    0  0.29903668290E+02  0.31315347629E+02 -0.16056559052E+02  0.46181094215E+02  0.00000000000E+00 0. -1.
</event>
<event>
 7    1  0.2700360E-009  0.1341380E+03  0.7561462E-02  0.1221442E+00
         -2   -1    0    0    0  501 -0.00000000000E+00  0.00000000000E+00  0.17449246824E+03  0.17449246824E+03  0.00000000000E+00 0.  1.
          2   -1    0    0  501    0  0.00000000000E+00 -0.00000000000E+00 -0.15020557487E+03  0.15020557487E+03  0.00000000000E+00 0. -1.
         25    2    1    2    0    0  0.94045175134E+02 -0.74365033860E+02  0.12177115801E+02  0.17369512368E+03  0.12508821133E+03 0.  0.
          5    1    3    3  502    0  0.50729373034E+02 -0.75235469593E+01  0.61292030337E+02  0.80026610762E+02  0.41800000000E+01 0.  1.
         -5    1    3    3    0  502  0.43315802101E+02 -0.66841486901E+02 -0.49114914537E+02  0.93668512920E+02  0.41800000000E+01 0.  1.
        -11    1    1    2    0    0 -0.12499944011E+01  0.37009717293E+02  0.32083762363E+02  0.48996423007E+02  0.00000000000E+00 0.  1.
         11    1    1    2    0    0 -0.92795180733E+02  0.37355316568E+02 -0.19973984793E+02  0.10200649642E+03  0.00000000000E+00 0. -1.
</event>
<event>
 7    1  0.2693725E-009  0.2922362E+03  0.7561462E-02  0.1089187E+00
         -2   -1    0    0    0  501 -0.00000000000E+00  0.00000000000E+00  0.10052785313E+03  0.10052785313E+03  0.00000000000E+00 0.  1.
          2   -1    0    0  501    0  0.00000000000E+00 -0.00000000000E+00 -0.96600946524E+03  0.96600946524E+03  0.00000000000E+00 0. -1.
         25    2    1    2    0    0 -0.18623713604E+03  0.20666972622E+03 -0.59316114364E+03  0.66699662538E+03  0.12509080449E+03 0.  0.
          5    1    3    3  502    0 -0.10571541389E+03  0.46121919989E+02 -0.31878691952E+03  0.33903621148E+03  0.41800000000E+01 0. -1.
         -5    1    3    3    0  502 -0.80521722156E+02  0.16054780624E+03 -0.27437422412E+03  0.32796041390E+03  0.41800000000E+01 0. -1.
        -11    1    1    2    0    0  0.11077489463E+03 -0.63820099934E+02 -0.92455783548E+02  0.15777247652E+03  0.00000000000E+00 0.  1.
         11    1    1    2    0    0  0.75462241413E+02 -0.14284962629E+03 -0.17986468492E+03  0.24176821647E+03  0.00000000000E+00 0. -1.
</event>
<event>
 7    1  0.2693725E-009  0.8411118E+02  0.7561462E-02  0.1317773E+00
         -3   -1    0    0    0  501 -0.00000000000E+00  0.00000000000E+00  0.10370136029E+03  0.10370136029E+03  0.00000000000E+00 0.  1.
          3   -1    0    0  501    0  0.00000000000E+00 -0.00000000000E+00 -0.15535792883E+03  0.15535792883E+03  0.00000000000E+00 0. -1.
         25    2    1    2    0    0  0.10105889919E+02 -0.53578812476E+02 -0.63291899782E+02  0.15041570246E+03  0.12508477450E+03 0.  0.
          5    1    3    3  502    0  0.34739324617E+02 -0.40102140811E+02  0.24177157230E+02  0.58455193989E+02  0.41800000000E+01 0.  1.
         -5    1    3    3    0  502 -0.24633434698E+02 -0.13476671665E+02 -0.87469057012E+02  0.91960508474E+02  0.41800000000E+01 0.  1.
        -11    1    1    2    0    0 -0.66115118749E+01  0.69752998580E+02 -0.20066920816E+02  0.72882605683E+02  0.00000000000E+00 0. -1.
         11    1    1    2    0    0 -0.34943780444E+01 -0.16174186104E+02  0.31702252061E+02  0.35760980967E+02  0.00000000000E+00 0.  1.
</event>
<event>
 7    1  0.2693725E-009  0.9167822E+02  0.7561462E-02  0.1298838E+00
          3   -1    0    0  501    0  0.00000000000E+00  0.00000000000E+00  0.51215582508E+03  0.51215582508E+03  0.00000000000E+00 0. -1.
         -3   -1    0    0    0  501 -0.00000000000E+00 -0.00000000000E+00 -0.22789344946E+02  0.22789344946E+02  0.00000000000E+00 0.  1.
         25    2    1    2    0    0 -0.12208448983E+01 -0.89518731377E+00  0.29644244488E+03  0.32175780910E+03  0.12509065819E+03 0.  0.
          5    1    3    3  502    0 -0.48670320798E+02 -0.10699004389E+02  0.50562825634E+02  0.71114981246E+02  0.41800000000E+01 0. -1.
         -5    1    3    3    0  502  0.47449475899E+02  0.98038170750E+01  0.24587961925E+03  0.25064282785E+03  0.41800000000E+01 0. -1.
        -11    1    1    2    0    0 -0.40801755043E+02 -0.84514520389E+01  0.13320004146E+03  0.13956525821E+03  0.00000000000E+00 0.  1.
         11    1    1    2    0    0  0.42022599941E+02  0.93466393527E+01  0.59723993789E+02  0.73622102708E+02  0.00000000000E+00 0. -1.
</event>
<event>
 7    1  0.3127926E-009  0.1820266E+03  0.7561462E-02  0.1165856E+00
          1   -1    0    0  501    0  0.00000000000E+00  0.00000000000E+00  0.92178656735E+03  0.92178656735E+03  0.00000000000E+00 0.  1.
         -1   -1    0    0    0  501 -0.00000000000E+00 -0.00000000000E+00 -0.47879278840E+02  0.47879278840E+02  0.00000000000E+00 0. -1.
         25    2    1    2    0    0 -0.11934300030E+03 -0.13393115083E+03  0.47737458415E+03  0.52508757475E+03  0.12510061024E+03 0.  0.
          5    1    3    3  502    0 -0.53778780525E+02 -0.82681585277E+02  0.10753553878E+03  0.14597865008E+03  0.41800000000E+01 0. -1.
         -5    1    3    3    0  502 -0.65564219777E+02 -0.51249565550E+02  0.36983904537E+03  0.37910892467E+03  0.41800000000E+01 0. -1.
        -11    1    1    2    0    0  0.10430450960E+03  0.98262766733E+02  0.21106777562E+03  0.25511685157E+03  0.00000000000E+00 0. -1.
         11    1    1    2    0    0  0.15038490698E+02  0.35668384093E+02  0.18546492874E+03  0.18946141987E+03  0.00000000000E+00 0.  1.
</event>
<event>
 7    1  0.2693725E-009  0.1070259E+03  0.7561462E-02  0.1266179E+00
          1   -1    0    0  501    0  0.00000000000E+00  0.00000000000E+00  0.58446609490E+03  0.58446609490E+03  0.00000000000E+00 0. -1.
         -1   -1    0    0    0  501 -0.00000000000E+00 -0.00000000000E+00 -0.31004489334E+02  0.31004489334E+02  0.00000000000E+00 0.  1.
         25    2    1    2    0    0  0.40418809949E+02  0.66216404420E+02  0.27443167252E+03  0.31141313879E+03  0.12508839961E+03 0.  0.
          5    1    3    3  502    0 -0.74712279619E+00  0.47801652549E+02  0.18383788802E+02  0.51390585418E+02  0.41800000000E+01 0.  1.
         -5    1    3    3    0  502  0.41165932745E+02  0.18414751871E+02  0.25604788372E+03  0.26002255337E+03  0.41800000000E+01 0.  1.
        -11    1    1    2    0    0 -0.55166848688E+02 -0.23417332126E+01  0.12416068062E+03  0.13588502317E+03  0.00000000000E+00 0. -1.
         11    1    1    2    0    0  0.14748038739E+02 -0.63874671207E+02  0.15486925243E+03  0.16817242228E+03  0.00000000000E+00 0.  1.
</event>
<event>
 7    1  0.2693725E-009  0.1088093E+03  0.7561462E-02  0.1262791E+00
          2   -1    0    0  501    0  0.00000000000E+00  0.00000000000E+00  0.40828911752E+03  0.40828911752E+03  0.00000000000E+00 0. -1.
         -2   -1    0    0    0  501 -0.00000000000E+00 -0.00000000000E+00 -0.43632642369E+02  0.43632642369E+02  0.00000000000E+00 0.  1.
         25    2    1    2    0    0  0.39583170377E+02  0.15663480062E+02  0.31365225104E+03  0.34034788064E+03  0.12508706283E+03 0.  0.
          5    1    3    3  502    0  0.82247642843E+02 -0.45971964813E+00  0.23872482798E+03  0.25253099213E+03  0.41800000000E+01 0.  1.
         -5    1    3    3    0  502 -0.42664472466E+02  0.16123199710E+02  0.74927423060E+02  0.87816888502E+02  0.41800000000E+01 0.  1.
        -11    1    1    2    0    0  0.17070775725E+02  0.16979870853E+02  0.37879593827E+02  0.44884195733E+02  0.00000000000E+00 0.  1.
         11    1    1    2    0    0 -0.56653946102E+02 -0.32643350915E+02  0.13124630286E+02  0.66689683520E+02  0.00000000000E+00 0. -1.
</event>
<event>
 7    1  0.2693725E-009  0.1035423E+03  0.7561462E-02  0.1273019E+00
          1   -1    0    0  501    0  0.00000000000E+00  0.00000000000E+00  0.53789003299E+03  0.53789003299E+03  0.00000000000E+00 0. -1.
         -1   -1    0    0    0  501 -0.00000000000E+00 -0.00000000000E+00 -0.34368352687E+02  0.34368352687E+02  0.00000000000E+00 0.  1.
         25    2    1    2    0    0  0.35931489199E+02 -0.61750238635E+02  0.35322914437E+03  0.38147659112E+03  0.12509755093E+03 0.  0.
          5    1    3    3  502    0  0.25495877235E+02 -0.81755918665E+02  0.12202449024E+03  0.14913590651E+03  0.41800000000E+01 0.  1.
         -5    1    3    3    0  502  0.10435611963E+02  0.20005680030E+02  0.23120465414E+03  0.23234068461E+03  0.41800000000E+01 0.  1.
        -11    1    1    2    0    0  0.20283506113E+02  0.18724281216E+02  0.10052829950E+03  0.10424950037E+03  0.00000000000E+00 0.  1.
         11    1    1    2    0    0 -0.56214995311E+02  0.43025957420E+02  0.49764236431E+02  0.86532294187E+02  0.00000000000E+00 0. -1.
</event>
<event>
 7    1  0.2693725E-009  0.6589338E+02  0.7561462E-02  0.1374642E+00
          1   -1    0    0  501    0  0.00000000000E+00  0.00000000000E+00  0.32329920942E+03  0.32329920942E+03  0.00000000000E+00 0. -1.
         -1   -1    0    0    0  501 -0.00000000000E+00 -0.00000000000E+00 -0.71785179491E+02  0.71785179491E+02  0.00000000000E+00 0.  1.
         25    2    1    2    0    0 -0.42701225477E+02 -0.51107140158E+01  0.26571511595E+03  0.29681973938E+03  0.12509164955E+03 0.  0.
          5    1    3    3  502    0 -0.18668971285E+02 -0.10691299998E+02 -0.69633215871E+01  0.22995535045E+02  0.41800000000E+01 0.  1.
         -5    1    3    3    0  502 -0.24032254192E+02  0.55805859822E+01  0.27267843754E+03  0.27382420434E+03  0.41800000000E+01 0.  1.
        -11    1    1    2    0    0 -0.12926864827E+02  0.23025451752E+02  0.17597234892E+02  0.31732285428E+02  0.00000000000E+00 0. -1.
         11    1    1    2    0    0  0.55628090304E+02 -0.17914737736E+02 -0.31798320919E+02  0.66532364097E+02  0.00000000000E+00 0.  1.
</event>
<event>
 7    1  0.2693725E-009  0.1208366E+03  0.7561462E-02  0.1241723E+00
          1   -1    0    0  501    0  0.00000000000E+00  0.00000000000E+00  0.10824920122E+03  0.10824920122E+03  0.00000000000E+00 0. -1.
         -1   -1    0    0    0  501 -0.00000000000E+00 -0.00000000000E+00 -0.20299724728E+03  0.20299724728E+03  0.00000000000E+00 0.  1.
         25    2    1    2    0    0 -0.86962376009E+02  0.23530865779E+02  0.64851796238E+00  0.15415520025E+03  0.12508896315E+03 0.  0.
          5    1    3    3  502    0 -0.10032944619E+03  0.21778918276E+02  0.41589951187E+02  0.11084906627E+03  0.41800000000E+01 0.  1.
         -5    1    3    3    0  502  0.13367070179E+02  0.17519475030E+01 -0.40941433225E+02  0.43306133974E+02  0.41800000000E+01 0.  1.
        -11    1    1    2    0    0  0.57553942498E+02 -0.56483674452E+02 -0.61927223123E+02  0.10167518252E+03  0.00000000000E+00 0.  1.
         11    1    1    2    0    0  0.29408433511E+02  0.32952808673E+02 -0.33469340907E+02  0.55416065737E+02  0.00000000000E+00 0. -1.
</event>
<event>
 7    1  0.2693725E-009  0.1382328E+03  0.7561462E-02  0.1215727E+00
         -2   -1    0    0    0  501 -0.00000000000E+00  0.00000000000E+00  0.10505034128E+03  0.10505034128E+03  0.00000000000E+00 0.  1.
          2   -1    0    0  501    0  0.00000000000E+00 -0.00000000000E+00 -0.26309324104E+03  0.26309324104E+03  0.00000000000E+00 0. -1.
         25    2    1    2    0    0  0.40375143411E+02  0.75661022960E+02 -0.18268244403E+03  0.23743494994E+03  0.12509091692E+03 0.  0.
          5    1    3    3  502    0 -0.30203730396E+02 -0.16889216809E+02 -0.49026460233E+02  0.60154610607E+02  0.41800000000E+01 0.  1.
         -5    1    3    3    0  502  0.70578873807E+02  0.92550239769E+02 -0.13365598380E+03  0.17728033933E+03  0.41800000000E+01 0.  1.
        -11    1    1    2    0    0 -0.43883924835E+02 -0.95444861055E+02  0.93599393629E+01  0.10546624496E+03  0.00000000000E+00 0. -1.
         11    1    1    2    0    0  0.35087814246E+01  0.19783838095E+02  0.15279604904E+02  0.25242387424E+02  0.00000000000E+00 0.  1.
</event>
<event>
 7    1  0.2693725E-009  0.1150915E+03  0.7561462E-02  0.1251421E+00
          1   -1    0    0  501    0  0.00000000000E+00  0.00000000000E+00  0.70423949075E+02  0.70423949075E+02  0.00000000000E+00 0. -1.
         -1   -1    0    0    0  501 -0.00000000000E+00 -0.00000000000E+00 -0.34440433808E+03  0.34440433808E+03  0.00000000000E+00 0.  1.
         25    2    1    2    0    0  0.10328169806E+03 -0.40100524466E+02 -0.15012417147E+03  0.22463571548E+03  0.12509507021E+03 0.  0.
          5    1    3    3  502    0  0.88236756892E+02 -0.48499666013E+02 -0.17023400522E+03  0.19782576123E+03  0.41800000000E+01 0.  1.
         -5    1    3    3    0  502  0.15044941167E+02  0.83991415476E+01  0.20109833752E+02  0.26809954252E+02  0.41800000000E+01 0.  1.
        -11    1    1    2    0    0 -0.29248701637E+02  0.18302219615E+02  0.97889232904E+01  0.35864757206E+02  0.00000000000E+00 0. -1.
         11    1    1    2    0    0 -0.74032996422E+02  0.21798304850E+02 -0.13364514082E+03  0.15432781447E+03  0.00000000000E+00 0.  1.
</event>
<event>
 7    1  0.2693725E-009  0.1087942E+03  0.7561462E-02  0.1262819E+00
          4   -1    0    0  501    0  0.00000000000E+00  0.00000000000E+00  0.69993916806E+02  0.69993916806E+02  0.00000000000E+00 0. -1.
         -4   -1    0    0    0  501 -0.00000000000E+00 -0.00000000000E+00 -0.24351090108E+03  0.24351090108E+03  0.00000000000E+00 0.  1.
         25    2    1    2    0    0  0.64547800609E+02  0.18907658885E+02 -0.55385768589E+02  0.15244047698E+03  0.12508636030E+03 0.  0.
          5    1    3    3  502    0  0.29522948156E+02  0.70209887104E+02 -0.13659729024E+02  0.77492537137E+02  0.41800000000E+01 0.  1.
         -5    1    3    3    0  502  0.35024852453E+02 -0.51302228218E+02 -0.41726039565E+02  0.74947939847E+02  0.41800000000E+01 0.  1.
        -11    1    1    2    0    0 -0.46619233783E+02  0.74120682253E+01 -0.12021450012E+03  0.12915036877E+03  0.00000000000E+00 0.  1.
         11    1    1    2    0    0 -0.17928566826E+02 -0.26319727110E+02  0.20832844309E+01  0.31913972138E+02  0.00000000000E+00 0. -1.
</event>
<event>
 7    1  0.2693725E-009  0.1102189E+03  0.7561462E-02  0.1260165E+00
          2   -1    0    0  501    0  0.00000000000E+00  0.00000000000E+00  0.79677487262E+02  0.79677487262E+02  0.00000000000E+00 0. -1.
         -2   -1    0    0    0  501 -0.00000000000E+00 -0.00000000000E+00 -0.18095797985E+03  0.18095797985E+03  0.00000000000E+00 0.  1.
         25    2    1    2    0    0  0.24481053709E+02  0.30734066410E+02 -0.93331409606E+02  0.16094046795E+03  0.12508867804E+03 0.  0.
          5    1    3    3  502    0  0.28616303007E+01 -0.48554800108E+02 -0.33965514895E+02  0.59471725581E+02  0.41800000000E+01 0. -1.
         -5    1    3    3    0  502  0.21619423408E+02  0.79288866518E+02 -0.59365894711E+02  0.10146874236E+03  0.41800000000E+01 0. -1.
        -11    1    1    2    0    0 -0.47056843243E+02 -0.42906560681E+02  0.14836988703E+02  0.65386968726E+02  0.00000000000E+00 0. -1.
         11    1    1    2    0    0  0.22575789534E+02  0.12172494271E+02 -0.22786071681E+02  0.34308030438E+02  0.00000000000E+00 0.  1.
</event>
<event>
 7    1  0.2693725E-009  0.1385679E+03  0.7561462E-02  0.1215269E+00
          1   -1    0    0  501    0  0.00000000000E+00  0.00000000000E+00  0.86773967867E+02  0.86773967867E+02  0.00000000000E+00 0. -1.
         -1   -1    0    0    0  501 -0.00000000000E+00 -0.00000000000E+00 -0.24764538521E+03  0.24764538521E+03  0.00000000000E+00 0.  1.
         25    2    1    2    0    0  0.34161652376E+01 -0.11231264232E+03 -0.10980821745E+03  0.20082692023E+03  0.12509119658E+03 0.  0.
          5    1    3    3  502    0  0.26400547624E+02  0.17374318678E+02 -0.46097852088E+01  0.32211463550E+02  0.41800000000E+01 0. -1.
         -5    1    3    3    0  502 -0.22984382386E+02 -0.12968696100E+03 -0.10519843225E+03  0.16861545668E+03  0.41800000000E+01 0. -1.
        -11    1    1    2    0    0  0.63812162148E+01  0.49435150584E+02 -0.49038924695E+02  0.69924031412E+02  0.00000000000E+00 0.  1.
         11    1    1    2    0    0 -0.97973814525E+01  0.62877491734E+02 -0.20242751885E+01  0.63668401425E+02  0.00000000000E+00 0. -1.
</event>
<event>
 7    1  0.2693725E-009  0.1064891E+03  0.7561462E-02  0.1267213E+00
         -2   -1    0    0    0  501 -0.00000000000E+00  0.00000000000E+00  0.28838650973E+02  0.28838650973E+02  0.00000000000E+00 0.  1.
          2   -1    0    0  501    0  0.00000000000E+00 -0.00000000000E+00 -0.50620619503E+03  0.50620619503E+03  0.00000000000E+00 0. -1.
         25    2    1    2    0    0  0.35052894396E+02  0.39001173231E+02 -0.26280246228E+03  0.29574187918E+03  0.12509327722E+03 0.  0.
          5    1    3    3  502    0 -0.37867512948E+02  0.16148958786E+02 -0.17239341185E+03  0.17728987071E+03  0.41800000000E+01 0.  1.
         -5    1    3    3    0  502  0.72920407344E+02  0.22852214445E+02 -0.90409050423E+02  0.11845200847E+03  0.41800000000E+01 0.  1.
        -11    1    1    2    0    0 -0.20975914834E+02 -0.63465788452E+02 -0.19156927863E+03  0.20289574619E+03  0.00000000000E+00 0. -1.
         11    1    1    2    0    0 -0.14076979562E+02  0.24464615221E+02 -0.22995803148E+02  0.36407220629E+02  0.00000000000E+00 0.  1.
</event>
<event>
 7    1  0.2693725E-009  0.7959169E+02  0.7561462E-02  0.1330214E+00
          3   -1    0    0  501    0  0.00000000000E+00  0.00000000000E+00  0.41699259733E+02  0.41699259733E+02  0.00000000000E+00 0. -1.
         -3   -1    0    0    0  501 -0.00000000000E+00 -0.00000000000E+00 -0.29659155921E+03  0.29659155921E+03  0.00000000000E+00 0.  1.
         25    2    1    2    0    0  0.19903324894E+02 -0.74028940033E+01 -0.12012901534E+03  0.17472660185E+03  0.12508980728E+03 0.  0.
          5    1    3    3  502    0  0.20840105868E+02 -0.51476279945E+02 -0.10744320700E+02  0.56718870200E+02  0.41800000000E+01 0. -1.
         -5    1    3    3    0  502 -0.93678097304E+00  0.44073385941E+02 -0.10938469464E+03  0.11800773165E+03  0.41800000000E+01 0. -1.
        -11    1    1    2    0    0 -0.30647124813E+02  0.24351182504E+02 -0.14664279552E+02  0.41800328269E+02  0.00000000000E+00 0.  1.
         11    1    1    2    0    0  0.10743799918E+02 -0.16948288500E+02 -0.12009900458E+03  0.12176388882E+03  0.00000000000E+00 0. -1.
</event>
<event>
 7    1  0.2693725E-009  0.1130620E+03  0.7561462E-02  0.1255002E+00
          1   -1    0    0  501    0  0.00000000000E+00  0.00000000000E+00  0.17688551689E+02  0.17688551689E+02  0.00000000000E+00 0. -1.
         -1   -1    0    0    0  501 -0.00000000000E+00 -0.00000000000E+00 -0.98961750880E+03  0.98961750880E+03  0.00000000000E+00 0.  1.
         25    2    1    2    0    0  0.54073700762E+02 -0.51289544343E+02 -0.59871229032E+03  0.61616384456E+03  0.12508754652E+03 0.  0.
          5    1    3    3  502    0  0.55339987777E+02 -0.73407089159E+02 -0.57884482701E+03  0.58611425605E+03  0.41800000000E+01 0. -1.
         -5    1    3    3    0  502 -0.12662870152E+01  0.22117544816E+02 -0.19867463306E+02  0.30049588512E+02  0.41800000000E+01 0. -1.
        -11    1    1    2    0    0 -0.44007790022E+02 -0.13465427723E+02 -0.98553806827E+02  0.10876973920E+03  0.00000000000E+00 0. -1.
         11    1    1    2    0    0 -0.10065910740E+02  0.64754972066E+02 -0.27466285996E+03  0.28237247672E+03  0.00000000000E+00 0.  1.
</event>
<event>
 7    1  0.2693725E-009  0.1041706E+03  0.7561462E-02  0.1271762E+00
          2   -1    0    0  501    0  0.00000000000E+00  0.00000000000E+00  0.12381386077E+03  0.12381386077E+03  0.00000000000E+00 0. -1.
         -2   -1    0    0    0  501 -0.00000000000E+00 -0.00000000000E+00 -0.12212551509E+03  0.12212551509E+03  0.00000000000E+00 0.  1.
         25    2    1    2    0    0  0.50993588521E+02  0.30584580816E+02 -0.13650116326E+01  0.13850954234E+03  0.12508903793E+03 0.  0.
          5    1    3    3  502    0  0.33552184160E+02 -0.47412254956E+02  0.34232434780E+01  0.58334055044E+02  0.41800000000E+01 0.  1.
         -5    1    3    3    0  502  0.17441404362E+02  0.77996835772E+02 -0.47882551107E+01  0.80175487299E+02  0.41800000000E+01 0.  1.
        -11    1    1    2    0    0 -0.45590582638E+02 -0.72990945244E+01 -0.38084248795E+02  0.59851382711E+02  0.00000000000E+00 0.  1.
         11    1    1    2    0    0 -0.54030058830E+01 -0.23285486291E+02  0.41137606114E+02  0.47578450807E+02  0.00000000000E+00 0. -1.
</event>
<event>
 7    1  0.2693725E-009  0.6933154E+02  0.7561462E-02  0.1362381E+00
          2   -1    0    0  501    0  0.00000000000E+00  0.00000000000E+00  0.14497084385E+03  0.14497084385E+03  0.00000000000E+00 0. -1.
         -2   -1    0    0    0  501 -0.00000000000E+00 -0.00000000000E+00 -0.15967466163E+03  0.15967466163E+03  0.00000000000E+00 0.  1.
         25    2    1    2    0    0  0.16190363258E+02 -0.25783268191E+02  0.94037843603E+02  0.15942562865E+03  0.12508601145E+03 0.  0.
          5    1    3    3  502    0 -0.66024668976E+01  0.53736973493E+00 -0.29751317795E+02  0.30765153110E+02  0.41800000000E+01 0.  1.
         -5    1    3    3    0  502  0.22792830156E+02 -0.26320637926E+02  0.12378916140E+03  0.12866047554E+03  0.41800000000E+01 0.  1.
        -11    1    1    2    0    0 -0.51800442250E+02  0.41456121707E-02 -0.66052732080E+02  0.83941939754E+02  0.00000000000E+00 0.  1.
         11    1    1    2    0    0  0.35610078991E+02  0.25779122579E+02 -0.42688929307E+02  0.61277937074E+02  0.00000000000E+00 0. -1.
</event>
<event>
 7    1  0.2693725E-009  0.8449452E+02  0.7561462E-02  0.1316760E+00
         -1   -1    0    0    0  501 -0.00000000000E+00  0.00000000000E+00  0.60063057484E+02  0.60063057484E+02  0.00000000000E+00 0.  1.
          1   -1    0    0  501    0  0.00000000000E+00 -0.00000000000E+00 -0.20729965495E+03  0.20729965495E+03  0.00000000000E+00 0. -1.
         25    2    1    2    0    0  0.15565587425E+02 -0.21494641478E+02 -0.57637432939E+02  0.14026265558E+03  0.12508889539E+03 0.  0.
          5    1    3    3  502    0 -0.34528840788E+02 -0.30193616577E+02  0.17645288127E+02  0.49322651198E+02  0.41800000000E+01 0.  1.
         -5    1    3    3    0  502  0.50094428212E+02  0.86989750986E+01 -0.75282721065E+02  0.90940004380E+02  0.41800000000E+01 0.  1.
        -11    1    1    2    0    0  0.61714545967E+00  0.44105509538E+02 -0.13576252738E+02  0.46151830717E+02  0.00000000000E+00 0.  1.
         11    1    1    2    0    0 -0.16182732884E+02 -0.22610868060E+02 -0.76022911790E+02  0.80948226139E+02  0.00000000000E+00 0. -1.
</event>
<event>
 7    1  0.2693725E-009  0.2181239E+03  0.7561462E-02  0.1135290E+00
          2   -1    0    0  501    0  0.00000000000E+00  0.00000000000E+00  0.74091976262E+03  0.74091976262E+03  0.00000000000E+00 0. -1.
         -2   -1    0    0    0  501 -0.00000000000E+00 -0.00000000000E+00 -0.91913655662E+02  0.91913655662E+02  0.00000000000E+00 0.  1.
         25    2    1    2    0    0  0.35471858759E+02  0.21248320265E+03  0.49077811653E+03  0.55038018200E+03  0.12509125033E+03 0.  0.
          5    1    3    3  502    0  0.25579840874E+02  0.19217166436E+03  0.29352514827E+03  0.35179363540E+03  0.41800000000E+01 0. -1.
         -5    1    3    3    0  502  0.98920178847E+01  0.20311538287E+02  0.19725296825E+03  0.19858654660E+03  0.41800000000E+01 0. -1.
        -11    1    1    2    0    0 -0.42120256369E+02 -0.13096626392E+03  0.49086921555E+02  0.14606780668E+03  0.00000000000E+00 0.  1.
         11    1    1    2    0    0  0.66483976103E+01 -0.81516938730E+02  0.10914106888E+03  0.13638542960E+03  0.00000000000E+00 0. -1.
</event>
<event>
 7    1  0.2693725E-009  0.1287528E+03  0.7561462E-02  0.1229318E+00
         -1   -1    0    0    0  501 -0.00000000000E+00  0.00000000000E+00  0.43323633188E+02  0.43323633188E+02  0.00000000000E+00 0.  1.
          1   -1    0    0  501    0  0.00000000000E+00 -0.00000000000E+00 -0.56679607360E+03  0.56679607360E+03  0.00000000000E+00 0. -1.
         25    2    1    2    0    0 -0.83158246967E+02  0.77280933766E+02 -0.26607942879E+03  0.31517069840E+03  0.12508664973E+03 0.  0.
          5    1    3    3  502    0 -0.75268914635E+02  0.49475399179E+02 -0.62991443773E+02  0.10999372265E+03  0.41800000000E+01 0.  1.
         -5    1    3    3    0  502 -0.78893323320E+01  0.27805534587E+02 -0.20308798502E+03  0.20517697575E+03  0.41800000000E+01 0.  1.
        -11    1    1    2    0    0  0.10209624964E+01  0.14745409191E+02 -0.82127972854E+01  0.16909154204E+02  0.00000000000E+00 0.  1.
         11    1    1    2    0    0  0.82137284471E+02 -0.92026342957E+02 -0.24918021434E+03  0.27803985419E+03  0.00000000000E+00 0. -1.
</event>
<event>
 7    1  0.2693725E-009  0.1400713E+03  0.7561462E-02  0.1213233E+00
         -1   -1    0    0    0  501 -0.00000000000E+00  0.00000000000E+00  0.14202690006E+04  0.14202690006E+04  0.00000000000E+00 0.  1.
          1   -1    0    0  501    0  0.00000000000E+00 -0.00000000000E+00 -0.15480662055E+02  0.15480662055E+02  0.00000000000E+00 0. -1.
         25    2    1    2    0    0 -0.74409055390E+02 -0.58922012901E+02  0.92664335010E+03  0.93985464935E+03  0.12510136881E+03 0.  0.
          5    1    3    3  502    0 -0.10719560992E+03 -0.61079950024E+02  0.75851279931E+03  0.76849254921E+03  0.41800000000E+01 0. -1.
         -5    1    3    3    0  502  0.32786554535E+02  0.21579371237E+01  0.16813055080E+03  0.17136210013E+03  0.41800000000E+01 0. -1.
        -11    1    1    2    0    0  0.46718925008E+02 -0.11319851345E+02  0.27506059188E+03  0.27922952242E+03  0.00000000000E+00 0.  1.
         11    1    1    2    0    0  0.27690130382E+02  0.70241864245E+02  0.20308439656E+03  0.21666549088E+03  0.00000000000E+00 0. -1.
</event>
<event>
 7    1  0.2693725E-009  0.8742951E+02  0.7561462E-02  0.1309199E+00
         -1   -1    0    0    0  501 -0.00000000000E+00  0.00000000000E+00  0.28722205841E+02  0.28722205841E+02  0.00000000000E+00 0.  1.
          1   -1    0    0  501    0  0.00000000000E+00 -0.00000000000E+00 -0.43939062705E+03  0.43939062705E+03  0.00000000000E+00 0. -1.
         25    2    1    2    0    0 -0.10764621120E+02 -0.60114110285E+01 -0.26857565623E+03  0.29653318735E+03  0.12508810476E+03 0.  0.
          5    1    3    3  502    0 -0.11875865602E+02  0.37864087408E+02 -0.24154432380E+03  0.24481801008E+03  0.41800000000E+01 0. -1.
         -5    1    3    3    0  502  0.11112444813E+01 -0.43875498437E+02 -0.27031332428E+02  0.51715177271E+02  0.41800000000E+01 0. -1.
        -11    1    1    2    0    0  0.28809155913E+02  0.41812827848E+02 -0.50580808265E+02  0.71670762531E+02  0.00000000000E+00 0.  1.
         11    1    1    2    0    0 -0.18044534792E+02 -0.35801416820E+02 -0.91511956709E+02  0.99908883003E+02  0.00000000000E+00 0. -1.
</event>
<event>
 7    1  0.2693725E-009  0.2423659E+03  0.7561462E-02  0.1118227E+00
          3   -1    0    0  501    0  0.00000000000E+00  0.00000000000E+00  0.17027970135E+03  0.17027970135E+03  0.00000000000E+00 0. -1.
         -3   -1    0    0    0  501 -0.00000000000E+00 -0.00000000000E+00 -0.42168133737E+03  0.42168133737E+03  0.00000000000E+00 0.  1.
         25    2    1    2    0    0  0.16462333518E+03 -0.16611498333E+03 -0.50463000145E+02  0.26998027373E+03  0.12509118134E+03 0.  0.
          5    1    3    3  502    0  0.67523118649E+02 -0.10747833323E+03 -0.83225110476E+02  0.15183825302E+03  0.41800000000E+01 0.  1.
         -5    1    3    3    0  502  0.97100216528E+02 -0.58636650097E+02  0.32762110331E+02  0.11814202071E+03  0.41800000000E+01 0.  1.
        -11    1    1    2    0    0 -0.12984530048E+03  0.82944670815E+02 -0.16263850755E+03  0.22403326675E+03  0.00000000000E+00 0.  1.
         11    1    1    2    0    0 -0.34778034697E+02  0.83170312516E+02 -0.38300128324E+02  0.97947498238E+02  0.00000000000E+00 0. -1.
</event>
<event>
 7    1  0.2693725E-009  0.1135700E+03  0.7561462E-02  0.1254098E+00
          2   -1    0    0  501    0  0.00000000000E+00  0.00000000000E+00  0.13988259668E+03  0.13988259668E+03  0.00000000000E+00 0. -1.
         -2   -1    0    0    0  501 -0.00000000000E+00 -0.00000000000E+00 -0.10259137646E+03  0.10259137646E+03  0.00000000000E+00 0.  1.
         25    2    1    2    0    0  0.46269460902E+02 -0.86836830967E+01  0.22384125203E+02  0.13552310039E+03  0.12509673183E+03 0.  0.
          5    1    3    3  502    0  0.25325983794E+02 -0.60466779351E+02 -0.16011569415E+02  0.67612717852E+02  0.41800000000E+01 0. -1.
         -5    1    3    3    0  502  0.20943477108E+02  0.51783096255E+02  0.38395694618E+02  0.67910382537E+02  0.41800000000E+01 0. -1.
        -11    1    1    2    0    0  0.15548043900E+02 -0.29094998488E+02  0.93620787954E+01  0.34291531396E+02  0.00000000000E+00 0.  1.
         11    1    1    2    0    0 -0.61817504801E+02  0.37778681585E+02  0.55450162193E+01  0.72659341361E+02  0.00000000000E+00 0. -1.
</event>
<event>
 7    1  0.2693725E-009  0.1083136E+03  0.7561462E-02  0.1263725E+00
         -1   -1    0    0    0  501 -0.00000000000E+00  0.00000000000E+00  0.30907773600E+03  0.30907773600E+03  0.00000000000E+00 0.  1.
          1   -1    0    0  501    0  0.00000000000E+00 -0.00000000000E+00 -0.65679126679E+02  0.65679126679E+02  0.00000000000E+00 0. -1.
         25    2    1    2    0    0  0.27362322636E+02  0.63639043371E+02  0.21339890554E+03  0.25687669010E+03  0.12509163238E+03 0.  0.
          5    1    3    3  502    0  0.64243205575E+02  0.79053670689E+02  0.16511719121E+03  0.19405625871E+03  0.41800000000E+01 0.  1.
         -5    1    3    3    0  502 -0.36880882939E+02 -0.15414627318E+02  0.48281714323E+02  0.62820431387E+02  0.41800000000E+01 0.  1.
        -11    1    1    2    0    0 -0.11101540702E+02 -0.54926399940E+02  0.60355359341E+02  0.82358503007E+02  0.00000000000E+00 0.  1.
         11    1    1    2    0    0 -0.16260781934E+02 -0.87126434302E+01 -0.30355655557E+02  0.35521669569E+02  0.00000000000E+00 0. -1.
</event>
<event>
 7    1  0.3091089E-009  0.1316324E+03  0.7561462E-02  0.1225053E+00
          1   -1    0    0  501    0  0.00000000000E+00  0.00000000000E+00  0.14288641006E+03  0.14288641006E+03  0.00000000000E+00 0. -1.
         -1   -1    0    0    0  501 -0.00000000000E+00 -0.00000000000E+00 -0.13254847107E+03  0.13254847107E+03  0.00000000000E+00 0.  1.
         25    2    1    2    0    0 -0.58246843252E+02 -0.61087661569E+02  0.93980759750E+01  0.15119953602E+03  0.12509427931E+03 0.  0.
          5    1    3    3  502    0 -0.28271572416E+02 -0.98427423084E+02  0.11187075937E+02  0.10310122448E+03  0.41800000000E+01 0.  1.
         -5    1    3    3    0  502 -0.29975270836E+02  0.37339761516E+02 -0.17889999621E+01  0.48098311536E+02  0.41800000000E+01 0.  1.
        -11    1    1    2    0    0  0.17845044244E+02 -0.17088953435E+02  0.22736035842E+02  0.33576856008E+02  0.00000000000E+00 0. -1.
         11    1    1    2    0    0  0.40401799008E+02  0.78176615004E+02 -0.21796172825E+02  0.90658489103E+02  0.00000000000E+00 0.  1.
</event>
<event>
 7    1  0.2693725E-009  0.1321005E+03  0.7561462E-02  0.1224372E+00
         -1   -1    0    0    0  501 -0.00000000000E+00  0.00000000000E+00  0.38749643794E+02  0.38749643794E+02  0.00000000000E+00 0.  1.
          1   -1    0    0  501    0  0.00000000000E+00 -0.00000000000E+00 -0.51552518781E+03  0.51552518781E+03  0.00000000000E+00 0. -1.
         25    2    1    2    0    0 -0.77761574492E+02 -0.91674807146E-01 -0.32626416023E+03  0.35796575438E+03  0.12507720891E+03 0.  0.
          5    1    3    3  502    0 -0.90402934219E+02 -0.39554749287E+02 -0.17366973814E+03  0.19978968705E+03  0.41800000000E+01 0. -1.
         -5    1    3    3    0  502  0.12641359726E+02  0.39463074480E+02 -0.15259442209E+03  0.15817606733E+03  0.41800000000E+01 0. -1.
        -11    1    1    2    0    0 -0.12612682469E+02 -0.26696067825E+02 -0.53109376331E+02  0.60764838934E+02  0.00000000000E+00 0. -1.
         11    1    1    2    0    0  0.90374256961E+02  0.26787742632E+02 -0.97402007451E+02  0.13554423828E+03  0.00000000000E+00 0.  1.
</event>
<event>
 7    1  0.2693725E-009  0.1225136E+03  0.7561462E-02  0.1239007E+00
         -1   -1    0    0    0  501 -0.00000000000E+00  0.00000000000E+00  0.54443318191E+03  0.54443318191E+03  0.00000000000E+00 0.  1.
          1   -1    0    0  501    0  0.00000000000E+00 -0.00000000000E+00 -0.40679254373E+02  0.40679254373E+02  0.00000000000E+00 0. -1.
         25    2    1    2    0    0 -0.99249739463E+02 -0.22163024624E+02  0.27941016558E+03  0.32258380477E+03  0.12509420460E+03 0.  0.
          5    1    3    3  502    0 -0.14130583312E+02  0.17665210216E+02 -0.45478898762E+01  0.23449706588E+02  0.41800000000E+01 0. -1.
         -5    1    3    3    0  502 -0.85119156151E+02 -0.39828234840E+02  0.28395805546E+03  0.29913409818E+03  0.41800000000E+01 0. -1.
        -11    1    1    2    0    0  0.35384159104E+02 -0.29294543523E+02  0.40584030065E+02  0.61296594457E+02  0.00000000000E+00 0. -1.
         11    1    1    2    0    0  0.63865580360E+02  0.51457568147E+02  0.18375973190E+03  0.20123203706E+03  0.00000000000E+00 0.  1.
</event>
<event>
 7    1  0.2693725E-009  0.1391504E+03  0.7561462E-02  0.1214477E+00
         -2   -1    0    0    0  501 -0.00000000000E+00  0.00000000000E+00  0.22828980791E+02  0.22828980791E+02  0.00000000000E+00 0.  1.
          2   -1    0    0  501    0  0.00000000000E+00 -0.00000000000E+00 -0.90690496473E+03  0.90690496473E+03  0.00000000000E+00 0. -1.
         25    2    1    2    0    0 -0.69988017757E+02 -0.56706906232E+02 -0.37905376900E+03  0.40919768239E+03  0.12508791963E+03 0.  0.
          5    1    3    3  502    0 -0.95126658320E+00 -0.80413431844E+02 -0.21514403977E+03  0.22972082008E+03  0.41800000000E+01 0.  1.
         -5    1    3    3    0  502 -0.69036751173E+02  0.23706525612E+02 -0.16390972923E+03  0.17947686231E+03  0.41800000000E+01 0.  1.
        -11    1    1    2    0    0  0.31712619945E+02 -0.21001842333E+02 -0.11973549441E+03  0.12563182824E+03  0.00000000000E+00 0.  1.
         11    1    1    2    0    0  0.38275397812E+02  0.77708748565E+02 -0.38528672054E+03  0.39490443490E+03  0.00000000000E+00 0. -1.
</event>
<event>
 7    1  0.2693725E-009  0.1624588E+03  0.7561462E-02  0.1185948E+00
          2   -1    0    0  501    0  0.00000000000E+00  0.00000000000E+00  0.32240991473E+03  0.32240991473E+03  0.00000000000E+00 0. -1.
         -2   -1    0    0    0  501 -0.00000000000E+00 -0.00000000000E+00 -0.11325435935E+03  0.11325435935E+03  0.00000000000E+00 0.  1.
         25    2    1    2    0    0  0.13295297032E+03  0.19499528099E+02  0.20412490645E+02  0.18473027685E+03  0.12510747979E+03 0.  0.
          5    1    3    3  502    0  0.37256731130E+02  0.66898807356E+02  0.10381931725E+02  0.77387152335E+02  0.41800000000E+01 0.  1.
         -5    1    3    3    0  502  0.95696239187E+02 -0.47399279258E+02  0.10030558919E+02  0.10734312452E+03  0.41800000000E+01 0.  1.
        -11    1    1    2    0    0 -0.68656531537E+02 -0.32176194143E+02  0.34413302475E+02  0.83266452906E+02  0.00000000000E+00 0.  1.
         11    1    1    2    0    0 -0.64296438779E+02  0.12676666045E+02  0.15432976226E+03  0.16766754433E+03  0.00000000000E+00 0. -1.
</event>
<event>
 7    1  0.2693725E-009  0.1399574E+03  0.7561462E-02  0.1213386E+00
          4   -1    0    0  501    0  0.00000000000E+00  0.00000000000E+00  0.12024706922E+03  0.12024706922E+03  0.00000000000E+00 0. -1.
         -4   -1    0    0    0  501 -0.00000000000E+00 -0.00000000000E+00 -0.18492273368E+03  0.18492273368E+03  0.00000000000E+00 0.  1.
         25    2    1    2    0    0  0.73742328447E+01 -0.93626850012E+02 -0.79190693820E+02  0.17532289765E+03  0.12508631460E+03 0.  0.
          5    1    3    3  502    0  0.58025432280E+02 -0.11302528896E+02 -0.23996491931E+02  0.63937484903E+02  0.41800000000E+01 0.  1.
         -5    1    3    3    0  502 -0.50651199435E+02 -0.82324321116E+02 -0.55194201889E+02  0.11138541275E+03  0.41800000000E+01 0.  1.
        -11    1    1    2    0    0  0.21393213855E+02  0.92682554414E+02  0.26386994517E+02  0.98711696224E+02  0.00000000000E+00 0. -1.
         11    1    1    2    0    0 -0.28767446700E+02  0.94429559770E+00 -0.11871965155E+02  0.31135209016E+02  0.00000000000E+00 0.  1.
</event>
<event>
 7    1  0.2693725E-009  0.1116611E+03  0.7561462E-02  0.1257524E+00
          2   -1    0    0  501    0  0.00000000000E+00  0.00000000000E+00  0.20068168855E+03  0.20068168855E+03  0.00000000000E+00 0. -1.
         -2   -1    0    0    0  501 -0.00000000000E+00 -0.00000000000E+00 -0.99250646805E+02  0.99250646805E+02  0.00000000000E+00 0.  1.
         25    2    1    2    0    0  0.62106888865E+02 -0.62079499893E+02  0.73904612282E+02  0.16976467612E+03  0.12508806334E+03 0.  0.
          5    1    3    3  502    0 -0.53543248442E+01 -0.95930818611E+01 -0.31717718834E+02  0.33825760926E+02  0.41800000000E+01 0.  1.
         -5    1    3    3    0  502  0.67461213709E+02 -0.52486418032E+02  0.10562233112E+03  0.13593891519E+03  0.41800000000E+01 0.  1.
        -11    1    1    2    0    0 -0.12158595243E+02 -0.23752698428E+02 -0.14376002629E+01  0.26722440297E+02  0.00000000000E+00 0.  1.
         11    1    1    2    0    0 -0.49948293622E+02  0.85832198322E+02  0.28964029731E+02  0.10344521895E+03  0.00000000000E+00 0. -1.
</event>
<event>
 7    1  0.2693725E-009  0.1455280E+03  0.7561462E-02  0.1206078E+00
          2   -1    0    0  501    0  0.00000000000E+00  0.00000000000E+00  0.25220017052E+03  0.25220017052E+03  0.00000000000E+00 0. -1.
         -2   -1    0    0    0  501 -0.00000000000E+00 -0.00000000000E+00 -0.99658580108E+02  0.99658580108E+02  0.00000000000E+00 0.  1.
         25    2    1    2    0    0 -0.76287810086E+02 -0.62619277055E+02  0.14775600702E+02  0.16001508655E+03  0.12508199600E+03 0.  0.
          5    1    3    3  502    0 -0.88123489681E+02 -0.91602810123E+02  0.17206292861E+02  0.12833687377E+03  0.41800000000E+01 0. -1.
         -5    1    3    3    0  502  0.11835679595E+02  0.28983533068E+02 -0.24306921590E+01  0.31678212780E+02  0.41800000000E+01 0. -1.
        -11    1    1    2    0    0  0.36959293622E+02  0.80885607268E+02  0.10431702328E+03  0.13707848917E+03  0.00000000000E+00 0. -1.
         11    1    1    2    0    0  0.39328516464E+02 -0.18266330214E+02  0.33448966436E+02  0.54765174905E+02  0.00000000000E+00 0.  1.
</event>
<event>
 7    1  0.2693725E-009  0.9951901E+02  0.7561462E-02  0.1281311E+00
          2   -1    0    0  501    0  0.00000000000E+00  0.00000000000E+00  0.51496629369E+03  0.51496629369E+03  0.00000000000E+00 0.  1.
         -2   -1    0    0    0  501 -0.00000000000E+00 -0.00000000000E+00 -0.24528080242E+02  0.24528080242E+02  0.00000000000E+00 0. -1.
         25    2    1    2    0    0  0.15747726627E+02 -0.61863404633E+01  0.33523698634E+03  0.35821391396E+03  0.12508840649E+03 0.  0.
          5    1    3    3  502    0  0.65918053281E+02 -0.25169559863E+02  0.21909079747E+03  0.23021065663E+03  0.41800000000E+01 0.  1.
         -5    1    3    3    0  502 -0.50170326654E+02  0.18983219399E+02  0.11614618887E+03  0.12800325732E+03  0.41800000000E+01 0.  1.
        -11    1    1    2    0    0 -0.40093909647E+02  0.21790368113E+02  0.14262388041E+03  0.14974616188E+03  0.00000000000E+00 0.  1.
         11    1    1    2    0    0  0.24346183021E+02 -0.15604027650E+02  0.12577346692E+02  0.31534298096E+02  0.00000000000E+00 0. -1.
</event>
<event>
 7    1  0.2693725E-009  0.1732318E+03  0.7561462E-02  0.1174519E+00
          3   -1    0    0  501    0  0.00000000000E+00  0.00000000000E+00  0.51851817959E+03  0.51851817959E+03  0.00000000000E+00 0. -1.
         -3   -1    0    0    0  501 -0.00000000000E+00 -0.00000000000E+00 -0.15570011972E+03  0.15570011972E+03  0.00000000000E+00 0.  1.
         25    2    1    2    0    0 -0.89274419367E+02 -0.13570590630E+03 -0.58697515878E+02  0.21325868622E+03  0.12509138228E+03 0.  0.
          5    1    3    3  502    0 -0.56231924572E+02 -0.18898329729E+02 -0.69317517644E+02  0.91332178667E+02  0.41800000000E+01 0. -1.
         -5    1    3    3    0  502 -0.33042494795E+02 -0.11680757657E+03  0.10620001766E+02  0.12192650755E+03  0.41800000000E+01 0. -1.
        -11    1    1    2    0    0  0.87792462322E+02  0.11455114103E+03  0.41404151529E+03  0.43847446532E+03  0.00000000000E+00 0. -1.
         11    1    1    2    0    0  0.14819570452E+01  0.21154765271E+02  0.74740604553E+01  0.22485147766E+02  0.00000000000E+00 0.  1.
</event>
<event>
 7    1  0.2731893E-009  0.1196290E+03  0.7561462E-02  0.1243710E+00
         -1   -1    0    0    0  501 -0.00000000000E+00  0.00000000000E+00  0.47028992953E+03  0.47028992953E+03  0.00000000000E+00 0.  1.
          1   -1    0    0  501    0  0.00000000000E+00 -0.00000000000E+00 -0.48870450304E+02  0.48870450304E+02  0.00000000000E+00 0. -1.
         25    2    1    2    0    0  0.48724968174E+02 -0.93346343428E+02  0.23642119871E+03  0.28745242512E+03  0.12508497574E+03 0.  0.
          5    1    3    3  502    0  0.16855525568E+02  0.11354802942E+01  0.16206931731E+03  0.16300102476E+03  0.41800000000E+01 0. -1.
         -5    1    3    3    0  502  0.31869442606E+02 -0.94481823722E+02  0.74351881398E+02  0.12445140037E+03  0.41800000000E+01 0. -1.
        -11    1    1    2    0    0 -0.62815261606E+02  0.64955038092E+02  0.17744152907E+03  0.19912410779E+03  0.00000000000E+00 0.  1.
         11    1    1    2    0    0  0.14090293432E+02  0.28391305336E+02  0.75567514433E+01  0.32583846919E+02  0.00000000000E+00 0. -1.
</event>
<event>
 7    1  0.2693725E-009  0.8831621E+02  0.7561462E-02  0.1306981E+00
         -1   -1    0    0    0  501 -0.00000000000E+00  0.00000000000E+00  0.39301132721E+02  0.39301132721E+02  0.00000000000E+00 0.  1.
          1   -1    0    0  501    0  0.00000000000E+00 -0.00000000000E+00 -0.42086613761E+03  0.42086613761E+03  0.00000000000E+00 0. -1.
         25    2    1    2    0    0 -0.29839010466E+01 -0.43932734042E+02 -0.30642398843E+03  0.33389146657E+03  0.12509541149E+03 0.  0.
          5    1    3    3  502    0 -0.59267062007E+02 -0.13885044112E+01 -0.10824585956E+03  0.12348745319E+03  0.41800000000E+01 0.  1.
         -5    1    3    3    0  502  0.56283160961E+02 -0.42544229630E+02 -0.19817812887E+03  0.21040401338E+03  0.41800000000E+01 0.  1.
        -11    1    1    2    0    0 -0.61290620528E+01  0.15527131900E+02  0.20299521504E+02  0.26281700858E+02  0.00000000000E+00 0.  1.
         11    1    1    2    0    0  0.91129630994E+01  0.28405602141E+02 -0.95440537967E+02  0.99994102910E+02  0.00000000000E+00 0. -1.
</event>
<event>
 7    1  0.2693725E-009  0.1152913E+03  0.7561462E-02  0.1251073E+00
         -1   -1    0    0    0  501 -0.00000000000E+00  0.00000000000E+00  0.35277408435E+02  0.35277408435E+02  0.00000000000E+00 0.  1.
          1   -1    0    0  501    0  0.00000000000E+00 -0.00000000000E+00 -0.44239038379E+03  0.44239038379E+03  0.00000000000E+00 0. -1.
         25    2    1    2    0    0  0.30120604431E+02 -0.32561716456E+02 -0.31066886432E+03  0.33783165169E+03  0.12509022917E+03 0.  0.
          5    1    3    3  502    0 -0.22567820425E+02 -0.63896915019E+02 -0.20054162680E+03  0.21172278750E+03  0.41800000000E+01 0. -1.
         -5    1    3    3    0  502  0.52688424855E+02  0.31335198563E+02 -0.11012723751E+03  0.12610886418E+03  0.41800000000E+01 0. -1.
        -11    1    1    2    0    0 -0.18286909185E+02  0.64574557564E+02 -0.62931075624E+02  0.92003286959E+02  0.00000000000E+00 0.  1.
         11    1    1    2    0    0 -0.11833695245E+02 -0.32012841107E+02 -0.33513035415E+02  0.47832853581E+02  0.00000000000E+00 0. -1.
</event>
<event>
 7    1  0.2693725E-009  0.1080085E+03  0.7561462E-02  0.1264303E+00
         -1   -1    0    0    0  501 -0.00000000000E+00  0.00000000000E+00  0.53311449287E+02  0.53311449287E+02  0.00000000000E+00 0.  1.
          1   -1    0    0  501    0  0.00000000000E+00 -0.00000000000E+00 -0.34931681995E+03  0.34931681995E+03  0.00000000000E+00 0. -1.
         25    2    1    2    0    0  0.38337215798E+02  0.54459353590E+02 -0.89458701651E+02  0.16759092885E+03  0.12509315259E+03 0.  0.
          5    1    3    3  502    0 -0.27086257717E+02 -0.19135644018E+02 -0.52686414074E+02  0.62395263098E+02  0.41800000000E+01 0.  1.
         -5    1    3    3    0  502  0.65423473516E+02  0.73594997608E+02 -0.36772287577E+02  0.10519566575E+03  0.41800000000E+01 0.  1.
        -11    1    1    2    0    0 -0.31863527731E+02 -0.28200558180E+01 -0.12852972833E+02  0.34473700482E+02  0.00000000000E+00 0.  1.
         11    1    1    2    0    0 -0.64736880674E+01 -0.51639297772E+02 -0.19369369618E+03  0.20056363990E+03  0.00000000000E+00 0. -1.
</event>
<event>
 7    1  0.2693725E-009  0.1220977E+03  0.7561462E-02  0.1239676E+00
          1   -1    0    0  501    0  0.00000000000E+00  0.00000000000E+00  0.18977800413E+03  0.18977800413E+03  0.00000000000E+00 0. -1.
         -1   -1    0    0    0  501 -0.00000000000E+00 -0.00000000000E+00 -0.94648371938E+02  0.94648371938E+02  0.00000000000E+00 0.  1.
         25    2    1    2    0    0 -0.38892550865E+02 -0.68706321911E+02  0.69241881159E+02  0.16332614815E+03  0.12509118027E+03 0.  0.
          5    1    3    3  502    0  0.22961053684E+02  0.18247896803E+02 -0.89742909778E+01  0.30954903046E+02  0.41800000000E+01 0.  1.
         -5    1    3    3    0  502 -0.61853604549E+02 -0.86954218714E+02  0.78216172137E+02  0.13237124511E+03  0.41800000000E+01 0.  1.
        -11    1    1    2    0    0  0.58300053403E+02  0.66196951172E+02 -0.54583704319E+00  0.88211283345E+02  0.00000000000E+00 0.  1.
         11    1    1    2    0    0 -0.19407502538E+02  0.25093707391E+01  0.26433588072E+02  0.32888944566E+02  0.00000000000E+00 0. -1.
</event>
<event>
 7    1  0.2693725E-009  0.1239805E+03  0.7561462E-02  0.1236671E+00
          2   -1    0    0  501    0  0.00000000000E+00  0.00000000000E+00  0.68768184939E+03  0.68768184939E+03  0.00000000000E+00 0. -1.
         -2   -1    0    0    0  501 -0.00000000000E+00 -0.00000000000E+00 -0.29389078378E+02  0.29389078378E+02  0.00000000000E+00 0.  1.
         25    2    1    2    0    0 -0.63063043557E+02  0.62387348103E+02  0.40993660471E+03  0.43768119435E+03  0.12509068446E+03 0.  0.
          5    1    3    3  502    0 -0.79807426540E+02  0.20951649584E+02  0.12904787724E+03  0.15322866563E+03  0.41800000000E+01 0.  1.
         -5    1    3    3    0  502  0.16744382983E+02  0.41435698519E+02  0.28088872748E+03  0.28445252872E+03  0.41800000000E+01 0.  1.
        -11    1    1    2    0    0  0.46164914879E+02  0.90543053316E+01  0.53931191760E+02  0.71566425476E+02  0.00000000000E+00 0.  1.
         11    1    1    2    0    0  0.16898128678E+02 -0.71441653435E+02  0.19442497454E+03  0.20782330794E+03  0.00000000000E+00 0. -1.
</event>
<event>
 7    1  0.2693725E-009  0.1184580E+03  0.7561462E-02  0.1245663E+00
          2   -1    0    0  501    0  0.00000000000E+00  0.00000000000E+00  0.73088439075E+03  0.73088439075E+03  0.00000000000E+00 0.  1.
         -2   -1    0    0    0  501 -0.00000000000E+00 -0.00000000000E+00 -0.27921144127E+02  0.27921144127E+02  0.00000000000E+00 0. -1.
         25    2    1    2    0    0  0.76211581012E+02 -0.16735258377E+02  0.30835144765E+03  0.34178466103E+03  0.12509142774E+03 0.  0.
          5    1    3    3  502    0  0.84322872103E+02 -0.27644262093E+02  0.31411745137E+03  0.32643804564E+03  0.41800000000E+01 0. -1.
         -5    1    3    3    0  502 -0.81112910910E+01  0.10909003716E+02 -0.57660037146E+01  0.15346615395E+02  0.41800000000E+01 0. -1.
        -11    1    1    2    0    0  0.27442190503E+02  0.12396470412E+02  0.69088168986E+02  0.75365253215E+02  0.00000000000E+00 0. -1.
         11    1    1    2    0    0 -0.10365377152E+03  0.43387879650E+01  0.32552362998E+03  0.34165562063E+03  0.00000000000E+00 0.  1.
</event>
<event>
 7    1  0.2693725E-009  0.1079541E+03  0.7561462E-02  0.1264406E+00
          2   -1    0    0  501    0  0.00000000000E+00  0.00000000000E+00  0.29190888303E+03  0.29190888303E+03  0.00000000000E+00 0. -1.
         -2   -1    0    0    0  501 -0.00000000000E+00 -0.00000000000E+00 -0.55838378660E+02  0.55838378660E+02  0.00000000000E+00 0.  1.
         25    2    1    2    0    0  0.49139137228E+02  0.14628636179E+02  0.18594359356E+03  0.22989557098E+03  0.12509317235E+03 0.  0.
          5    1    3    3  502    0 -0.35857373732E+02  0.19369199607E+01  0.10767351018E+03  0.11358063261E+03  0.41800000000E+01 0.  1.
         -5    1    3    3    0  502  0.84996510960E+02  0.12691716218E+02  0.78270083377E+02  0.11631493837E+03  0.41800000000E+01 0.  1.
        -11    1    1    2    0    0  0.10875387323E+00 -0.38838629863E+02  0.49568236199E+02  0.62971906728E+02  0.00000000000E+00 0.  1.
         11    1    1    2    0    0 -0.49247891101E+02  0.24209993684E+02  0.55867460856E+00  0.54879783977E+02  0.00000000000E+00 0. -1.
</event>
<event>
 7    1  0.2693725E-009  0.1462142E+03  0.7561462E-02  0.1205204E+00
          1   -1    0    0  501    0  0.00000000000E+00  0.00000000000E+00  0.15268937401E+03  0.15268937401E+03  0.00000000000E+00 0. -1.
         -1   -1    0    0    0  501 -0.00000000000E+00 -0.00000000000E+00 -0.20467114640E+03  0.20467114640E+03  0.00000000000E+00 0.  1.
         25    2    1    2    0    0 -0.13090915582E+03  0.18898869141E+02 -0.67158475353E+02  0.19404154322E+03  0.12508990907E+03 0.  0.
          5    1    3    3  502    0 -0.73186023924E+02  0.28703406028E+02 -0.99614789530E+02  0.12696715445E+03  0.41800000000E+01 0. -1.
         -5    1    3    3    0  502 -0.57723131892E+02 -0.98045368866E+01  0.32456314177E+02  0.67074388771E+02  0.41800000000E+01 0. -1.
        -11    1    1    2    0    0  0.98184945685E+02 -0.49715788546E+02  0.33104099331E+02  0.11492530001E+03  0.00000000000E+00 0. -1.
         11    1    1    2    0    0  0.32724210131E+02  0.30816919405E+02 -0.17927396377E+02  0.48393677182E+02  0.00000000000E+00 0.  1.
</event>
<event>
 7    1  0.2693725E-009  0.1243613E+03  0.7561462E-02  0.1236071E+00
         -1   -1    0    0    0  501 -0.00000000000E+00  0.00000000000E+00  0.15130583532E+03  0.15130583532E+03  0.00000000000E+00 0.  1.
          1   -1    0    0  501    0  0.00000000000E+00 -0.00000000000E+00 -0.15506864383E+03  0.15506864383E+03  0.00000000000E+00 0. -1.
         25    2    1    2    0    0  0.83301419655E+02  0.24706639314E+02 -0.65651780135E+02  0.16585304437E+03  0.12509009373E+03 0.  0.
          5    1    3    3  502    0  0.38064493171E+02 -0.50852320312E+02 -0.21046218369E+02  0.67046848018E+02  0.41800000000E+01 0. -1.
         -5    1    3    3    0  502  0.45236926483E+02  0.75558959626E+02 -0.44605561766E+02  0.98806196353E+02  0.41800000000E+01 0. -1.
        -11    1    1    2    0    0 -0.63890965260E+02  0.19552046775E+01 -0.68437807500E+01  0.64286200713E+02  0.00000000000E+00 0. -1.
         11    1    1    2    0    0 -0.19410454395E+02 -0.26661843991E+02  0.68732752368E+02  0.76235234065E+02  0.00000000000E+00 0.  1.
</event>
<event>
 7    1  0.2693725E-009  0.1025596E+03  0.7561462E-02  0.1275004E+00
         -2   -1    0    0    0  501 -0.00000000000E+00  0.00000000000E+00  0.24815164342E+03  0.24815164342E+03  0.00000000000E+00 0.  1.
          2   -1    0    0  501    0  0.00000000000E+00 -0.00000000000E+00 -0.71900126268E+02  0.71900126268E+02  0.00000000000E+00 0. -1.
         25    2    1    2    0    0 -0.10261069382E+02 -0.37865500399E+02  0.17812718343E+03  0.22117058645E+03  0.12509216271E+03 0.  0.
          5    1    3    3  502    0 -0.30516850627E+02  0.30222995658E+02  0.19582259481E+02  0.47388236147E+02  0.41800000000E+01 0.  1.
         -5    1    3    3    0  502  0.20255781245E+02 -0.68088496057E+02  0.15854492395E+03  0.17378235031E+03  0.41800000000E+01 0.  1.
        -11    1    1    2    0    0 -0.28483908272E+02  0.43148442042E+02 -0.20438408378E+02  0.55595410046E+02  0.00000000000E+00 0. -1.
         11    1    1    2    0    0  0.38744977654E+02 -0.52829416434E+01  0.18562742098E+02  0.43285773183E+02  0.00000000000E+00 0.  1.
</event>
<event>
 7    1  0.2693725E-009  0.9600565E+02  0.7561462E-02  0.1288927E+00
          2   -1    0    0  501    0  0.00000000000E+00  0.00000000000E+00  0.18925963774E+03  0.18925963774E+03  0.00000000000E+00 0. -1.
         -2   -1    0    0    0  501 -0.00000000000E+00 -0.00000000000E+00 -0.70641037199E+02  0.70641037199E+02  0.00000000000E+00 0.  1.
         25    2    1    2    0    0 -0.30839601186E+02 -0.25696065163E+02  0.77418344067E+02  0.15247904893E+03  0.12507954109E+03 0.  0.
          5    1    3    3  502    0 -0.18199837413E+02  0.38068471760E+02 -0.98981577872E+01  0.43541802346E+02  0.41800000000E+01 0. -1.
         -5    1    3    3    0  502 -0.12639763773E+02 -0.63764536923E+02  0.87316501854E+02  0.10893724658E+03  0.41800000000E+01 0. -1.
        -11    1    1    2    0    0  0.32287079673E+02  0.50328669069E+02  0.46610219300E+00  0.59796719770E+02  0.00000000000E+00 0.  1.
         11    1    1    2    0    0 -0.14474784871E+01 -0.24632603906E+02  0.40734154281E+02  0.47624906238E+02  0.00000000000E+00 0. -1.
</event>
<event>
 7    1  0.2693725E-009  0.9836403E+02  0.7561462E-02  0.1283774E+00
          4   -1    0    0  501    0  0.00000000000E+00  0.00000000000E+00  0.26576891740E+02  0.26576891740E+02  0.00000000000E+00 0. -1.
         -4   -1    0    0    0  501 -0.00000000000E+00 -0.00000000000E+00 -0.67486222697E+03  0.67486222697E+03  0.00000000000E+00 0.  1.
         25    2    1    2    0    0 -0.14716194567E+02 -0.69150934120E+02 -0.26504635255E+03  0.30148865993E+03  0.12508966782E+03 0.  0.
          5    1    3    3  502    0 -0.28935147424E+02 -0.23435988867E+02 -0.24751252638E+03  0.25033260164E+03  0.41800000000E+01 0.  1.
         -5    1    3    3    0  502  0.14218952858E+02 -0.45714945253E+02 -0.17533826176E+02  0.51156058294E+02  0.41800000000E+01 0.  1.
        -11    1    1    2    0    0 -0.34797287599E+02  0.15195905437E+02 -0.89516189274E+02  0.97236386752E+02  0.00000000000E+00 0.  1.
         11    1    1    2    0    0  0.49513482166E+02  0.53955028683E+02 -0.29372279341E+03  0.30271407203E+03  0.00000000000E+00 0. -1.
</event>
<event>
 7    1  0.2693725E-009  0.7678126E+02  0.7561462E-02  0.1338442E+00
          1   -1    0    0  501    0  0.00000000000E+00  0.00000000000E+00  0.43838923338E+03  0.43838923338E+03  0.00000000000E+00 0. -1.
         -1   -1    0    0    0  501 -0.00000000000E+00 -0.00000000000E+00 -0.29290631866E+02  0.29290631866E+02  0.00000000000E+00 0.  1.
         25    2    1    2    0    0 -0.50768289711E+01  0.17612947159E+02  0.24729999381E+03  0.27774399050E+03  0.12509375373E+03 0.  0.
          5    1    3    3  502    0 -0.23498867421E+02  0.36908883282E+02  0.24685446481E+03  0.25073703681E+03  0.41800000000E+01 0. -1.
         -5    1    3    3    0  502  0.18422038450E+02 -0.19295936123E+02  0.44552900252E+00  0.27006953690E+02  0.41800000000E+01 0. -1.
        -11    1    1    2    0    0 -0.37024332852E+02 -0.16381016203E+02  0.13270995178E+03  0.13874822599E+03  0.00000000000E+00 0. -1.
         11    1    1    2    0    0  0.42101161824E+02 -0.12319309553E+01  0.29088655924E+02  0.51187648747E+02  0.00000000000E+00 0.  1.
</event>
<event>
 7    1  0.2693725E-009  0.1044052E+03  0.7561462E-02  0.1271296E+00
         -4   -1    0    0    0  501 -0.00000000000E+00  0.00000000000E+00  0.50976829618E+03  0.50976829618E+03  0.00000000000E+00 0.  1.
          4   -1    0    0  501    0  0.00000000000E+00 -0.00000000000E+00 -0.26642233981E+02  0.26642233981E+02  0.00000000000E+00 0. -1.
         25    2    1    2    0    0  0.15559607956E+01 -0.16391126680E+02  0.35804864430E+03  0.37962792638E+03  0.12508973081E+03 0.  0.
          5    1    3    3  502    0  0.54163856303E+02 -0.26983935187E+02  0.26748072604E+03  0.27427225031E+03  0.41800000000E+01 0.  1.
         -5    1    3    3    0  502 -0.52607895507E+02  0.10592808507E+02  0.90567918259E+02  0.10535567607E+03  0.41800000000E+01 0.  1.
        -11    1    1    2    0    0 -0.47088842730E+02  0.47410037328E+01  0.67928157965E+02  0.82789316162E+02  0.00000000000E+00 0.  1.
         11    1    1    2    0    0  0.45532881934E+02  0.11650122947E+02  0.57149259932E+02  0.73993287619E+02  0.00000000000E+00 0. -1.
</event>
<event>
 7    1  0.2693725E-009  0.1170619E+03  0.7561462E-02  0.1248024E+00
         -2   -1    0    0    0  501 -0.00000000000E+00  0.00000000000E+00  0.57749089550E+02  0.57749089550E+02  0.00000000000E+00 0.  1.
          2   -1    0    0  501    0  0.00000000000E+00 -0.00000000000E+00 -0.33535378150E+03  0.33535378150E+03  0.00000000000E+00 0. -1.
         25    2    1    2    0    0  0.63296006943E+02  0.21670003526E+01 -0.23880035220E+03  0.27691884000E+03  0.12508938945E+03 0.  0.
          5    1    3    3  502    0 -0.37590843532E+02 -0.74653827856E+00 -0.48921108524E+02  0.61841540215E+02  0.41800000000E+01 0.  1.
         -5    1    3    3    0  502  0.10088685047E+03  0.29135386311E+01 -0.18987924367E+03  0.21507729979E+03  0.41800000000E+01 0.  1.
        -11    1    1    2    0    0 -0.56419158545E+02  0.28948298325E+02 -0.51690529107E+02  0.81810978641E+02  0.00000000000E+00 0. -1.
         11    1    1    2    0    0 -0.68768483972E+01 -0.31115298677E+02  0.12886189355E+02  0.34373052406E+02  0.00000000000E+00 0.  1.
</event>
<event>
 7    1  0.2693725E-009  0.1141176E+03  0.7561462E-02  0.1253129E+00
         -2   -1    0    0    0  501 -0.00000000000E+00  0.00000000000E+00  0.68589657565E+03  0.68589657565E+03  0.00000000000E+00 0. -1.
          2   -1    0    0  501    0  0.00000000000E+00 -0.00000000000E+00 -0.20818914413E+02  0.20818914413E+02  0.00000000000E+00 0.  1.
         25    2    1    2    0    0 -0.49155432116E+02  0.75991730328E+00  0.42360605568E+03  0.44441726745E+03  0.12509109969E+03 0.  0.
          5    1    3    3  502    0  0.30967382733E+01 -0.51711566785E+02  0.10331638941E+03  0.11565217096E+03  0.41800000000E+01 0. -1.
         -5    1    3    3    0  502 -0.52252170389E+02  0.52471484088E+02  0.32028966627E+03  0.32876509649E+03  0.41800000000E+01 0. -1.
        -11    1    1    2    0    0 -0.18740229359E+02 -0.23892776134E+02  0.81848109014E+02  0.87299335032E+02  0.00000000000E+00 0. -1.
         11    1    1    2    0    0  0.67895661475E+02  0.23132858830E+02  0.15962349654E+03  0.17499888758E+03  0.00000000000E+00 0.  1.
</event>
<event>
 7    1  0.2693725E-009  0.1256150E+03  0.7561462E-02  0.1234111E+00
          2   -1    0    0  501    0  0.00000000000E+00  0.00000000000E+00  0.13705323514E+03  0.13705323514E+03  0.00000000000E+00 0.  1.
         -2   -1    0    0    0  501 -0.00000000000E+00 -0.00000000000E+00 -0.12053639524E+03  0.12053639524E+03  0.00000000000E+00 0. -1.
         25    2    1    2    0    0  0.70620139016E+02 -0.10055113624E+02 -0.96948871719E+01  0.14432506912E+03  0.12508966942E+03 0.  0.
          5    1    3    3  502    0  0.98242622334E+02  0.21576052763E+02 -0.15032287294E+02  0.10178693903E+03  0.41800000000E+01 0. -1.
         -5    1    3    3    0  502 -0.27622483319E+02 -0.31631166387E+02  0.53374001220E+01  0.42538130092E+02  0.41800000000E+01 0. -1.
        -11    1    1    2    0    0  0.17415600458E+02  0.10469805262E+02  0.13300107031E+02  0.24286062023E+02  0.00000000000E+00 0. -1.
         11    1    1    2    0    0 -0.88035739473E+02 -0.41469163832E+00  0.12911620041E+02  0.88978499233E+02  0.00000000000E+00 0.  1.
</event>
<event>
 7    1  0.2693725E-009  0.1250204E+03  0.7561462E-02  0.1235037E+00
          1   -1    0    0  501    0  0.00000000000E+00  0.00000000000E+00  0.68747008212E+03  0.68747008212E+03  0.00000000000E+00 0. -1.
         -1   -1    0    0    0  501 -0.00000000000E+00 -0.00000000000E+00 -0.36717890993E+02  0.36717890993E+02  0.00000000000E+00 0.  1.
         25    2    1    2    0    0 -0.62513463622E+02 -0.63151035528E+02  0.18087148529E+03  0.23718707627E+03  0.12508888254E+03 0.  0.
          5    1    3    3  502    0 -0.82941993042E+02 -0.55653069946E+02  0.18881499731E+03  0.21364740582E+03  0.41800000000E+01 0.  1.
         -5    1    3    3    0  502  0.20428529420E+02 -0.74979655819E+01 -0.79435120124E+01  0.23539670457E+02  0.41800000000E+01 0.  1.
        -11    1    1    2    0    0  0.67707544579E+02  0.32500366748E+01  0.25763221620E+03  0.26640051268E+03  0.00000000000E+00 0. -1.
         11    1    1    2    0    0 -0.51940809572E+01  0.59900998853E+02  0.21224848963E+03  0.22060038416E+03  0.00000000000E+00 0.  1.
</event>
<event>
 7    1  0.2693725E-009  0.7947602E+02  0.7561462E-02  0.1330545E+00
          3   -1    0    0  501    0  0.00000000000E+00  0.00000000000E+00  0.70950442356E+02  0.70950442356E+02  0.00000000000E+00 0. -1.
         -3   -1    0    0    0  501 -0.00000000000E+00 -0.00000000000E+00 -0.19751685776E+03  0.19751685776E+03  0.00000000000E+00 0.  1.
         25    2    1    2    0    0 -0.32006136575E+02  0.28525688877E+02 -0.52052958461E+02  0.14211090316E+03  0.12509152892E+03 0.  0.
          5    1    3    3  502    0 -0.35445310316E+02  0.88026915921E+01 -0.90986711366E+02  0.98132112215E+02  0.41800000000E+01 0.  1.
         -5    1    3    3    0  502  0.34391737415E+01  0.19722997285E+02  0.38933752904E+02  0.43978790947E+02  0.41800000000E+01 0.  1.
        -11    1    1    2    0    0 -0.32646140183E+02 -0.54826785329E+01 -0.19724108757E+02  0.38534020021E+02  0.00000000000E+00 0. -1.
         11    1    1    2    0    0  0.64652276758E+02 -0.23043010344E+02 -0.54789348185E+02  0.87822376933E+02  0.00000000000E+00 0.  1.
</event>
<event>
 7    1  0.2693725E-009  0.2006732E+03  0.7561462E-02  0.1149172E+00
          1   -1    0    0  501    0  0.00000000000E+00  0.00000000000E+00  0.51697059703E+03  0.51697059703E+03  0.00000000000E+00 0. -1.
         -1   -1    0    0    0  501 -0.00000000000E+00 -0.00000000000E+00 -0.16229724007E+03  0.16229724007E+03  0.00000000000E+00 0.  1.
         25    2    1    2    0    0  0.21921545620E+02 -0.17205623818E+03 -0.59896079974E+02  0.22207652497E+03  0.12508612748E+03 0.  0.
          5    1    3    3  502    0  0.82144589451E+01 -0.19005337001E+03 -0.58335044598E+02  0.19901811630E+03  0.41800000000E+01 0.  1.
         -5    1    3    3    0  502  0.13707086675E+02  0.17997131828E+02 -0.15610353765E+01  0.23058408675E+02  0.41800000000E+01 0.  1.
        -11    1    1    2    0    0  0.16232097108E+02  0.54156916591E+01  0.76093943817E+02  0.77994224006E+02  0.00000000000E+00 0. -1.
         11    1    1    2    0    0 -0.38153642728E+02  0.16664054652E+03  0.33847549311E+03  0.37919708812E+03  0.00000000000E+00 0.  1.
</event>
<event>
 7    1  0.2693725E-009  0.3169052E+03  0.7561462E-02  0.1077082E+00
         -2   -1    0    0    0  501 -0.00000000000E+00  0.00000000000E+00  0.19312853906E+03  0.19312853906E+03  0.00000000000E+00 0.  1.
          2   -1    0    0  501    0  0.00000000000E+00 -0.00000000000E+00 -0.95490096135E+03  0.95490096135E+03  0.00000000000E+00 0. -1.
         25    2    1    2    0    0  0.21563216321E+03  0.22259664234E+03 -0.75413069933E+03  0.82486839966E+03  0.12509304574E+03 0.  0.
          5    1    3    3  502    0  0.20403164786E+03  0.19139897363E+03 -0.54051664913E+03  0.60863634530E+03  0.41800000000E+01 0.  1.
         -5    1    3    3    0  502  0.11600515349E+02  0.31197668712E+02 -0.21361405020E+03  0.21623205436E+03  0.41800000000E+01 0.  1.
        -11    1    1    2    0    0 -0.18226069045E+03 -0.13521218865E+03 -0.23989829455E+02  0.22820343371E+03  0.00000000000E+00 0.  1.
         11    1    1    2    0    0 -0.33371472759E+02 -0.87384453696E+02  0.16348106496E+02  0.94957667031E+02  0.00000000000E+00 0. -1.
</event>
<event>
 7    1  0.2693725E-009  0.2024853E+03  0.7561462E-02  0.1147659E+00
          2   -1    0    0  501    0  0.00000000000E+00  0.00000000000E+00  0.82406037612E+03  0.82406037612E+03  0.00000000000E+00 0. -1.
         -2   -1    0    0    0  501 -0.00000000000E+00 -0.00000000000E+00 -0.52055322474E+02  0.52055322474E+02  0.00000000000E+00 0.  1.
         25    2    1    2    0    0  0.12381081477E+03 -0.12312538002E+03  0.35362144969E+03  0.41374545284E+03  0.12509273763E+03 0.  0.
          5    1    3    3  502    0  0.12269172397E+03 -0.14366266479E+03  0.28476498455E+03  0.34176130444E+03  0.41800000000E+01 0. -1.
         -5    1    3    3    0  502  0.11190907968E+01  0.20537284767E+02  0.68856465143E+02  0.71984148407E+02  0.41800000000E+01 0. -1.
        -11    1    1    2    0    0 -0.76854708497E+02  0.12641197060E+03  0.28850392428E+03  0.32422391469E+03  0.00000000000E+00 0. -1.
         11    1    1    2    0    0 -0.46956106272E+02 -0.32865905834E+01  0.12987967967E+03  0.13814633106E+03  0.00000000000E+00 0.  1.
</event>
<event>
 7    1  0.2693725E-009  0.5762836E+02  0.7561462E-02  0.1408063E+00
          2   -1    0    0  501    0  0.00000000000E+00  0.00000000000E+00  0.35477238340E+03  0.35477238340E+03  0.00000000000E+00 0.  1.
         -2   -1    0    0    0  501 -0.00000000000E+00 -0.00000000000E+00 -0.36248153197E+02  0.36248153197E+02  0.00000000000E+00 0. -1.
         25    2    1    2    0    0 -0.30722777232E+02 -0.14534670512E+02  0.16815559598E+03  0.21231868606E+03  0.12509106404E+03 0.  0.
          5    1    3    3  502    0 -0.21430589187E+02  0.13747991283E+02  0.17863019491E+03  0.18048406121E+03  0.41800000000E+01 0. -1.
         -5    1    3    3    0  502 -0.92921880449E+01 -0.28282661795E+02 -0.10474598928E+02  0.31834624853E+02  0.41800000000E+01 0. -1.
        -11    1    1    2    0    0  0.61520068552E+01  0.29824867030E+02  0.54683031250E+01  0.30939816107E+02  0.00000000000E+00 0. -1.
         11    1    1    2    0    0  0.24570770377E+02 -0.15290196518E+02  0.14490033109E+03  0.14776203442E+03  0.00000000000E+00 0.  1.
</event>
<event>
 7    1  0.2693725E-009  0.7595395E+02  0.7561462E-02  0.1340942E+00
         -1   -1    0    0    0  501 -0.00000000000E+00  0.00000000000E+00  0.23627840301E+03  0.23627840301E+03  0.00000000000E+00 0.  1.
          1   -1    0    0  501    0  0.00000000000E+00 -0.00000000000E+00 -0.54668016049E+02  0.54668016049E+02  0.00000000000E+00 0. -1.
         25    2    1    2    0    0  0.33758208827E+02  0.10512815387E+02  0.87151576176E+02  0.15650307975E+03  0.12509069026E+03 0.  0.
          5    1    3    3  502    0 -0.10983873172E+02  0.16673094586E+02 -0.26902101466E+02  0.33761413126E+02  0.41800000000E+01 0.  1.
         -5    1    3    3    0  502  0.44742081999E+02 -0.61602791992E+01  0.11405367764E+03  0.12274166662E+03  0.41800000000E+01 0.  1.
        -11    1    1    2    0    0 -0.36792944456E+02  0.28798671689E+02  0.79616171917E+02  0.92313699327E+02  0.00000000000E+00 0.  1.
         11    1    1    2    0    0  0.30347356295E+01 -0.39311487076E+02  0.14842638867E+02  0.42129639982E+02  0.00000000000E+00 0. -1.
</event>
<event>
 7    1  0.2693725E-009  0.1136629E+03  0.7561462E-02  0.1253933E+00
          1   -1    0    0  501    0  0.00000000000E+00  0.00000000000E+00  0.14223467869E+03  0.14223467869E+03  0.00000000000E+00 0.  1.
         -1   -1    0    0    0  501 -0.00000000000E+00 -0.00000000000E+00 -0.97435757578E+02  0.97435757578E+02  0.00000000000E+00 0. -1.
         25    2    1    2    0    0 -0.37020786259E+02 -0.28106018654E+02  0.24553619693E+02  0.13569055889E+03  0.12509420703E+03 0.  0.
          5    1    3    3  502    0  0.35430846713E+02  0.22006537330E+02 -0.60214175871E+01  0.42348110393E+02  0.41800000000E+01 0. -1.
         -5    1    3    3    0  502 -0.72451632972E+02 -0.50112555984E+02  0.30575037280E+02  0.93342448501E+02  0.41800000000E+01 0. -1.
        -11    1    1    2    0    0  0.34680575407E+02  0.57812347283E+02  0.28294478508E+02  0.73113523530E+02  0.00000000000E+00 0.  1.
         11    1    1    2    0    0  0.23402108526E+01 -0.29706328629E+02 -0.80491770926E+01  0.30866353839E+02  0.00000000000E+00 0. -1.
</event>
<event>
 7    1  0.2693725E-009  0.1390304E+03  0.7561462E-02  0.1214640E+00
         -2   -1    0    0    0  501 -0.00000000000E+00  0.00000000000E+00  0.28032787384E+02  0.28032787384E+02  0.00000000000E+00 0.  1.
          2   -1    0    0  501    0  0.00000000000E+00 -0.00000000000E+00 -0.73539798807E+03  0.73539798807E+03  0.00000000000E+00 0. -1.
         25    2    1    2    0    0  0.26917836932E+02 -0.86069968247E+02 -0.44135566637E+03  0.46751984950E+03  0.12508947220E+03 0.  0.
          5    1    3    3  502    0 -0.47172232867E+02 -0.55889630356E+02 -0.23529151721E+03  0.24643141197E+03  0.41800000000E+01 0.  1.
         -5    1    3    3    0  502  0.74090069799E+02 -0.30180337891E+02 -0.20606414916E+03  0.22108843753E+03  0.41800000000E+01 0.  1.
        -11    1    1    2    0    0 -0.35501228750E+02 -0.26134382447E+01 -0.43388932847E+02  0.56122783215E+02  0.00000000000E+00 0.  1.
         11    1    1    2    0    0  0.85833918184E+01  0.88683406491E+02 -0.22262060146E+03  0.23978814274E+03  0.00000000000E+00 0. -1.
</event>
<event>
 7    1  0.2693725E-009  0.2662384E+03  0.7561462E-02  0.1103452E+00
          2   -1    0    0  501    0  0.00000000000E+00  0.00000000000E+00  0.14556634788E+04  0.14556634788E+04  0.00000000000E+00 0. -1.
         -2   -1    0    0    0  501 -0.00000000000E+00 -0.00000000000E+00 -0.58153937139E+02  0.58153937139E+02  0.00000000000E+00 0.  1.
         25    2    1    2    0    0  0.18895160610E+03 -0.18076566072E+03  0.88349775114E+03  0.92983589531E+03  0.12509029695E+03 0.  0.
          5    1    3    3  502    0  0.81102950058E+02 -0.12061619402E+03  0.64551323537E+03  0.66168781476E+03  0.41800000000E+01 0.  1.
         -5    1    3    3    0  502  0.10784865604E+03 -0.60149466696E+02  0.23798451578E+03  0.26814808055E+03  0.41800000000E+01 0.  1.
        -11    1    1    2    0    0 -0.15443313604E+03  0.12864386514E+03  0.45751799229E+03  0.49972147324E+03  0.00000000000E+00 0. -1.
         11    1    1    2    0    0 -0.34518470057E+02  0.52121795580E+02  0.56493798246E+02  0.84260047412E+02  0.00000000000E+00 0.  1.
</event>
<event>
 7    1  0.2693725E-009  0.8114426E+02  0.7561462E-02  0.1325835E+00
          1   -1    0    0  501    0  0.00000000000E+00  0.00000000000E+00  0.36304572762E+03  0.36304572762E+03  0.00000000000E+00 0. -1.
         -1   -1    0    0    0  501 -0.00000000000E+00 -0.00000000000E+00 -0.38116738431E+02  0.38116738431E+02  0.00000000000E+00 0.  1.
         25    2    1    2    0    0  0.21348940102E+02 -0.35621639105E+02  0.22342686895E+03  0.25940418325E+03  0.12508511544E+03 0.  0.
          5    1    3    3  502    0 -0.22094755640E+01  0.10499227611E+02 -0.12982125137E+02  0.17352911450E+02  0.41800000000E+01 0.  1.
         -5    1    3    3    0  502  0.23558415666E+02 -0.46120866716E+02  0.23640899409E+03  0.24205127180E+03  0.41800000000E+01 0.  1.
        -11    1    1    2    0    0 -0.60600929938E+01  0.65220706030E+02  0.70825470804E+02  0.96471304214E+02  0.00000000000E+00 0.  1.
         11    1    1    2    0    0 -0.15288847108E+02 -0.29599066925E+02  0.30676649428E+02  0.45286978579E+02  0.00000000000E+00 0. -1.
</event>
<event>
 7    1  0.2973877E-009  0.1046932E+03  0.7561462E-02  0.1270725E+00
         -3   -1    0    0    0  501 -0.00000000000E+00  0.00000000000E+00  0.23829068380E+03  0.23829068380E+03  0.00000000000E+00 0.  1.
          3   -1    0    0  501    0  0.00000000000E+00 -0.00000000000E+00 -0.77409854559E+02  0.77409854559E+02  0.00000000000E+00 0. -1.
         25    2    1    2    0    0 -0.64143875052E+02 -0.17702340088E+02  0.14251268399E+03  0.20095945741E+03  0.12508808445E+03 0.  0.
          5    1    3    3  502    0  0.36628476773E+02 -0.25375056315E+01  0.56648747010E+02  0.67636064222E+02  0.41800000000E+01 0.  1.
         -5    1    3    3    0  502 -0.10077235183E+03 -0.15164834457E+02  0.85863936982E+02  0.13332339319E+03  0.41800000000E+01 0.  1.
        -11    1    1    2    0    0  0.51130911565E+02  0.23404398389E+02 -0.30414932888E+02  0.63931245288E+02  0.00000000000E+00 0. -1.
         11    1    1    2    0    0  0.13012963488E+02 -0.57020583011E+01  0.48783078135E+02  0.50809835661E+02  0.00000000000E+00 0.  1.
</event>
<event>
 7    1  0.2693725E-009  0.9009013E+02  0.7561462E-02  0.1302634E+00
         -1   -1    0    0    0  501 -0.00000000000E+00  0.00000000000E+00  0.32195499317E+02  0.32195499317E+02  0.00000000000E+00 0.  1.
          1   -1    0    0  501    0  0.00000000000E+00 -0.00000000000E+00 -0.41541704050E+03  0.41541704050E+03  0.00000000000E+00 0. -1.
         25    2    1    2    0    0 -0.33591893560E+02 -0.70180538845E+01 -0.23049045591E+03  0.26448176421E+03  0.12508830858E+03 0.  0.
          5    1    3    3  502    0  0.37577190879E+02  0.60343279777E+00 -0.15823525466E+03  0.16269074227E+03  0.41800000000E+01 0. -1.
         -5    1    3    3    0  502 -0.71169084439E+02 -0.76214866822E+01 -0.72255201255E+02  0.10179102194E+03  0.41800000000E+01 0. -1.
        -11    1    1    2    0    0  0.80188124644E+01 -0.26968481341E+02 -0.13353437234E+03  0.13646621902E+03  0.00000000000E+00 0. -1.
         11    1    1    2    0    0  0.25573081096E+02  0.33986535225E+02 -0.19196712937E+02  0.46664556581E+02  0.00000000000E+00 0.  1.
</event>
<event>
 7    1  0.2693725E-009  0.2093188E+03  0.7561462E-02  0.1142107E+00
         -1   -1    0    0    0  501 -0.00000000000E+00  0.00000000000E+00  0.11963570176E+03  0.11963570176E+03  0.00000000000E+00 0.  1.
          1   -1    0    0  501    0  0.00000000000E+00 -0.00000000000E+00 -0.47339048495E+03  0.47339048495E+03  0.00000000000E+00 0. -1.
         25    2    1    2    0    0  0.20523016858E+03 -0.12817838327E+02 -0.24678779387E+03  0.34472444046E+03  0.12508799133E+03 0.  0.
          5    1    3    3  502    0  0.10889539593E+03  0.19186786550E+02 -0.46269348775E+02  0.11993608743E+03  0.41800000000E+01 0.  1.
         -5    1    3    3    0  502  0.96334772649E+02 -0.32004624876E+02 -0.20051844510E+03  0.22478835303E+03  0.41800000000E+01 0.  1.
        -11    1    1    2    0    0 -0.10858276030E+03  0.15616083122E+02 -0.80744555863E+01  0.10999670322E+03  0.00000000000E+00 0.  1.
         11    1    1    2    0    0 -0.96647408274E+02 -0.27982447959E+01 -0.98892533725E+02  0.13830504303E+03  0.00000000000E+00 0. -1.
</event>
<event>
 7    1  0.2693725E-009  0.1208458E+03  0.7561462E-02  0.1241708E+00
         -1   -1    0    0    0  501 -0.00000000000E+00  0.00000000000E+00  0.25365132628E+02  0.25365132628E+02  0.00000000000E+00 0.  1.
          1   -1    0    0  501    0  0.00000000000E+00 -0.00000000000E+00 -0.79884275208E+03  0.79884275208E+03  0.00000000000E+00 0. -1.
         25    2    1    2    0    0  0.83855602925E+02 -0.24134214717E+02 -0.47831082433E+03  0.50203927523E+03  0.12509183325E+03 0.  0.
          5    1    3    3  502    0  0.13456917906E+02  0.47209748723E+02 -0.20683159301E+03  0.21261850644E+03  0.41800000000E+01 0. -1.
         -5    1    3    3    0  502  0.70398685019E+02 -0.71343963440E+02 -0.27147923131E+03  0.28942076879E+03  0.41800000000E+01 0. -1.
        -11    1    1    2    0    0 -0.28465372454E+02 -0.59409966097E+01 -0.10990243884E+02  0.31086304545E+02  0.00000000000E+00 0.  1.
         11    1    1    2    0    0 -0.55390230471E+02  0.30075211326E+02 -0.28417655124E+03  0.29108230493E+03  0.00000000000E+00 0. -1.
</event>
<event>
 7    1  0.2693725E-009  0.1424274E+03  0.7561462E-02  0.1210099E+00
          1   -1    0    0  501    0  0.00000000000E+00  0.00000000000E+00  0.73647731528E+02  0.73647731528E+02  0.00000000000E+00 0. -1.
         -1   -1    0    0    0  501 -0.00000000000E+00 -0.00000000000E+00 -0.32336929814E+03  0.32336929814E+03  0.00000000000E+00 0.  1.
         25    2    1    2    0    0  0.46421547296E+02 -0.95020286221E+02 -0.17347419744E+03  0.23858835423E+03  0.12508913122E+03 0.  0.
          5    1    3    3  502    0  0.79807805540E+02 -0.39432682099E+02 -0.13877840917E+03  0.16492768565E+03  0.41800000000E+01 0. -1.
         -5    1    3    3    0  502 -0.33386258244E+02 -0.55587604122E+02 -0.34695788274E+02  0.73660668579E+02  0.41800000000E+01 0. -1.
        -11    1    1    2    0    0 -0.51185951917E+02  0.19010674245E+02 -0.58906753400E+02  0.80320688524E+02  0.00000000000E+00 0. -1.
         11    1    1    2    0    0  0.47644046217E+01  0.76009611975E+02 -0.17340615765E+02  0.78107986910E+02  0.00000000000E+00 0.  1.
</event>
<event>
 7    1  0.2693725E-009  0.1050819E+03  0.7561462E-02  0.1269958E+00
         -1   -1    0    0    0  501 -0.00000000000E+00  0.00000000000E+00  0.10183567989E+03  0.10183567989E+03  0.00000000000E+00 0.  1.
          1   -1    0    0  501    0  0.00000000000E+00 -0.00000000000E+00 -0.16791105831E+03  0.16791105831E+03  0.00000000000E+00 0. -1.
         25    2    1    2    0    0 -0.11711948933E+02 -0.17487994123E+02  0.34742225381E+02  0.13152351526E+03  0.12509361756E+03 0.  0.
          5    1    3    3  502    0 -0.10634730517E+02 -0.69078609005E+02  0.37973649125E+02  0.79651880976E+02  0.41800000000E+01 0.  1.
         -5    1    3    3    0  502 -0.10772184156E+01  0.51590614881E+02 -0.32314237440E+01  0.51871634279E+02  0.41800000000E+01 0.  1.
        -11    1    1    2    0    0  0.20656628996E+02 -0.31998751462E+02 -0.68706298893E+02  0.78556806988E+02  0.00000000000E+00 0. -1.
         11    1    1    2    0    0 -0.89446800631E+01  0.49486745585E+02 -0.32111304907E+02  0.59666415955E+02  0.00000000000E+00 0.  1.
</event>
<event>
 7    1  0.2693725E-009  0.4924361E+02  0.7561462E-02  0.1449465E+00
         -1   -1    0    0    0  501 -0.00000000000E+00  0.00000000000E+00  0.80139172188E+02  0.80139172188E+02  0.00000000000E+00 0.  1.
          1   -1    0    0  501    0  0.00000000000E+00 -0.00000000000E+00 -0.17948129780E+03  0.17948129780E+03  0.00000000000E+00 0. -1.
         25    2    1    2    0    0  0.20252204640E+02 -0.97608552634E+00 -0.10439698909E+03  0.16418253993E+03  0.12508425381E+03 0.  0.
          5    1    3    3  502    0  0.23480065866E+02  0.19456312054E+02  0.20846115069E+02  0.37173841412E+02  0.41800000000E+01 0.  1.
         -5    1    3    3    0  502 -0.32278612259E+01 -0.20432397581E+02 -0.12524310416E+03  0.12700869852E+03  0.41800000000E+01 0.  1.
        -11    1    1    2    0    0 -0.12891788522E+02 -0.20324382138E+02  0.44166150973E+02  0.50298385783E+02  0.00000000000E+00 0.  1.
         11    1    1    2    0    0 -0.73604161178E+01  0.21300467664E+02 -0.39111287492E+02  0.45139544276E+02  0.00000000000E+00 0. -1.
</event>
<event>
 7    1  0.2693725E-009  0.5854615E+02  0.7561462E-02  0.1404036E+00
          3   -1    0    0  501    0  0.00000000000E+00  0.00000000000E+00  0.32129135817E+03  0.32129135817E+03  0.00000000000E+00 0. -1.
         -3   -1    0    0    0  501 -0.00000000000E+00 -0.00000000000E+00 -0.45337600926E+02  0.45337600926E+02  0.00000000000E+00 0.  1.
         25    2    1    2    0    0  0.11466987822E+02  0.42554087179E+02  0.10589790368E+03  0.16970869566E+03  0.12507730903E+03 0.  0.
          5    1    3    3  502    0 -0.51078014671E+01  0.29785233516E+02  0.13229491273E+03  0.13576695513E+03  0.41800000000E+01 0.  1.
         -5    1    3    3    0  502  0.16574789289E+02  0.12768853662E+02 -0.26397009047E+02  0.33941740533E+02  0.41800000000E+01 0.  1.
        -11    1    1    2    0    0 -0.21203100715E+02  0.39765683330E+00 -0.48664567751E-01  0.21206885182E+02  0.00000000000E+00 0.  1.
         11    1    1    2    0    0  0.97361128938E+01 -0.42951744012E+02  0.17010451813E+03  0.17571337825E+03  0.00000000000E+00 0. -1.
</event>
<event>
 7    1  0.2693725E-009  0.1169895E+03  0.7561462E-02  0.1248148E+00
         -3   -1    0    0    0  501 -0.00000000000E+00  0.00000000000E+00  0.22851248784E+03  0.22851248784E+03  0.00000000000E+00 0.  1.
          3   -1    0    0  501    0  0.00000000000E+00 -0.00000000000E+00 -0.69263712072E+02  0.69263712072E+02  0.00000000000E+00 0. -1.
         25    2    1    2    0    0 -0.19826720341E+02 -0.52313790933E+02  0.49670730401E+02  0.14575323424E+03  0.12508793816E+03 0.  0.
          5    1    3    3  502    0  0.39262631312E+02  0.13964814862E+02 -0.37416121897E+01  0.42048095480E+02  0.41800000000E+01 0.  1.
         -5    1    3    3    0  502 -0.59089351653E+02 -0.66278605796E+02  0.53412342590E+02  0.10370513876E+03  0.41800000000E+01 0.  1.
        -11    1    1    2    0    0  0.28517839751E+02 -0.17098424802E+02  0.21716830982E+02  0.39714532135E+02  0.00000000000E+00 0. -1.
         11    1    1    2    0    0 -0.86911194102E+01  0.69412215736E+02  0.87861214388E+02  0.11230843354E+03  0.00000000000E+00 0.  1.
</event>
<event>
 7    1  0.2693725E-009  0.1147009E+03  0.7561462E-02  0.1252104E+00
         -2   -1    0    0    0  501 -0.00000000000E+00  0.00000000000E+00  0.10429523782E+03  0.10429523782E+03  0.00000000000E+00 0.  1.
          2   -1    0    0  501    0  0.00000000000E+00 -0.00000000000E+00 -0.16511390000E+03  0.16511390000E+03  0.00000000000E+00 0. -1.
         25    2    1    2    0    0  0.68934078961E+02 -0.23880488148E+02 -0.20272156489E+02  0.14621963479E+03  0.12508811419E+03 0.  0.
          5    1    3    3  502    0  0.48546206803E+02 -0.60306266787E+02 -0.52229183887E+02  0.93482298101E+02  0.41800000000E+01 0.  1.
         -5    1    3    3    0  502  0.20387872158E+02  0.36425778638E+02  0.31957027397E+02  0.52737336685E+02  0.41800000000E+01 0.  1.
        -11    1    1    2    0    0  0.41366300032E+01 -0.22824803936E+02 -0.26699850184E+02  0.35368988992E+02  0.00000000000E+00 0. -1.
         11    1    1    2    0    0 -0.73070708965E+02  0.46705292085E+02 -0.13846655511E+02  0.87820514039E+02  0.00000000000E+00 0.  1.
</event>
<event>
 7    1  0.2693725E-009  0.1143292E+03  0.7561462E-02  0.1252757E+00
          2   -1    0    0  501    0  0.00000000000E+00  0.00000000000E+00  0.29874630306E+03  0.29874630306E+03  0.00000000000E+00 0. -1.
         -2   -1    0    0    0  501 -0.00000000000E+00 -0.00000000000E+00 -0.81763264106E+02  0.81763264106E+02  0.00000000000E+00 0.  1.
         25    2    1    2    0    0  0.73688466600E+02 -0.51583437752E+02  0.20790521960E+03  0.25877159130E+03  0.12508922801E+03 0.  0.
          5    1    3    3  502    0  0.25776329584E+02  0.32249307879E+02  0.12408226521E+03  0.13083699005E+03  0.41800000000E+01 0. -1.
         -5    1    3    3    0  502  0.47912137016E+02 -0.83832745630E+02  0.83822954386E+02  0.12793460124E+03  0.41800000000E+01 0. -1.
        -11    1    1    2    0    0 -0.50305997670E+02  0.40767916878E+02 -0.32788806465E+02  0.72579764932E+02  0.00000000000E+00 0.  1.
         11    1    1    2    0    0 -0.23382468931E+02  0.10815520873E+02  0.41866625813E+02  0.49158210932E+02  0.00000000000E+00 0. -1.
</event>
<event>
 7    1  0.2693725E-009  0.1009780E+03  0.7561462E-02  0.1278253E+00
         -2   -1    0    0    0  501 -0.00000000000E+00  0.00000000000E+00  0.96671926575E+02  0.96671926575E+02  0.00000000000E+00 0.  1.
          2   -1    0    0  501    0  0.00000000000E+00 -0.00000000000E+00 -0.16443010318E+03  0.16443010318E+03  0.00000000000E+00 0. -1.
         25    2    1    2    0    0  0.44001928172E+02 -0.39695802377E+02 -0.69853533629E+02  0.15504767465E+03  0.12509332054E+03 0.  0.
          5    1    3    3  502    0 -0.28330910091E+02 -0.26914938824E+00 -0.66600929372E+02  0.72497373064E+02  0.41800000000E+01 0.  1.
         -5    1    3    3    0  502  0.72332838263E+02 -0.39426652989E+02 -0.32526042567E+01  0.82550301584E+02  0.41800000000E+01 0.  1.
        -11    1    1    2    0    0 -0.20737949785E+02  0.57764523248E+02  0.27407884478E+02  0.67216031115E+02  0.00000000000E+00 0.  1.
         11    1    1    2    0    0 -0.23263978387E+02 -0.18068720871E+02 -0.25312527453E+02  0.38838323990E+02  0.00000000000E+00 0. -1.
</event>
<event>
 7    1  0.2693725E-009  0.1086431E+03  0.7561462E-02  0.1263104E+00
         -2   -1    0    0    0  501 -0.00000000000E+00  0.00000000000E+00  0.27736105531E+02  0.27736105531E+02  0.00000000000E+00 0. -1.
          2   -1    0    0  501    0  0.00000000000E+00 -0.00000000000E+00 -0.44185427600E+03  0.44185427600E+03  0.00000000000E+00 0.  1.
         25    2    1    2    0    0  0.45894956311E+01  0.17606305759E+02 -0.24283232827E+03  0.27376331780E+03  0.12509104303E+03 0.  0.
          5    1    3    3  502    0  0.37053988539E+02  0.59544943150E+02 -0.10828726117E+03  0.12908215079E+03  0.41800000000E+01 0. -1.
         -5    1    3    3    0  502 -0.32464492908E+02 -0.41938637390E+02 -0.13454506710E+03  0.14468116701E+03  0.41800000000E+01 0. -1.
        -11    1    1    2    0    0 -0.45596711078E+02 -0.25240968771E+02 -0.10962455173E+03  0.12138249012E+03  0.00000000000E+00 0.  1.
         11    1    1    2    0    0  0.41007215447E+02  0.76346630120E+01 -0.61661290475E+02  0.74444573617E+02  0.00000000000E+00 0. -1.
</event>
<event>
 7    1  0.2693725E-009  0.1159702E+03  0.7561462E-02  0.1249897E+00
         -2   -1    0    0    0  501 -0.00000000000E+00  0.00000000000E+00  0.17102460935E+02  0.17102460935E+02  0.00000000000E+00 0.  1.
          2   -1    0    0  501    0  0.00000000000E+00 -0.00000000000E+00 -0.92519488909E+03  0.92519488909E+03  0.00000000000E+00 0. -1.
         25    2    1    2    0    0 -0.19398697490E+02 -0.50747007474E+02 -0.38269873181E+03  0.40627242033E+03  0.12508953576E+03 0.  0.
          5    1    3    3  502    0  0.35294648178E+02  0.16331898302E+02 -0.20347878756E+03  0.20720408413E+03  0.41800000000E+01 0. -1.
         -5    1    3    3    0  502 -0.54693345668E+02 -0.67078905776E+02 -0.17921994425E+03  0.19906833620E+03  0.41800000000E+01 0. -1.
        -11    1    1    2    0    0  0.86553587267E+01 -0.26658108120E+02 -0.13142615192E+03  0.13438155890E+03  0.00000000000E+00 0.  1.
         11    1    1    2    0    0  0.10743338763E+02  0.77405115594E+02 -0.39396754442E+03  0.40164337080E+03  0.00000000000E+00 0. -1.
</event>
<event>
 7    1  0.6602277E-009  0.9480300E+02  0.7561462E-02  0.1291620E+00
         -2   -1    0    0    0  501 -0.00000000000E+00  0.00000000000E+00  0.18461910981E+02  0.18461910981E+02  0.00000000000E+00 0. -1.
          2   -1    0    0  501    0  0.00000000000E+00 -0.00000000000E+00 -0.77436012570E+03  0.77436012570E+03  0.00000000000E+00 0.  1.
         25    2    1    2    0    0 -0.25377509367E+02  0.18692946306E+02 -0.55422384520E+03  0.56903874767E+03  0.12509029353E+03 0.  0.
          5    1    3    3  502    0 -0.62528338621E+02  0.40993555274E+02 -0.44841896302E+03  0.45462875349E+03  0.41800000000E+01 0. -1.
         -5    1    3    3    0  502  0.37150829254E+02 -0.22300608967E+02 -0.10580488218E+03  0.11440999417E+03  0.41800000000E+01 0. -1.
        -11    1    1    2    0    0  0.40806875911E+01  0.23540004921E+02 -0.92306997377E+01  0.25612295105E+02  0.00000000000E+00 0. -1.
         11    1    1    2    0    0  0.21296821776E+02 -0.42232951228E+02 -0.19244366978E+03  0.19817099391E+03  0.00000000000E+00 0.  1.
</event>
<event>
 7    1  0.2693725E-009  0.9499655E+02  0.7561462E-02  0.1291184E+00
          1   -1    0    0  501    0  0.00000000000E+00  0.00000000000E+00  0.44065267696E+02  0.44065267696E+02  0.00000000000E+00 0. -1.
         -1   -1    0    0    0  501 -0.00000000000E+00 -0.00000000000E+00 -0.26478708070E+03  0.26478708070E+03  0.00000000000E+00 0.  1.
         25    2    1    2    0    0 -0.20487316266E+02 -0.53975841943E+01 -0.93005772273E+02  0.15730840682E+03  0.12508795760E+03 0.  0.
          5    1    3    3  502    0  0.31524774891E+02  0.32974336803E+02 -0.78569546333E+02  0.90949240407E+02  0.41800000000E+01 0. -1.
         -5    1    3    3    0  502 -0.52012091158E+02 -0.38371920997E+02 -0.14436225940E+02  0.66359166412E+02  0.41800000000E+01 0. -1.
        -11    1    1    2    0    0  0.49820200158E+02  0.17147677319E+01 -0.96096641016E+02  0.10825690364E+03  0.00000000000E+00 0.  1.
         11    1    1    2    0    0 -0.29332883891E+02  0.36828164624E+01 -0.31619399710E+02  0.43287037927E+02  0.00000000000E+00 0. -1.
</event>
<event>
 7    1  0.2693725E-009  0.1108672E+03  0.7561462E-02  0.1258972E+00
         -3   -1    0    0    0  501 -0.00000000000E+00  0.00000000000E+00  0.40265400378E+03  0.40265400378E+03  0.00000000000E+00 0.  1.
          3   -1    0    0  501    0  0.00000000000E+00 -0.00000000000E+00 -0.44086729371E+02  0.44086729371E+02  0.00000000000E+00 0. -1.
         25    2    1    2    0    0  0.43886614960E+02  0.37310826504E+02  0.28043027643E+03  0.31242162026E+03  0.12509195067E+03 0.  0.
          5    1    3    3  502    0  0.31608702432E+02 -0.44003217463E+02  0.13063940303E+03  0.14149035034E+03  0.41800000000E+01 0. -1.
         -5    1    3    3    0  502  0.12277912528E+02  0.81314043967E+02  0.14979087340E+03  0.17093126992E+03  0.41800000000E+01 0. -1.
        -11    1    1    2    0    0  0.22034200748E+00 -0.40806279146E+02  0.80243826917E+02  0.90023734241E+02  0.00000000000E+00 0.  1.
         11    1    1    2    0    0 -0.44106956968E+02  0.34954526423E+01 -0.21068289294E+01  0.44295378656E+02  0.00000000000E+00 0. -1.
</event>
<event>
 7    1  0.2693725E-009  0.1319068E+03  0.7561462E-02  0.1224654E+00
         -2   -1    0    0    0  501 -0.00000000000E+00  0.00000000000E+00  0.37949415372E+02  0.37949415372E+02  0.00000000000E+00 0. -1.
          2   -1    0    0  501    0  0.00000000000E+00 -0.00000000000E+00 -0.48375334990E+03  0.48375334990E+03  0.00000000000E+00 0.  1.
         25    2    1    2    0    0 -0.26231429650E+02 -0.61516129772E+02 -0.22283258323E+03  0.26414664253E+03  0.12508703563E+03 0.  0.
          5    1    3    3  502    0 -0.11785772910E+02  0.38092526224E+02 -0.78354309183E+02  0.88015993801E+02  0.41800000000E+01 0.  1.
         -5    1    3    3    0  502 -0.14445656741E+02 -0.99608655996E+02 -0.14447827405E+03  0.17613064873E+03  0.41800000000E+01 0.  1.
        -11    1    1    2    0    0  0.66340571491E+02  0.40026649835E+02 -0.10046291345E+03  0.12687001656E+03  0.00000000000E+00 0. -1.
         11    1    1    2    0    0 -0.40109141841E+02  0.21489479937E+02 -0.12250843785E+03  0.13068610619E+03  0.00000000000E+00 0.  1.
</event>
<event>
 7    1  0.3254204E-009  0.1344401E+03  0.7561462E-02  0.1221012E+00
          2   -1    0    0  501    0  0.00000000000E+00  0.00000000000E+00  0.34233555055E+03  0.34233555055E+03  0.00000000000E+00 0. -1.
         -2   -1    0    0    0  501 -0.00000000000E+00 -0.00000000000E+00 -0.71038717635E+02  0.71038717635E+02  0.00000000000E+00 0.  1.
         25    2    1    2    0    0  0.11114356077E+03  0.11448337049E+02  0.14004072280E+03  0.21849923014E+03  0.12508618632E+03 0.  0.
          5    1    3    3  502    0  0.11152683549E+03  0.21778446898E+02  0.15961198402E+03  0.19597447188E+03  0.41800000000E+01 0.  1.
         -5    1    3    3    0  502 -0.38327471497E+00 -0.10330109850E+02 -0.19571261223E+02  0.22524758265E+02  0.41800000000E+01 0.  1.
        -11    1    1    2    0    0 -0.79093523147E+02  0.35887368191E+02  0.77474207481E+02  0.11638703289E+03  0.00000000000E+00 0.  1.
         11    1    1    2    0    0 -0.32050037628E+02 -0.47335705239E+02  0.53781902634E+02  0.78488005156E+02  0.00000000000E+00 0. -1.
</event>
<event>
 7    1  0.2693725E-009  0.8579860E+02  0.7561462E-02  0.1313357E+00
         -3   -1    0    0    0  501 -0.00000000000E+00  0.00000000000E+00  0.52723804928E+02  0.52723804928E+02  0.00000000000E+00 0.  1.
          3   -1    0    0  501    0  0.00000000000E+00 -0.00000000000E+00 -0.45470030825E+03  0.45470030825E+03  0.00000000000E+00 0. -1.
         25    2    1    2    0    0  0.65550727139E+02  0.10897398245E+02 -0.35958403375E+03  0.38647266640E+03  0.12507914868E+03 0.  0.
          5    1    3    3  502    0 -0.46933832173E+01 -0.20981856917E+02 -0.35928109606E+01  0.22195649490E+02  0.41800000000E+01 0. -1.
         -5    1    3    3    0  502  0.70244110356E+02  0.31879255162E+02 -0.35599122279E+03  0.36427701691E+03  0.41800000000E+01 0. -1.
        -11    1    1    2    0    0 -0.48625392251E+02  0.54260168673E+01 -0.69545466640E+02  0.85032007860E+02  0.00000000000E+00 0. -1.
         11    1    1    2    0    0 -0.16925334888E+02 -0.16323415112E+02  0.27152997068E+02  0.35919438912E+02  0.00000000000E+00 0.  1.
</event>
<event>
 7    1  0.2693725E-009  0.1006213E+03  0.7561462E-02  0.1278995E+00
         -2   -1    0    0    0  501 -0.00000000000E+00  0.00000000000E+00  0.22702618634E+02  0.22702618634E+02  0.00000000000E+00 0.  1.
          2   -1    0    0  501    0  0.00000000000E+00 -0.00000000000E+00 -0.57308399972E+03  0.57308399972E+03  0.00000000000E+00 0. -1.
         25    2    1    2    0    0  0.12142818995E+02 -0.23102955838E+02 -0.38961026673E+03  0.41003175654E+03  0.12509471135E+03 0.  0.
          5    1    3    3  502    0  0.62975611510E+02  0.13152855611E+02 -0.21971629887E+03  0.22897958347E+03  0.41800000000E+01 0. -1.
         -5    1    3    3    0  502 -0.50832792515E+02 -0.36255811449E+02 -0.16989396786E+03  0.18105217307E+03  0.41800000000E+01 0. -1.
        -11    1    1    2    0    0 -0.14981577598E+02  0.47411097190E+02 -0.43835920752E+02  0.66286105273E+02  0.00000000000E+00 0.  1.
         11    1    1    2    0    0  0.28387586030E+01 -0.24308141352E+02 -0.11693519361E+03  0.11946875654E+03  0.00000000000E+00 0. -1.
</event>
<event>
 7    1  0.2693725E-009  0.1075113E+03  0.7561462E-02  0.1265249E+00
         -3   -1    0    0    0  501 -0.00000000000E+00  0.00000000000E+00  0.11375097351E+03  0.11375097351E+03  0.00000000000E+00 0.  1.
          3   -1    0    0  501    0  0.00000000000E+00 -0.00000000000E+00 -0.12569505955E+03  0.12569505955E+03  0.00000000000E+00 0. -1.
         25    2    1    2    0    0  0.37692282586E+02 -0.31757122443E+02 -0.17692630316E+02  0.13560913314E+03  0.12509030670E+03 0.  0.
          5    1    3    3  502    0 -0.34353457936E+02 -0.35620136623E+02  0.20664422815E+02  0.53790751766E+02  0.41800000000E+01 0. -1.
         -5    1    3    3    0  502  0.72045740522E+02  0.38630141797E+01 -0.38357053132E+02  0.81818381375E+02  0.41800000000E+01 0. -1.
        -11    1    1    2    0    0 -0.36873456008E+02 -0.19577230519E+02  0.25394980150E+02  0.48865373524E+02  0.00000000000E+00 0.  1.
         11    1    1    2    0    0 -0.81882657809E+00  0.51334352963E+02 -0.19646435873E+02  0.54971526389E+02  0.00000000000E+00 0. -1.
</event>
<event>
 7    1  0.2693725E-009  0.2947190E+03  0.7561462E-02  0.1087911E+00
         -2   -1    0    0    0  501 -0.00000000000E+00  0.00000000000E+00  0.44859405629E+03  0.44859405629E+03  0.00000000000E+00 0.  1.
          2   -1    0    0  501    0  0.00000000000E+00 -0.00000000000E+00 -0.22650570615E+03  0.22650570615E+03  0.00000000000E+00 0. -1.
         25    2    1    2    0    0 -0.17242887010E+03 -0.22982655088E+03  0.24524052016E+02  0.31432740589E+03  0.12509328612E+03 0.  0.
          5    1    3    3  502    0 -0.14023150490E+02 -0.20676685144E+02  0.44462063900E+02  0.51171491912E+02  0.41800000000E+01 0. -1.
         -5    1    3    3    0  502 -0.15840571961E+03 -0.20914986574E+03 -0.19938011884E+02  0.26315591398E+03  0.41800000000E+01 0. -1.
        -11    1    1    2    0    0  0.18349154463E+03  0.20895167474E+03  0.18517970909E+03  0.33409800057E+03  0.00000000000E+00 0. -1.
         11    1    1    2    0    0 -0.11062674527E+02  0.20874876140E+02  0.12384589030E+02  0.26674355981E+02  0.00000000000E+00 0.  1.
</event>
<event>
 7    1  0.2693725E-009  0.1374736E+03  0.7561462E-02  0.1216769E+00
          1   -1    0    0  501    0  0.00000000000E+00  0.00000000000E+00  0.16891720666E+04  0.16891720666E+04  0.00000000000E+00 0. -1.
         -1   -1    0    0    0  501 -0.00000000000E+00 -0.00000000000E+00 -0.12843223176E+02  0.12843223176E+02  0.00000000000E+00 0.  1.
         25    2    1    2    0    0  0.83597863823E+01 -0.88218238225E+02  0.98188631416E+03  0.99378169435E+03  0.12509587725E+03 0.  0.
          5    1    3    3  502    0 -0.44177212417E+02 -0.64355815854E+02  0.32154039342E+03  0.33090632229E+03  0.41800000000E+01 0.  1.
         -5    1    3    3    0  502  0.52536998800E+02 -0.23862422371E+02  0.66034592075E+03  0.66287537207E+03  0.41800000000E+01 0.  1.
        -11    1    1    2    0    0 -0.57732510188E+02  0.51887144428E+02  0.37096537448E+03  0.37899950865E+03  0.00000000000E+00 0.  1.
         11    1    1    2    0    0  0.49372723805E+02  0.36331093797E+02  0.32347715481E+03  0.32923408681E+03  0.00000000000E+00 0. -1.
</event>
<event>
 7    1  0.2693725E-009  0.1504127E+03  0.7561462E-02  0.1199967E+00
         -2   -1    0    0    0  501 -0.00000000000E+00  0.00000000000E+00  0.32183125163E+02  0.32183125163E+02  0.00000000000E+00 0.  1.
          2   -1    0    0  501    0  0.00000000000E+00 -0.00000000000E+00 -0.11855904412E+04  0.11855904412E+04  0.00000000000E+00 0. -1.
         25    2    1    2    0    0  0.10704917093E+03  0.70019080034E+02 -0.92918008049E+03  0.94624823328E+03  0.12509156820E+03 0.  0.
          5    1    3    3  502    0 -0.50815869847E+01  0.28639744109E+02 -0.49577377310E+03  0.49664390056E+03  0.41800000000E+01 0.  1.
         -5    1    3    3    0  502  0.11213075792E+03  0.41379335925E+02 -0.43340630739E+03  0.44960433271E+03  0.41800000000E+01 0.  1.
        -11    1    1    2    0    0  0.65277630349E+01 -0.31109809974E+02 -0.62362982039E+02  0.69996953474E+02  0.00000000000E+00 0. -1.
         11    1    1    2    0    0 -0.11357693397E+03 -0.38909270060E+02 -0.16186425352E+03  0.20152837962E+03  0.00000000000E+00 0.  1.
</event>
<event>
 7    1  0.2693725E-009  0.1147619E+03  0.7561462E-02  0.1251997E+00
          2   -1    0    0  501    0  0.00000000000E+00  0.00000000000E+00  0.20076270767E+04  0.20076270767E+04  0.00000000000E+00 0.  1.
         -2   -1    0    0    0  501 -0.00000000000E+00 -0.00000000000E+00 -0.13791115061E+02  0.13791115061E+02  0.00000000000E+00 0. -1.
         25    2    1    2    0    0 -0.42088153720E+02  0.50029482646E+02  0.17620584642E+04  0.17677011999E+04  0.12507253492E+03 0.  0.
          5    1    3    3  502    0  0.17278111379E+02  0.72439838678E+02  0.11273869044E+04  0.11298516575E+04  0.41800000000E+01 0. -1.
         -5    1    3    3    0  502 -0.59366265099E+02 -0.22410356032E+02  0.63467155981E+03  0.63784954239E+03  0.41800000000E+01 0. -1.
        -11    1    1    2    0    0  0.13756313242E+02  0.15033674886E+02  0.11708954805E+03  0.11884952586E+03  0.00000000000E+00 0.  1.
         11    1    1    2    0    0  0.28331840478E+02 -0.65063157531E+02  0.11468794933E+03  0.13486746596E+03  0.00000000000E+00 0. -1.
</event>
<event>
 7    1  0.2693725E-009  0.1177623E+03  0.7561462E-02  0.1246835E+00
          1   -1    0    0  501    0  0.00000000000E+00  0.00000000000E+00  0.41948832979E+02  0.41948832979E+02  0.00000000000E+00 0. -1.
         -1   -1    0    0    0  501 -0.00000000000E+00 -0.00000000000E+00 -0.41609680396E+03  0.41609680396E+03  0.00000000000E+00 0.  1.
         25    2    1    2    0    0  0.45250779747E+02  0.49237441686E+02 -0.30187274827E+03  0.33353677006E+03  0.12509061556E+03 0.  0.
          5    1    3    3  502    0 -0.18261167795E+02  0.68684674652E+02 -0.19549722132E+03  0.20805694106E+03  0.41800000000E+01 0. -1.
         -5    1    3    3    0  502  0.63511947542E+02 -0.19447232966E+02 -0.10637552696E+03  0.12547982900E+03  0.41800000000E+01 0. -1.
        -11    1    1    2    0    0 -0.36231495209E+02  0.10215357964E+02 -0.12358673422E+02  0.39620847949E+02  0.00000000000E+00 0.  1.
         11    1    1    2    0    0 -0.90192845381E+01 -0.59452799650E+02 -0.59916549290E+02  0.84888018934E+02  0.00000000000E+00 0. -1.
</event>
<event>
 7    1  0.2693725E-009  0.1164446E+03  0.7561462E-02  0.1249080E+00
          1   -1    0    0  501    0  0.00000000000E+00  0.00000000000E+00  0.10272883747E+04  0.10272883747E+04  0.00000000000E+00 0. -1.
         -1   -1    0    0    0  501 -0.00000000000E+00 -0.00000000000E+00 -0.23728897876E+02  0.23728897876E+02  0.00000000000E+00 0.  1.
         25    2    1    2    0    0 -0.73922988890E+02  0.26447234300E+02  0.80460685322E+03  0.81804994893E+03  0.12509782659E+03 0.  0.
          5    1    3    3  502    0  0.40711805848E+01 -0.20071223639E+02  0.22628780008E+02  0.30805236801E+02  0.41800000000E+01 0.  1.
         -5    1    3    3    0  502 -0.77994169475E+02  0.46518457939E+02  0.78197807321E+03  0.78724471213E+03  0.41800000000E+01 0.  1.
        -11    1    1    2    0    0 -0.16115331055E+02 -0.26527770822E+02  0.46368679803E+02  0.55798575129E+02  0.00000000000E+00 0.  1.
         11    1    1    2    0    0  0.90038319945E+02  0.80536521894E-01  0.15258394384E+03  0.17716874855E+03  0.00000000000E+00 0. -1.
</event>
<event>
 7    1  0.2693725E-009  0.2619334E+03  0.7561462E-02  0.1105987E+00
         -1   -1    0    0    0  501 -0.00000000000E+00  0.00000000000E+00  0.30729585992E+03  0.30729585992E+03  0.00000000000E+00 0.  1.
          1   -1    0    0  501    0  0.00000000000E+00 -0.00000000000E+00 -0.24621288690E+03  0.24621288690E+03  0.00000000000E+00 0. -1.
         25    2    1    2    0    0 -0.23601082279E+03  0.51029757184E+02 -0.43715875080E+02  0.27543466154E+03  0.12509208789E+03 0.  0.
          5    1    3    3  502    0 -0.36774542096E+01  0.34605325513E+02 -0.22207022039E+02  0.41493089198E+02  0.41800000000E+01 0.  1.
         -5    1    3    3    0  502 -0.23233336858E+03  0.16424431671E+02 -0.21508853041E+02  0.23394157234E+03  0.41800000000E+01 0.  1.
        -11    1    1    2    0    0  0.76675320550E+02 -0.58364719452E+02  0.24157596572E+02  0.99343518814E+02  0.00000000000E+00 0. -1.
         11    1    1    2    0    0  0.15933550223E+03  0.73349622687E+01  0.80641251523E+02  0.17873056647E+03  0.00000000000E+00 0.  1.
</event>
<event>
 7    1  0.2693725E-009  0.8279129E+02  0.7561462E-02  0.1321312E+00
          1   -1    0    0  501    0  0.00000000000E+00  0.00000000000E+00  0.11531643008E+02  0.11531643008E+02  0.00000000000E+00 0. -1.
         -1   -1    0    0    0  501 -0.00000000000E+00 -0.00000000000E+00 -0.98458049772E+03  0.98458049772E+03  0.00000000000E+00 0.  1.
         25    2    1    2    0    0  0.29900998335E+01 -0.54764157824E+01 -0.60713574639E+03  0.61991941925E+03  0.12508932805E+03 0.  0.
          5    1    3    3  502    0  0.34209930269E+02 -0.27121246788E+02 -0.78629107991E+02  0.90032718385E+02  0.41800000000E+01 0.  1.
         -5    1    3    3    0  502 -0.31219830435E+02  0.21644831006E+02 -0.52850663840E+03  0.52988670086E+03  0.41800000000E+01 0.  1.
        -11    1    1    2    0    0 -0.19910786478E+02 -0.34648154820E+02 -0.12070884422E+03  0.12715171695E+03  0.00000000000E+00 0. -1.
         11    1    1    2    0    0  0.16920686645E+02  0.40124570603E+02 -0.24520426410E+03  0.24904100453E+03  0.00000000000E+00 0.  1.
</event>
<event>
 7    1  0.2693725E-009  0.9205659E+02  0.7561462E-02  0.1297946E+00
          3   -1    0    0  501    0  0.00000000000E+00  0.00000000000E+00  0.94004695643E+02  0.94004695643E+02  0.00000000000E+00 0. -1.
         -3   -1    0    0    0  501 -0.00000000000E+00 -0.00000000000E+00 -0.18018652709E+03  0.18018652709E+03  0.00000000000E+00 0.  1.
         25    2    1    2    0    0  0.51992710161E+02  0.33310342406E+02 -0.10230359157E+02  0.13988169193E+03  0.12509758858E+03 0.  0.
          5    1    3    3  502    0 -0.24300579970E+02 -0.55928155898E+01 -0.41517342502E+02  0.48610285964E+02  0.41800000000E+01 0. -1.
         -5    1    3    3    0  502  0.76293290131E+02  0.38903157996E+02  0.31286983345E+02  0.91271405971E+02  0.41800000000E+01 0. -1.
        -11    1    1    2    0    0 -0.12217987029E+02  0.88804865533E+01 -0.74804943951E+02  0.76314624338E+02  0.00000000000E+00 0.  1.
         11    1    1    2    0    0 -0.39774723132E+02 -0.42190828959E+02 -0.11465283439E+01  0.57994906464E+02  0.00000000000E+00 0. -1.
</event>
<event>
 7    1  0.2693725E-009  0.1037831E+03  0.7561462E-02  0.1272536E+00
         -1   -1    0    0    0  501 -0.00000000000E+00  0.00000000000E+00  0.68322063146E+02  0.68322063146E+02  0.00000000000E+00 0.  1.
          1   -1    0    0  501    0  0.00000000000E+00 -0.00000000000E+00 -0.32001734157E+03  0.32001734157E+03  0.00000000000E+00 0. -1.
         25    2    1    2    0    0 -0.45260602441E+01 -0.72772734784E+02 -0.22756817377E+03  0.26972498426E+03  0.12509171543E+03 0.  0.
          5    1    3    3  502    0 -0.45572533052E+02  0.55169760447E+01 -0.13035088836E+03  0.13826105485E+03  0.41800000000E+01 0.  1.
         -5    1    3    3    0  502  0.41046472808E+02 -0.78289710829E+02 -0.97217285417E+02  0.13146392941E+03  0.41800000000E+01 0.  1.
        -11    1    1    2    0    0  0.47601136160E+01  0.56412645362E+02  0.28585685178E+02  0.63420711408E+02  0.00000000000E+00 0.  1.
         11    1    1    2    0    0 -0.23405337195E+00  0.16360089422E+02 -0.52712789830E+02  0.55193709049E+02  0.00000000000E+00 0. -1.
</event>
<event>
 7    1  0.2693725E-009  0.1612775E+03  0.7561462E-02  0.1187262E+00
          1   -1    0    0  501    0  0.00000000000E+00  0.00000000000E+00  0.20112369842E+03  0.20112369842E+03  0.00000000000E+00 0. -1.
         -1   -1    0    0    0  501 -0.00000000000E+00 -0.00000000000E+00 -0.13452224738E+03  0.13452224738E+03  0.00000000000E+00 0.  1.
         25    2    1    2    0    0  0.47186228090E+02 -0.11002073303E+03  0.10956797963E+02  0.17349048140E+03  0.12509114237E+03 0.  0.
          5    1    3    3  502    0  0.35471792735E+02  0.19344839272E+02 -0.10043145467E+02  0.41842658343E+02  0.41800000000E+01 0. -1.
         -5    1    3    3    0  502  0.11714435354E+02 -0.12936557230E+03  0.20999943430E+02  0.13164782306E+03  0.41800000000E+01 0. -1.
        -11    1    1    2    0    0  0.76873521348E+01  0.94685838906E+02  0.39962098536E+02  0.10306052975E+03  0.00000000000E+00 0. -1.
         11    1    1    2    0    0 -0.54873580225E+02  0.15334894125E+02  0.15682554540E+02  0.59094934651E+02  0.00000000000E+00 0.  1.
</event>
<event>
 7    1  0.2693725E-009  0.1246426E+03  0.7561462E-02  0.1235629E+00
          1   -1    0    0  501    0  0.00000000000E+00  0.00000000000E+00  0.15670669413E+03  0.15670669413E+03  0.00000000000E+00 0. -1.
         -1   -1    0    0    0  501 -0.00000000000E+00 -0.00000000000E+00 -0.11630894850E+03  0.11630894850E+03  0.00000000000E+00 0.  1.
         25    2    1    2    0    0  0.32447877897E+02 -0.72450020116E+02  0.11903376180E+02  0.14863082901E+03  0.12509021853E+03 0.  0.
          5    1    3    3  502    0  0.33756363465E+02 -0.97307801674E+02  0.40262930635E+02  0.11066560588E+03  0.41800000000E+01 0. -1.
         -5    1    3    3    0  502 -0.13084855683E+01  0.24857781558E+02 -0.28359554456E+02  0.37965223131E+02  0.41800000000E+01 0. -1.
        -11    1    1    2    0    0 -0.19097514626E+02  0.93831840717E+02  0.24734141646E+02  0.98898468947E+02  0.00000000000E+00 0. -1.
         11    1    1    2    0    0 -0.13350363271E+02 -0.21381820601E+02  0.37602278006E+01  0.25486344673E+02  0.00000000000E+00 0.  1.
</event>
<event>
 7    1  0.2693725E-009  0.1014622E+03  0.7561462E-02  0.1277251E+00
          2   -1    0    0  501    0  0.00000000000E+00  0.00000000000E+00  0.10138691176E+04  0.10138691176E+04  0.00000000000E+00 0. -1.
         -2   -1    0    0    0  501 -0.00000000000E+00 -0.00000000000E+00 -0.15463274364E+02  0.15463274364E+02  0.00000000000E+00 0.  1.
         25    2    1    2    0    0  0.24934901338E+02 -0.14451692820E+02  0.77715933264E+03  0.78768919680E+03  0.12508813577E+03 0.  0.
          5    1    3    3  502    0 -0.46274335511E+02 -0.11746686900E+02  0.17970667819E+03  0.18598726130E+03  0.41800000000E+01 0.  1.
         -5    1    3    3    0  502  0.71209236849E+02 -0.27050059204E+01  0.59745265446E+03  0.60170193550E+03  0.41800000000E+01 0.  1.
        -11    1    1    2    0    0 -0.11043501148E+00 -0.31440433469E+02  0.30182876184E+02  0.43583472411E+02  0.00000000000E+00 0.  1.
         11    1    1    2    0    0 -0.24824466326E+02  0.45892126290E+02  0.19106363440E+03  0.19805972274E+03  0.00000000000E+00 0. -1.
</event>
<event>
 7    1  0.2693725E-009  0.1261523E+03  0.7561462E-02  0.1233279E+00
         -2   -1    0    0    0  501 -0.00000000000E+00  0.00000000000E+00  0.32772531754E+02  0.32772531754E+02  0.00000000000E+00 0.  1.
          2   -1    0    0  501    0  0.00000000000E+00 -0.00000000000E+00 -0.64837429184E+03  0.64837429184E+03  0.00000000000E+00 0. -1.
         25    2    1    2    0    0 -0.87952443805E+01  0.89511677920E+02 -0.41962591352E+03  0.44701166176E+03  0.12507526392E+03 0.  0.
          5    1    3    3  502    0  0.17119312767E+02  0.10981659647E+03 -0.24230436537E+03  0.26661139061E+03  0.41800000000E+01 0. -1.
         -5    1    3    3    0  502 -0.25914557147E+02 -0.20304918550E+02 -0.17732154816E+03  0.18040027115E+03  0.41800000000E+01 0. -1.
        -11    1    1    2    0    0 -0.15104935224E+02  0.14867799165E+00  0.22440555550E+01  0.15271442584E+02  0.00000000000E+00 0.  1.
         11    1    1    2    0    0  0.23900179605E+02 -0.89660355911E+02 -0.19821990211E+03  0.21886371924E+03  0.00000000000E+00 0. -1.
</event>
<event>
 7    1  0.2693725E-009  0.1100839E+03  0.7561462E-02  0.1260415E+00
         -2   -1    0    0    0  501 -0.00000000000E+00  0.00000000000E+00  0.53156309342E+02  0.53156309342E+02  0.00000000000E+00 0.  1.
          2   -1    0    0  501    0  0.00000000000E+00 -0.00000000000E+00 -0.23900944725E+03  0.23900944725E+03  0.00000000000E+00 0. -1.
         25    2    1    2    0    0  0.11361741592E+02  0.28081532584E+02 -0.11666691888E+03  0.17371411709E+03  0.12509101835E+03 0.  0.
          5    1    3    3  502    0 -0.27140736345E+02  0.67669338611E+02 -0.72147912888E+02  0.10265745317E+03  0.41800000000E+01 0.  1.
         -5    1    3    3    0  502  0.38502477937E+02 -0.39587806027E+02 -0.44519005989E+02  0.71056663921E+02  0.41800000000E+01 0.  1.
        -11    1    1    2    0    0 -0.49261481653E+02 -0.12837957400E+02 -0.20453659823E+02  0.54862181191E+02  0.00000000000E+00 0. -1.
         11    1    1    2    0    0  0.37899740061E+02 -0.15243575184E+02 -0.48732559203E+02  0.63589458305E+02  0.00000000000E+00 0.  1.
</event>
<event>
 7    1  0.2693725E-009  0.1033785E+03  0.7561462E-02  0.1273348E+00
         -3   -1    0    0    0  501 -0.00000000000E+00  0.00000000000E+00  0.84608411413E+02  0.84608411413E+02  0.00000000000E+00 0.  1.
          3   -1    0    0  501    0  0.00000000000E+00 -0.00000000000E+00 -0.26064734689E+03  0.26064734689E+03  0.00000000000E+00 0. -1.
         25    2    1    2    0    0  0.60397564004E+02  0.24271030878E+02 -0.51254393540E+01  0.14110397055E+03  0.12508841553E+03 0.  0.
          5    1    3    3  502    0  0.30036347657E+02 -0.51137219724E+02 -0.54779922261E+01  0.59704926267E+02  0.41800000000E+01 0.  1.
         -5    1    3    3    0  502  0.30361216347E+02  0.75408250602E+02  0.35255287214E+00  0.81399044284E+02  0.41800000000E+01 0.  1.
        -11    1    1    2    0    0 -0.24250923926E+02 -0.43663194482E+01  0.35315202372E+01  0.24892643330E+02  0.00000000000E+00 0.  1.
         11    1    1    2    0    0 -0.36146640078E+02 -0.19904711429E+02 -0.17444501636E+03  0.17925914442E+03  0.00000000000E+00 0. -1.
</event>
<event>
 7    1  0.2693725E-009  0.9681502E+02  0.7561462E-02  0.1287140E+00
          3   -1    0    0  501    0  0.00000000000E+00  0.00000000000E+00  0.46718209140E+03  0.46718209140E+03  0.00000000000E+00 0. -1.
         -3   -1    0    0    0  501 -0.00000000000E+00 -0.00000000000E+00 -0.26653245631E+02  0.26653245631E+02  0.00000000000E+00 0.  1.
         25    2    1    2    0    0 -0.16242769180E+02  0.11427756875E+02  0.20300682212E+03  0.23927622653E+03  0.12508765558E+03 0.  0.
          5    1    3    3  502    0 -0.49262772492E+02 -0.33843460750E+02  0.15202458457E+03  0.16340485703E+03  0.41800000000E+01 0.  1.
         -5    1    3    3    0  502  0.33020003312E+02  0.45271217626E+02  0.50982237549E+02  0.75871369498E+02  0.41800000000E+01 0.  1.
        -11    1    1    2    0    0 -0.18003739912E+02  0.22837965990E+02  0.16368254873E+03  0.16624585439E+03  0.00000000000E+00 0. -1.
         11    1    1    2    0    0  0.34246509092E+02 -0.34265722865E+02  0.73839474916E+02  0.88313256108E+02  0.00000000000E+00 0.  1.
</event>
<event>
 7    1  0.2693725E-009  0.1324996E+03  0.7561462E-02  0.1223793E+00
         -2   -1    0    0    0  501 -0.00000000000E+00  0.00000000000E+00  0.11690269425E+03  0.11690269425E+03  0.00000000000E+00 0.  1.
          2   -1    0    0  501    0  0.00000000000E+00 -0.00000000000E+00 -0.19495258596E+03  0.19495258596E+03  0.00000000000E+00 0. -1.
         25    2    1    2    0    0 -0.90227681196E+02  0.79785972588E+00  0.14871730192E+02  0.15495252576E+03  0.12508975116E+03 0.  0.
          5    1    3    3  502    0 -0.49437566654E+02  0.61533098955E+02 -0.44456781392E+01  0.79168375743E+02  0.41800000000E+01 0.  1.
         -5    1    3    3    0  502 -0.40790114542E+02 -0.60735239229E+02  0.19317408332E+02  0.75784150014E+02  0.41800000000E+01 0.  1.
        -11    1    1    2    0    0  0.30801046469E+02  0.32317554665E+02 -0.73771019211E+02  0.86228139714E+02  0.00000000000E+00 0. -1.
         11    1    1    2    0    0  0.59426634727E+02 -0.33115414391E+02 -0.19150602685E+02  0.70674614739E+02  0.00000000000E+00 0.  1.
</event>
<event>
 7    1  0.2693725E-009  0.9044639E+02  0.7561462E-02  0.1301774E+00
         -2   -1    0    0    0  501 -0.00000000000E+00  0.00000000000E+00  0.33285018693E+02  0.33285018693E+02  0.00000000000E+00 0.  1.
          2   -1    0    0  501    0  0.00000000000E+00 -0.00000000000E+00 -0.56151800917E+03  0.56151800917E+03  0.00000000000E+00 0. -1.
         25    2    1    2    0    0 -0.46838533696E+02  0.30636553292E+02 -0.18244598193E+03  0.22818548643E+03  0.12509849422E+03 0.  0.
          5    1    3    3  502    0 -0.41720298825E+02  0.13166959755E+02 -0.19865316215E+03  0.20345639188E+03  0.41800000000E+01 0. -1.
         -5    1    3    3    0  502 -0.51182348707E+01  0.17469593537E+02  0.16207180218E+02  0.24729094548E+02  0.41800000000E+01 0. -1.
        -11    1    1    2    0    0 -0.19668802544E+02  0.24822711116E+02 -0.57991822222E+02  0.66076321215E+02  0.00000000000E+00 0.  1.
         11    1    1    2    0    0  0.66507336240E+02 -0.55459264408E+02 -0.28779518633E+03  0.30054122023E+03  0.00000000000E+00 0. -1.
</event>
<event>
 7    1  0.2693725E-009  0.1992403E+03  0.7561462E-02  0.1150382E+00
          2   -1    0    0  501    0  0.00000000000E+00  0.00000000000E+00  0.58404153941E+03  0.58404153941E+03  0.00000000000E+00 0. -1.
         -2   -1    0    0    0  501 -0.00000000000E+00 -0.00000000000E+00 -0.80948110783E+02  0.80948110783E+02  0.00000000000E+00 0.  1.
         25    2    1    2    0    0  0.14973390170E+03  0.10143475427E+03  0.18389204232E+03  0.28666307273E+03  0.12510069282E+03 0.  0.
          5    1    3    3  502    0 -0.19909407212E+02  0.21816383380E+02  0.11411918805E+02  0.31938117824E+02  0.41800000000E+01 0. -1.
         -5    1    3    3    0  502  0.16964330891E+03  0.79618370887E+02  0.17248012352E+03  0.25472495490E+03  0.41800000000E+01 0. -1.
        -11    1    1    2    0    0 -0.89204094860E+02 -0.53712961099E+02  0.93929077333E+02  0.14023239390E+03  0.00000000000E+00 0.  1.
         11    1    1    2    0    0 -0.60529806842E+02 -0.47721793168E+02  0.22527230897E+03  0.23809418357E+03  0.00000000000E+00 0. -1.
</event>
<event>
 7    1  0.2693725E-009  0.8910054E+02  0.7561462E-02  0.1305045E+00
         -2   -1    0    0    0  501 -0.00000000000E+00  0.00000000000E+00  0.15897187673E+03  0.15897187673E+03  0.00000000000E+00 0.  1.
          2   -1    0    0  501    0  0.00000000000E+00 -0.00000000000E+00 -0.11401800156E+03  0.11401800156E+03  0.00000000000E+00 0. -1.
         25    2    1    2    0    0 -0.16336595603E+02 -0.12343352473E+02  0.10574515252E+03  0.16506976176E+03  0.12508695480E+03 0.  0.
          5    1    3    3  502    0  0.99241737570E+01 -0.62361935942E+02  0.82162256537E+02  0.10370925262E+03  0.41800000000E+01 0. -1.
         -5    1    3    3    0  502 -0.26260769360E+02  0.50018583469E+02  0.23582895981E+02  0.61360509144E+02  0.41800000000E+01 0. -1.
        -11    1    1    2    0    0  0.28850636472E+02 -0.11724331608E+02  0.95142156367E+01  0.32562854231E+02  0.00000000000E+00 0.  1.
         11    1    1    2    0    0 -0.12514040868E+02  0.24067684081E+02 -0.70305492988E+02  0.75357262292E+02  0.00000000000E+00 0. -1.
</event>
<event>
 7    1  0.2693725E-009  0.1055963E+03  0.7561462E-02  0.1268949E+00
          1   -1    0    0  501    0  0.00000000000E+00  0.00000000000E+00  0.26366053852E+03  0.26366053852E+03  0.00000000000E+00 0. -1.
         -1   -1    0    0    0  501 -0.00000000000E+00 -0.00000000000E+00 -0.76002082363E+02  0.76002082363E+02  0.00000000000E+00 0.  1.
         25    2    1    2    0    0 -0.42060541786E+02 -0.10241736454E+02  0.67969863372E+01  0.13254346640E+03  0.12509032385E+03 0.  0.
          5    1    3    3  502    0 -0.77980580917E+02  0.24395642193E+02  0.96849752477E+01  0.82385614665E+02  0.41800000000E+01 0. -1.
         -5    1    3    3    0  502  0.35920039132E+02 -0.34637378646E+02 -0.28879889105E+01  0.50157851735E+02  0.41800000000E+01 0. -1.
        -11    1    1    2    0    0  0.21311741092E+02  0.38643158721E+02  0.32926662545E+02  0.55060413462E+02  0.00000000000E+00 0.  1.
         11    1    1    2    0    0  0.20748800694E+02 -0.28401422267E+02  0.14793480727E+03  0.15205874102E+03  0.00000000000E+00 0. -1.
</event>
<event>
 7    1  0.2693725E-009  0.1277372E+03  0.7561462E-02  0.1230852E+00
          2   -1    0    0  501    0  0.00000000000E+00  0.00000000000E+00  0.40251077120E+03  0.40251077120E+03  0.00000000000E+00 0. -1.
         -2   -1    0    0    0  501 -0.00000000000E+00 -0.00000000000E+00 -0.64732285775E+02  0.64732285775E+02  0.00000000000E+00 0.  1.
         25    2    1    2    0    0 -0.55854041473E+02 -0.98200433566E+02  0.12453906072E+03  0.20957231215E+03  0.12509027649E+03 0.  0.
          5    1    3    3  502    0 -0.30664790994E+02 -0.81845891666E+02  0.65469700868E+01  0.87746308222E+02  0.41800000000E+01 0.  1.
         -5    1    3    3    0  502 -0.25189250479E+02 -0.16354541901E+02  0.11799209064E+03  0.12182600393E+03  0.41800000000E+01 0.  1.
        -11    1    1    2    0    0 -0.53822275025E+01  0.70044968567E+02  0.14820100997E+03  0.16400855267E+03  0.00000000000E+00 0.  1.
         11    1    1    2    0    0  0.61236268976E+02  0.28155464999E+02  0.65038414734E+02  0.93662192151E+02  0.00000000000E+00 0. -1.
</event>
<event>
 7    1  0.2693725E-009  0.1504875E+03  0.7561462E-02  0.1199875E+00
         -4   -1    0    0    0  501 -0.00000000000E+00  0.00000000000E+00  0.21572001226E+03  0.21572001226E+03  0.00000000000E+00 0.  1.
          4   -1    0    0  501    0  0.00000000000E+00 -0.00000000000E+00 -0.13279840049E+03  0.13279840049E+03  0.00000000000E+00 0. -1.
         25    2    1    2    0    0 -0.12924153149E+03 -0.76199645822E+01  0.27951057167E+02  0.18218206001E+03  0.12509038360E+03 0.  0.
          5    1    3    3  502    0 -0.68403454433E+02 -0.43799299747E+02  0.63197180661E+02  0.10299887029E+03  0.41800000000E+01 0. -1.
         -5    1    3    3    0  502 -0.60838077057E+02  0.36179335165E+02 -0.35246123494E+02  0.79183189721E+02  0.41800000000E+01 0. -1.
        -11    1    1    2    0    0  0.13915951568E+02 -0.25239312984E+02 -0.92981633517E+01  0.30284195048E+02  0.00000000000E+00 0. -1.
         11    1    1    2    0    0  0.11532557992E+03  0.32859277567E+02  0.64268717959E+02  0.13605215770E+03  0.00000000000E+00 0.  1.
</event>
<event>
 7    1  0.2693725E-009  0.9653691E+02  0.7561462E-02  0.1287752E+00
         -1   -1    0    0    0  501 -0.00000000000E+00  0.00000000000E+00  0.21279817679E+02  0.21279817679E+02  0.00000000000E+00 0.  1.
          1   -1    0    0  501    0  0.00000000000E+00 -0.00000000000E+00 -0.63544176979E+03  0.63544176979E+03  0.00000000000E+00 0. -1.
         25    2    1    2    0    0  0.30357812276E+02  0.11800495787E+02 -0.42778992360E+03  0.44689345754E+03  0.12509474485E+03 0.  0.
          5    1    3    3  502    0 -0.11960411134E+02 -0.51484292140E+02 -0.17591271733E+03  0.18372925812E+03  0.41800000000E+01 0. -1.
         -5    1    3    3    0  502  0.42318223410E+02  0.63284787927E+02 -0.25187720627E+03  0.26316419942E+03  0.41800000000E+01 0. -1.
        -11    1    1    2    0    0  0.96105485659E+01  0.13451164256E+02  0.10211953040E+01  0.16563191221E+02  0.00000000000E+00 0.  1.
         11    1    1    2    0    0 -0.39968360842E+02 -0.25251660043E+02 -0.18739322382E+03  0.19326493872E+03  0.00000000000E+00 0. -1.
</event>
<event>
 7    1  0.2693725E-009  0.9542932E+02  0.7561462E-02  0.1290212E+00
         -2   -1    0    0    0  501 -0.00000000000E+00  0.00000000000E+00  0.53666242718E+02  0.53666242718E+02  0.00000000000E+00 0.  1.
          2   -1    0    0  501    0  0.00000000000E+00 -0.00000000000E+00 -0.34986653615E+03  0.34986653615E+03  0.00000000000E+00 0. -1.
         25    2    1    2    0    0 -0.27573177209E+02 -0.91712805072E+01 -0.50194992483E+02  0.13788060231E+03  0.12508849162E+03 0.  0.
          5    1    3    3  502    0  0.56978273294E+01  0.54836831345E+02 -0.13865821234E+02  0.57002427201E+02  0.41800000000E+01 0. -1.
         -5    1    3    3    0  502 -0.33271004538E+02 -0.64008111852E+02 -0.36329171249E+02  0.80878175112E+02  0.41800000000E+01 0. -1.
        -11    1    1    2    0    0 -0.13286096950E+02  0.17132996030E+02 -0.66122110649E+01  0.22666743487E+02  0.00000000000E+00 0.  1.
         11    1    1    2    0    0  0.40859274159E+02 -0.79617155231E+01 -0.23939308988E+03  0.24298543307E+03  0.00000000000E+00 0. -1.
</event>
<event>
 7    1  0.2693725E-009  0.2274930E+03  0.7561462E-02  0.1128417E+00
          2   -1    0    0  501    0  0.00000000000E+00  0.00000000000E+00  0.76195490833E+03  0.76195490833E+03  0.00000000000E+00 0. -1.
         -2   -1    0    0    0  501 -0.00000000000E+00 -0.00000000000E+00 -0.10055827789E+03  0.10055827789E+03  0.00000000000E+00 0.  1.
         25    2    1    2    0    0 -0.19387689987E+03 -0.10303966947E+03  0.53871400415E+03  0.59503497836E+03  0.12509365058E+03 0.  0.
          5    1    3    3  502    0 -0.83284876276E+02 -0.76426367769E+02  0.39952947745E+03  0.41523323092E+03  0.41800000000E+01 0.  1.
         -5    1    3    3    0  502 -0.11059202359E+03 -0.26613301706E+02  0.13918452670E+03  0.17980174744E+03  0.41800000000E+01 0.  1.
        -11    1    1    2    0    0  0.77652394654E+02  0.82898393022E+01  0.76143034001E+01  0.78463962731E+02  0.00000000000E+00 0. -1.
         11    1    1    2    0    0  0.11622450521E+03  0.94749830173E+02  0.11506832290E+03  0.18901424513E+03  0.00000000000E+00 0.  1.
</event>
<event>
 7    1  0.2910352E-009  0.9347024E+02  0.7561462E-02  0.1294659E+00
         -2   -1    0    0    0  501 -0.00000000000E+00  0.00000000000E+00  0.40131004022E+03  0.40131004022E+03  0.00000000000E+00 0.  1.
          2   -1    0    0  501    0  0.00000000000E+00 -0.00000000000E+00 -0.44929978632E+02  0.44929978632E+02  0.00000000000E+00 0. -1.
         25    2    1    2    0    0 -0.29147936368E+02 -0.32633312534E+02  0.30584948296E+03  0.33332509404E+03  0.12508867577E+03 0.  0.
          5    1    3    3  502    0  0.45422570482E+02 -0.17550408568E+02  0.17708287259E+03  0.18370368237E+03  0.41800000000E+01 0.  1.
         -5    1    3    3    0  502 -0.74570506850E+02 -0.15082903967E+02  0.12876661037E+03  0.14962141167E+03  0.41800000000E+01 0.  1.
        -11    1    1    2    0    0 -0.24549925220E+01  0.30063526603E+02 -0.19584507572E+02  0.35963808988E+02  0.00000000000E+00 0. -1.
         11    1    1    2    0    0  0.31602928890E+02  0.25697859314E+01  0.70115086195E+02  0.76951115823E+02  0.00000000000E+00 0.  1.
</event>
<event>
 7    1  0.2693725E-009  0.1097263E+03  0.7561462E-02  0.1261077E+00
          1   -1    0    0  501    0  0.00000000000E+00  0.00000000000E+00  0.38560184620E+03  0.38560184620E+03  0.00000000000E+00 0. -1.
         -1   -1    0    0    0  501 -0.00000000000E+00 -0.00000000000E+00 -0.58364999676E+02  0.58364999676E+02  0.00000000000E+00 0.  1.
         25    2    1    2    0    0 -0.39506501305E+02 -0.70540613111E+02  0.78817432771E+02  0.16851158143E+03  0.12508886291E+03 0.  0.
          5    1    3    3  502    0 -0.58070242487E+02  0.39413349685E+01  0.70001053935E+02  0.91133457829E+02  0.41800000000E+01 0.  1.
         -5    1    3    3    0  502  0.18563741182E+02 -0.74481948080E+02  0.88163788357E+01  0.77378123602E+02  0.41800000000E+01 0.  1.
        -11    1    1    2    0    0  0.46322131286E+01  0.31652546843E+02  0.13369296545E+02  0.34671013978E+02  0.00000000000E+00 0.  1.
         11    1    1    2    0    0  0.34874288177E+02  0.38888066268E+02  0.23505011721E+03  0.24078425047E+03  0.00000000000E+00 0. -1.
</event>
<event>
 7    1  0.2693725E-009  0.1945998E+03  0.7561462E-02  0.1154377E+00
         -2   -1    0    0    0  501 -0.00000000000E+00  0.00000000000E+00  0.10292207110E+03  0.10292207110E+03  0.00000000000E+00 0.  1.
          2   -1    0    0  501    0  0.00000000000E+00 -0.00000000000E+00 -0.72368227331E+03  0.72368227331E+03  0.00000000000E+00 0. -1.
         25    2    1    2    0    0  0.17628258755E+03 -0.47990304477E+02 -0.57480886185E+03  0.61597950443E+03  0.12508757820E+03 0.  0.
          5    1    3    3  502    0  0.12860945071E+03 -0.45147087586E+02 -0.53942511371E+03  0.55639516176E+03  0.41800000000E+01 0. -1.
         -5    1    3    3    0  502  0.47673136844E+02 -0.28432168910E+01 -0.35383748132E+02  0.59584342664E+02  0.41800000000E+01 0. -1.
        -11    1    1    2    0    0 -0.31071538283E+02 -0.27265498086E+02 -0.16137286692E+02  0.44376343911E+02  0.00000000000E+00 0.  1.
         11    1    1    2    0    0 -0.14521104927E+03  0.75255802562E+02 -0.29814053667E+02  0.16624849607E+03  0.00000000000E+00 0. -1.
</event>
<event>
 7    1  0.2693725E-009  0.8779575E+02  0.7561462E-02  0.1308279E+00
         -2   -1    0    0    0  501 -0.00000000000E+00  0.00000000000E+00  0.35100386061E+03  0.35100386061E+03  0.00000000000E+00 0.  1.
          2   -1    0    0  501    0  0.00000000000E+00 -0.00000000000E+00 -0.46671506457E+02  0.46671506457E+02  0.00000000000E+00 0. -1.
         25    2    1    2    0    0 -0.34487957042E+02  0.58064496602E+02  0.17630094118E+03  0.22647550580E+03  0.12509287717E+03 0.  0.
          5    1    3    3  502    0 -0.22447822793E+01  0.49577889246E+02  0.29433194924E+01  0.49891298632E+02  0.41800000000E+01 0.  1.
         -5    1    3    3    0  502 -0.32243174763E+02  0.84866073560E+01  0.17335762169E+03  0.17658420716E+03  0.41800000000E+01 0.  1.
        -11    1    1    2    0    0  0.20830343345E+00  0.13148774808E+02 -0.68810721847E+01  0.14841927897E+02  0.00000000000E+00 0. -1.
         11    1    1    2    0    0  0.34279653608E+02 -0.71213271411E+02  0.13491248516E+03  0.15635793337E+03  0.00000000000E+00 0.  1.
</event>
<event>
 7    1  0.2693725E-009  0.1180152E+03  0.7561462E-02  0.1246408E+00
         -4   -1    0    0    0  501 -0.00000000000E+00  0.00000000000E+00  0.13042153593E+02  0.13042153593E+02  0.00000000000E+00 0.  1.
          4   -1    0    0  501    0  0.00000000000E+00 -0.00000000000E+00 -0.10785980114E+04  0.10785980114E+04  0.00000000000E+00 0. -1.
         25    2    1    2    0    0  0.20551933030E+02  0.38831690959E+02 -0.61169850172E+03  0.62590148516E+03  0.12508928787E+03 0.  0.
          5    1    3    3  502    0  0.57024153267E+02  0.64918399209E+02 -0.36366889998E+03  0.37381639052E+03  0.41800000000E+01 0. -1.
         -5    1    3    3    0  502 -0.36472220236E+02 -0.26086708251E+02 -0.24802960174E+03  0.25208509463E+03  0.41800000000E+01 0. -1.
        -11    1    1    2    0    0 -0.40588656312E+02 -0.61844060602E+02 -0.31532606860E+03  0.32388679564E+03  0.00000000000E+00 0. -1.
         11    1    1    2    0    0  0.20036723282E+02  0.23012369643E+02 -0.13853128748E+03  0.14185188419E+03  0.00000000000E+00 0.  1.
</event>
<event>
 7    1  0.2693725E-009  0.1007065E+03  0.7561462E-02  0.1278817E+00
          2   -1    0    0  501    0  0.00000000000E+00  0.00000000000E+00  0.81606351181E+03  0.81606351181E+03  0.00000000000E+00 0. -1.
         -2   -1    0    0    0  501 -0.00000000000E+00 -0.00000000000E+00 -0.16828149092E+02  0.16828149092E+02  0.00000000000E+00 0.  1.
         25    2    1    2    0    0 -0.23842496654E+02 -0.13910251115E+02  0.58647648106E+03  0.60030574836E+03  0.12510143462E+03 0.  0.
          5    1    3    3  502    0 -0.19934389146E+02 -0.64495720414E+02  0.21582834290E+03  0.22617785883E+03  0.41800000000E+01 0.  1.
         -5    1    3    3    0  502 -0.39081075080E+01  0.50585469299E+02  0.37064813816E+03  0.37412788953E+03  0.41800000000E+01 0.  1.
        -11    1    1    2    0    0  0.40946563954E+02 -0.19487018931E+02  0.16882665825E+03  0.17481077067E+03  0.00000000000E+00 0.  1.
         11    1    1    2    0    0 -0.17104067300E+02  0.33397270046E+02  0.43932223405E+02  0.57775141869E+02  0.00000000000E+00 0. -1.
</event>
<event>
 7    1  0.2693725E-009  0.1135102E+03  0.7561462E-02  0.1254204E+00
         -2   -1    0    0    0  501 -0.00000000000E+00  0.00000000000E+00  0.51229114563E+02  0.51229114563E+02  0.00000000000E+00 0.  1.
          2   -1    0    0  501    0  0.00000000000E+00 -0.00000000000E+00 -0.25714110610E+03  0.25714110610E+03  0.00000000000E+00 0. -1.
         25    2    1    2    0    0 -0.17915786466E+02  0.41784372057E+02 -0.11621777275E+03  0.17669125729E+03  0.12508525312E+03 0.  0.
          5    1    3    3  502    0  0.25390251649E+02 -0.35474922426E+02 -0.46501551144E+02  0.63898369766E+02  0.41800000000E+01 0.  1.
         -5    1    3    3    0  502 -0.43306038116E+02  0.77259294483E+02 -0.69716221610E+02  0.11279288753E+03  0.41800000000E+01 0.  1.
        -11    1    1    2    0    0  0.40051603511E+02  0.72744927383E+01 -0.51678591423E+02  0.65785454318E+02  0.00000000000E+00 0.  1.
         11    1    1    2    0    0 -0.22135817045E+02 -0.49058864795E+02 -0.38015627359E+02  0.65893509048E+02  0.00000000000E+00 0. -1.
</event>
<event>
 7    1  0.2693725E-009  0.1114719E+03  0.7561462E-02  0.1257868E+00
         -1   -1    0    0    0  501 -0.00000000000E+00  0.00000000000E+00  0.58521341870E+02  0.58521341870E+02  0.00000000000E+00 0.  1.
          1   -1    0    0  501    0  0.00000000000E+00 -0.00000000000E+00 -0.25435275785E+03  0.25435275785E+03  0.00000000000E+00 0. -1.
         25    2    1    2    0    0 -0.43892441021E+02  0.29241132137E+02 -0.13224175861E+03  0.18951841779E+03  0.12509099797E+03 0.  0.
          5    1    3    3  502    0  0.20258883840E+02  0.60349566274E+02 -0.70853177294E+02  0.95342213403E+02  0.41800000000E+01 0.  1.
         -5    1    3    3    0  502 -0.64151324861E+02 -0.31108434137E+02 -0.61388581320E+02  0.94176204385E+02  0.41800000000E+01 0.  1.
        -11    1    1    2    0    0  0.52455688830E+02  0.47553157917E+01 -0.22678041242E+01  0.52719590804E+02  0.00000000000E+00 0.  1.
         11    1    1    2    0    0 -0.85632478097E+01 -0.33996447929E+02 -0.61321853238E+02  0.70636091125E+02  0.00000000000E+00 0. -1.
</event>
<event>
 7    1  0.2693725E-009  0.1075421E+03  0.7561462E-02  0.1265190E+00
         -1   -1    0    0    0  501 -0.00000000000E+00  0.00000000000E+00  0.32663299846E+02  0.32663299846E+02  0.00000000000E+00 0.  1.
          1   -1    0    0  501    0  0.00000000000E+00 -0.00000000000E+00 -0.60061693036E+03  0.60061693036E+03  0.00000000000E+00 0. -1.
         25    2    1    2    0    0  0.38586771715E+02 -0.13582416038E+02 -0.49342806245E+03  0.51067769780E+03  0.12508811789E+03 0.  0.
          5    1    3    3  502    0  0.10214157630E+02 -0.68573870744E+02 -0.27198754864E+03  0.28071587732E+03  0.41800000000E+01 0.  1.
         -5    1    3    3    0  502  0.28372614084E+02  0.54991454705E+02 -0.22144051381E+03  0.22996182048E+03  0.41800000000E+01 0.  1.
        -11    1    1    2    0    0  0.11288234239E+02 -0.20358859290E+02  0.39565973064E+01  0.23612751768E+02  0.00000000000E+00 0.  1.
         11    1    1    2    0    0 -0.49875005954E+02  0.33941275328E+02 -0.78482165368E+02  0.98989780637E+02  0.00000000000E+00 0. -1.
</event>
<event>
 7    1  0.2693725E-009  0.8697607E+02  0.7561462E-02  0.1310344E+00
          1   -1    0    0  501    0  0.00000000000E+00  0.00000000000E+00  0.77490278172E+02  0.77490278172E+02  0.00000000000E+00 0. -1.
         -1   -1    0    0    0  501 -0.00000000000E+00 -0.00000000000E+00 -0.16575965090E+03  0.16575965090E+03  0.00000000000E+00 0.  1.
         25    2    1    2    0    0  0.16192121594E+02  0.25747727822E+02 -0.68214650986E+02  0.14568454209E+03  0.12508244044E+03 0.  0.
          5    1    3    3  502    0  0.45812023384E+02  0.24494824443E+02  0.17432287963E+02  0.54955390770E+02  0.41800000000E+01 0.  1.
         -5    1    3    3    0  502 -0.29619901790E+02  0.12529033793E+01 -0.85646938948E+02  0.90729151325E+02  0.41800000000E+01 0.  1.
        -11    1    1    2    0    0  0.54606810607E+01  0.30833032808E+02 -0.19676369377E+02  0.36981812579E+02  0.00000000000E+00 0.  1.
         11    1    1    2    0    0 -0.21652802655E+02 -0.56580760630E+02 -0.37835236539E+00  0.60583574398E+02  0.00000000000E+00 0. -1.
</event>
<event>
 7    1  0.2693725E-009  0.1011225E+03  0.7561462E-02  0.1277953E+00
          2   -1    0    0  501    0  0.00000000000E+00  0.00000000000E+00  0.39824657492E+03  0.39824657492E+03  0.00000000000E+00 0. -1.
         -2   -1    0    0    0  501 -0.00000000000E+00 -0.00000000000E+00 -0.44776868471E+02  0.44776868471E+02  0.00000000000E+00 0.  1.
         25    2    1    2    0    0  0.50014983085E+02 -0.60585034184E+02  0.18431117963E+03  0.23619892261E+03  0.12508906909E+03 0.  0.
          5    1    3    3  502    0  0.30107122960E+02  0.15515684873E+02  0.14346088429E+03  0.14746414158E+03  0.41800000000E+01 0.  1.
         -5    1    3    3    0  502  0.19907860125E+02 -0.76100719057E+02  0.40850295345E+02  0.88734781036E+02  0.41800000000E+01 0.  1.
        -11    1    1    2    0    0 -0.32147119845E+02  0.70549903778E+01  0.50668849975E+01  0.33299902809E+02  0.00000000000E+00 0.  1.
         11    1    1    2    0    0 -0.17867863240E+02  0.53530043806E+02  0.16409164182E+03  0.17352461797E+03  0.00000000000E+00 0. -1.
</event>
<event>
 7    1  0.2693725E-009  0.7524313E+02  0.7561462E-02  0.1343120E+00
         -1   -1    0    0    0  501 -0.00000000000E+00  0.00000000000E+00  0.12880258171E+03  0.12880258171E+03  0.00000000000E+00 0. -1.
          1   -1    0    0  501    0  0.00000000000E+00 -0.00000000000E+00 -0.11670640362E+03  0.11670640362E+03  0.00000000000E+00 0.  1.
         25    2    1    2    0    0  0.24213214062E+02 -0.11723134518E+02 -0.45069872756E+02  0.13566095203E+03  0.12509551894E+03 0.  0.
          5    1    3    3  502    0 -0.12608651644E+02  0.20073542857E+02  0.34640914729E+02  0.42182823428E+02  0.41800000000E+01 0.  1.
         -5    1    3    3    0  502  0.36821865705E+02 -0.31796677375E+02 -0.79710787485E+02  0.93478128605E+02  0.41800000000E+01 0.  1.
        -11    1    1    2    0    0 -0.36630118670E+02 -0.21253098929E+02 -0.40315858992E+00  0.42351178787E+02  0.00000000000E+00 0.  1.
         11    1    1    2    0    0  0.12416904608E+02  0.32976233447E+02  0.57569209443E+02  0.67496854506E+02  0.00000000000E+00 0. -1.
</event>
<event>
 7    1  0.2693725E-009  0.1488708E+03  0.7561462E-02  0.1201867E+00
         -2   -1    0    0    0  501 -0.00000000000E+00  0.00000000000E+00  0.36577358673E+02  0.36577358673E+02  0.00000000000E+00 0. -1.
          2   -1    0    0  501    0  0.00000000000E+00 -0.00000000000E+00 -0.66220484117E+03  0.66220484117E+03  0.00000000000E+00 0.  1.
         25    2    1    2    0    0  0.41774160272E+02 -0.10281181363E+03 -0.31411286626E+03  0.35585092932E+03  0.12509053386E+03 0.  0.
          5    1    3    3  502    0 -0.41888145941E+02 -0.57428292768E+02 -0.15116702798E+03  0.16709748151E+03  0.41800000000E+01 0. -1.
         -5    1    3    3    0  502  0.83662306213E+02 -0.45383520862E+02 -0.16294583828E+03  0.18875344781E+03  0.41800000000E+01 0. -1.
        -11    1    1    2    0    0 -0.58993502983E+02  0.96145272736E+02 -0.30153255515E+03  0.32194103292E+03  0.00000000000E+00 0.  1.
         11    1    1    2    0    0  0.17219342711E+02  0.66665408942E+01 -0.99820610911E+01  0.20990237601E+02  0.00000000000E+00 0. -1.
</event>
<event>
 7    1  0.2693725E-009  0.1158391E+03  0.7561462E-02  0.1250123E+00
          4   -1    0    0  501    0  0.00000000000E+00  0.00000000000E+00  0.25095937806E+02  0.25095937806E+02  0.00000000000E+00 0. -1.
         -4   -1    0    0    0  501 -0.00000000000E+00 -0.00000000000E+00 -0.74535501854E+03  0.74535501854E+03  0.00000000000E+00 0.  1.
         25    2    1    2    0    0 -0.24016452285E+01  0.74569820892E+02 -0.43702376989E+03  0.46065931920E+03  0.12510318476E+03 0.  0.
          5    1    3    3  502    0  0.40520103342E+02  0.55916186761E+02 -0.10772941179E+03  0.12802967344E+03  0.41800000000E+01 0.  1.
         -5    1    3    3    0  502 -0.42921748570E+02  0.18653634132E+02 -0.32929435810E+03  0.33262964577E+03  0.41800000000E+01 0.  1.
        -11    1    1    2    0    0 -0.36862867351E+01  0.20206325496E+02 -0.11304604648E+03  0.11489687953E+03  0.00000000000E+00 0.  1.
         11    1    1    2    0    0  0.60879319636E+01 -0.94776146389E+02 -0.17018926437E+03  0.19489475761E+03  0.00000000000E+00 0. -1.
</event>
<event>
 7    1  0.2693725E-009  0.1790172E+03  0.7561462E-02  0.1168758E+00
         -3   -1    0    0    0  501 -0.00000000000E+00  0.00000000000E+00  0.14213762490E+03  0.14213762490E+03  0.00000000000E+00 0.  1.
          3   -1    0    0  501    0  0.00000000000E+00 -0.00000000000E+00 -0.27537513657E+03  0.27537513657E+03  0.00000000000E+00 0. -1.
         25    2    1    2    0    0  0.45411182181E+02 -0.13763677437E+03 -0.15394684174E+03  0.24566914895E+03  0.12509054135E+03 0.  0.
          5    1    3    3  502    0  0.45112564838E+02 -0.15964736149E+03 -0.14830696301E+03  0.22256426311E+03  0.41800000000E+01 0.  1.
         -5    1    3    3    0  502  0.29861734288E+00  0.22010587114E+02 -0.56398787309E+01  0.23104885837E+02  0.41800000000E+01 0.  1.
        -11    1    1    2    0    0 -0.71395486671E+02  0.11422000548E+03  0.23583012149E+02  0.13674678655E+03  0.00000000000E+00 0.  1.
         11    1    1    2    0    0  0.25984304490E+02  0.23416768894E+02 -0.28736820795E+01  0.35096825981E+02  0.00000000000E+00 0. -1.
</event>
<event>
 7    1  0.2693725E-009  0.9342594E+02  0.7561462E-02  0.1294761E+00
          1   -1    0    0  501    0  0.00000000000E+00  0.00000000000E+00  0.12479032372E+04  0.12479032372E+04  0.00000000000E+00 0. -1.
         -1   -1    0    0    0  501 -0.00000000000E+00 -0.00000000000E+00 -0.10848926572E+02  0.10848926572E+02  0.00000000000E+00 0.  1.
         25    2    1    2    0    0  0.92467379968E+01 -0.29434443789E+02  0.10306662663E+04  0.10386871474E+04  0.12508456758E+03 0.  0.
          5    1    3    3  502    0 -0.49811077565E+02  0.16924802445E+02  0.36713517539E+03  0.37090875130E+03  0.41800000000E+01 0.  1.
         -5    1    3    3    0  502  0.59057815561E+02 -0.46359246234E+02  0.66353109095E+03  0.66777839613E+03  0.41800000000E+01 0.  1.
        -11    1    1    2    0    0  0.11682410239E+02  0.35270000770E+02  0.18789428942E+03  0.19153254464E+03  0.00000000000E+00 0. -1.
         11    1    1    2    0    0 -0.20929148236E+02 -0.58355569814E+01  0.18493754875E+02  0.28532471686E+02  0.00000000000E+00 0.  1.
</event>
<event>
 7    1  0.2693725E-009  0.9543634E+02  0.7561462E-02  0.1290196E+00
         -2   -1    0    0    0  501 -0.00000000000E+00  0.00000000000E+00  0.24199887516E+02  0.24199887516E+02  0.00000000000E+00 0. -1.
          2   -1    0    0  501    0  0.00000000000E+00 -0.00000000000E+00 -0.51221623475E+03  0.51221623475E+03  0.00000000000E+00 0.  1.
         25    2    1    2    0    0  0.13738718342E+02  0.32563863079E+01 -0.23658406800E+03  0.26798443156E+03  0.12507708780E+03 0.  0.
          5    1    3    3  502    0 -0.15633811642E+02 -0.55839694194E+02 -0.13219188283E+03  0.14441140467E+03  0.41800000000E+01 0. -1.
         -5    1    3    3    0  502  0.29372529984E+02  0.59096080502E+02 -0.10439218517E+03  0.12357302688E+03  0.41800000000E+01 0. -1.
        -11    1    1    2    0    0 -0.38274100155E+02  0.87994365803E+01 -0.23096853739E+03  0.23428359330E+03  0.00000000000E+00 0.  1.
         11    1    1    2    0    0  0.24535381813E+02 -0.12055822888E+02 -0.20463741845E+02  0.34148097407E+02  0.00000000000E+00 0. -1.
</event>
<event>
 7    1  0.2693725E-009  0.1102678E+03  0.7561462E-02  0.1260075E+00
         -1   -1    0    0    0  501 -0.00000000000E+00  0.00000000000E+00  0.19628644102E+02  0.19628644102E+02  0.00000000000E+00 0.  1.
          1   -1    0    0  501    0  0.00000000000E+00 -0.00000000000E+00 -0.83340794482E+03  0.83340794482E+03  0.00000000000E+00 0. -1.
         25    2    1    2    0    0 -0.46379259310E+02  0.14943546409E+02 -0.61747132568E+03  0.63189602970E+03  0.12508960403E+03 0.  0.
          5    1    3    3  502    0  0.31493984717E+02 -0.23513183592E+02 -0.30506317910E+03  0.30761299797E+03  0.41800000000E+01 0. -1.
         -5    1    3    3    0  502 -0.77873244027E+02  0.38456730002E+02 -0.31240814658E+03  0.32428303173E+03  0.41800000000E+01 0. -1.
        -11    1    1    2    0    0  0.13922520896E+02  0.33197421979E+02 -0.37182442931E+02  0.51753642157E+02  0.00000000000E+00 0.  1.
         11    1    1    2    0    0  0.32456738413E+02 -0.48140968388E+02 -0.15912553211E+03  0.16938691707E+03  0.00000000000E+00 0. -1.
</event>
<event>
 7    1  0.2693725E-009  0.2384503E+03  0.7561462E-02  0.1120830E+00
         -2   -1    0    0    0  501 -0.00000000000E+00  0.00000000000E+00  0.52352570795E+02  0.52352570795E+02  0.00000000000E+00 0. -1.
          2   -1    0    0  501    0  0.00000000000E+00 -0.00000000000E+00 -0.12986873081E+04  0.12986873081E+04  0.00000000000E+00 0.  1.
         25    2    1    2    0    0 -0.15848346483E+03  0.16783661478E+03 -0.77534425954E+03  0.81859168826E+03  0.12508994122E+03 0.  0.
          5    1    3    3  502    0 -0.13937302928E+03  0.13713589051E+03 -0.74777475246E+03  0.77292667606E+03  0.41800000000E+01 0.  1.
         -5    1    3    3    0  502 -0.19110435548E+02  0.30700724276E+02 -0.27569507084E+02  0.45665012195E+02  0.41800000000E+01 0.  1.
        -11    1    1    2    0    0  0.16529677101E+03 -0.14108818342E+03 -0.44129937028E+03  0.49190856083E+03  0.00000000000E+00 0.  1.
         11    1    1    2    0    0 -0.68133061876E+01 -0.26748431361E+02 -0.29691107490E+02  0.40539629814E+02  0.00000000000E+00 0. -1.
</event>
<event>
 7    1  0.2693725E-009  0.1672386E+03  0.7561462E-02  0.1180759E+00
         -2   -1    0    0    0  501 -0.00000000000E+00  0.00000000000E+00  0.94333191097E+02  0.94333191097E+02  0.00000000000E+00 0.  1.
          2   -1    0    0  501    0  0.00000000000E+00 -0.00000000000E+00 -0.72848312497E+03  0.72848312497E+03  0.00000000000E+00 0. -1.
         25    2    1    2    0    0 -0.28361296053E+02 -0.78778209130E+02 -0.61079968741E+03  0.62907384739E+03  0.12508908017E+03 0.  0.
          5    1    3    3  502    0 -0.61502262074E+02  0.33262289777E+01 -0.26474280055E+03  0.27184520390E+03  0.41800000000E+01 0. -1.
         -5    1    3    3    0  502  0.33140966020E+02 -0.82104438108E+02 -0.34605688686E+03  0.35722864349E+03  0.41800000000E+01 0. -1.
        -11    1    1    2    0    0 -0.33093265358E+02 -0.39065685776E+02  0.18445721459E+02  0.54420002365E+02  0.00000000000E+00 0.  1.
         11    1    1    2    0    0  0.61454561412E+02  0.11784389491E+03 -0.41795967918E+02  0.13932246631E+03  0.00000000000E+00 0. -1.
</event>
<event>
 7    1  0.2693725E-009  0.2197466E+03  0.7561462E-02  0.1134072E+00
         -1   -1    0    0    0  501 -0.00000000000E+00  0.00000000000E+00  0.41658060208E+02  0.41658060208E+02  0.00000000000E+00 0.  1.
          1   -1    0    0  501    0  0.00000000000E+00 -0.00000000000E+00 -0.13455107926E+04  0.13455107926E+04  0.00000000000E+00 0. -1.
         25    2    1    2    0    0 -0.72736650096E+02 -0.19135264986E+03 -0.81256620695E+03  0.84723881964E+03  0.12507325833E+03 0.  0.
          5    1    3    3  502    0 -0.62310693508E+02 -0.19715565218E+03 -0.80759305017E+03  0.83365279391E+03  0.41800000000E+01 0.  1.
         -5    1    3    3    0  502 -0.10425956588E+02  0.58030023234E+01 -0.49731567827E+01  0.13586025729E+02  0.41800000000E+01 0.  1.
        -11    1    1    2    0    0 -0.95152183092E+00  0.11104018774E+03 -0.19750864277E+03  0.22658440515E+03  0.00000000000E+00 0.  1.
         11    1    1    2    0    0  0.73688171927E+02  0.80312462122E+02 -0.29377788265E+03  0.31334562800E+03  0.00000000000E+00 0. -1.
</event>
<event>
 7    1  0.2693725E-009  0.8389130E+02  0.7561462E-02  0.1318358E+00
         -2   -1    0    0    0  501 -0.00000000000E+00  0.00000000000E+00  0.69849549015E+02  0.69849549015E+02  0.00000000000E+00 0.  1.
          2   -1    0    0  501    0  0.00000000000E+00 -0.00000000000E+00 -0.19142538439E+03  0.19142538439E+03  0.00000000000E+00 0. -1.
         25    2    1    2    0    0  0.15798608844E+01  0.16597674859E+02 -0.11094509642E+03  0.16803224108E+03  0.12509212945E+03 0.  0.
          5    1    3    3  502    0 -0.28723891350E+02  0.34418337926E+02  0.63875926561E+01  0.45474802472E+02  0.41800000000E+01 0. -1.
         -5    1    3    3    0  502  0.30303752235E+02 -0.17820663067E+02 -0.11733268908E+03  0.12255743861E+03  0.41800000000E+01 0. -1.
        -11    1    1    2    0    0 -0.43180605781E+02 -0.15043217774E+02 -0.21035352767E+02  0.50332387015E+02  0.00000000000E+00 0. -1.
         11    1    1    2    0    0  0.41600744897E+02 -0.15544570855E+01  0.10404613818E+02  0.42910305307E+02  0.00000000000E+00 0.  1.
</event>
<event>
 7    1  0.2693725E-009  0.1661779E+03  0.7561462E-02  0.1181893E+00
         -2   -1    0    0    0  501 -0.00000000000E+00  0.00000000000E+00  0.26713144336E+02  0.26713144336E+02  0.00000000000E+00 0.  1.
          2   -1    0    0  501    0  0.00000000000E+00 -0.00000000000E+00 -0.11265205727E+04  0.11265205727E+04  0.00000000000E+00 0. -1.
         25    2    1    2    0    0  0.95812521584E+02  0.84154438343E+02 -0.44292952091E+03  0.47759373499E+03  0.12508879415E+03 0.  0.
          5    1    3    3  502    0  0.81050197765E+02 -0.96900500136E+01 -0.23885630502E+03  0.25245363628E+03  0.41800000000E+01 0. -1.
         -5    1    3    3    0  502  0.14762323819E+02  0.93844488357E+02 -0.20407321590E+03  0.22514009871E+03  0.41800000000E+01 0. -1.
        -11    1    1    2    0    0 -0.82192457727E+02 -0.13156880813E+02 -0.41150005856E+03  0.41983449336E+03  0.00000000000E+00 0. -1.
         11    1    1    2    0    0 -0.13620063858E+02 -0.70997557530E+02 -0.24537784889E+03  0.25580548869E+03  0.00000000000E+00 0.  1.
</event>
<event>
 7    1  0.2693725E-009  0.1750862E+03  0.7561462E-02  0.1172645E+00
          2   -1    0    0  501    0  0.00000000000E+00  0.00000000000E+00  0.31620942010E+03  0.31620942010E+03  0.00000000000E+00 0. -1.
         -2   -1    0    0    0  501 -0.00000000000E+00 -0.00000000000E+00 -0.10622513106E+03  0.10622513106E+03  0.00000000000E+00 0.  1.
         25    2    1    2    0    0 -0.69543605972E+01 -0.13804625103E+03  0.52489041863E+02  0.19366782288E+03  0.12508795126E+03 0.  0.
          5    1    3    3  502    0 -0.50819071966E+02 -0.13006249388E+03  0.27483869214E+02  0.14237860042E+03  0.41800000000E+01 0.  1.
         -5    1    3    3    0  502  0.43864711369E+02 -0.79837571479E+01  0.25005172649E+02  0.51289222463E+02  0.41800000000E+01 0.  1.
        -11    1    1    2    0    0 -0.28660103694E+02  0.12422551146E+03  0.12613104365E+03  0.17933883967E+03  0.00000000000E+00 0.  1.
         11    1    1    2    0    0  0.35614464292E+02  0.13820739571E+02  0.31364203529E+02  0.49427888606E+02  0.00000000000E+00 0. -1.
</event>
<event>
 7    1  0.2693725E-009  0.1037053E+03  0.7561462E-02  0.1272692E+00
          1   -1    0    0  501    0  0.00000000000E+00  0.00000000000E+00  0.63082537725E+02  0.63082537725E+02  0.00000000000E+00 0. -1.
         -1   -1    0    0    0  501 -0.00000000000E+00 -0.00000000000E+00 -0.28349665651E+03  0.28349665651E+03  0.00000000000E+00 0.  1.
         25    2    1    2    0    0 -0.63971099039E+02  0.50584765498E+02 -0.12785146266E+03  0.19658245910E+03  0.12509015432E+03 0.  0.
          5    1    3    3  502    0  0.61725560813E+01  0.64984434651E+01 -0.11161883943E+03  0.11205609279E+03  0.41800000000E+01 0.  1.
         -5    1    3    3    0  502 -0.70143655121E+02  0.44086322033E+02 -0.16232623234E+02  0.84526366308E+02  0.41800000000E+01 0.  1.
        -11    1    1    2    0    0  0.65738205032E+02 -0.18119807118E+01 -0.70581132960E+02  0.96470157069E+02  0.00000000000E+00 0.  1.
         11    1    1    2    0    0 -0.17671059921E+01 -0.48772784786E+02 -0.21981523165E+02  0.53526578072E+02  0.00000000000E+00 0. -1.
</event>
<event>
 7    1  0.2693725E-009  0.1360541E+03  0.7561462E-02  0.1218739E+00
          2   -1    0    0  501    0  0.00000000000E+00  0.00000000000E+00  0.72603382375E+03  0.72603382375E+03  0.00000000000E+00 0. -1.
         -2   -1    0    0    0  501 -0.00000000000E+00 -0.00000000000E+00 -0.34892430516E+02  0.34892430516E+02  0.00000000000E+00 0.  1.
         25    2    1    2    0    0  0.11347632474E+03 -0.21367902758E+02  0.40994340500E+03  0.44389002421E+03  0.12510513477E+03 0.  0.
          5    1    3    3  502    0  0.36196657233E+02  0.42571944397E+02  0.24049064553E+03  0.24693276703E+03  0.41800000000E+01 0.  1.
         -5    1    3    3    0  502  0.77279667511E+02 -0.63939847156E+02  0.16945275947E+03  0.19695725719E+03  0.41800000000E+01 0.  1.
        -11    1    1    2    0    0 -0.64144205492E+02  0.85373025936E+01  0.24776727882E+03  0.25607809178E+03  0.00000000000E+00 0. -1.
         11    1    1    2    0    0 -0.49332119252E+02  0.12830600164E+02  0.33430709409E+02  0.60958138275E+02  0.00000000000E+00 0.  1.
</event>
<event>
 7    1  0.2693725E-009  0.2364286E+03  0.7561462E-02  0.1122195E+00
          1   -1    0    0  501    0  0.00000000000E+00  0.00000000000E+00  0.11184155956E+04  0.11184155956E+04  0.00000000000E+00 0. -1.
         -1   -1    0    0    0  501 -0.00000000000E+00 -0.00000000000E+00 -0.55460763039E+02  0.55460763039E+02  0.00000000000E+00 0.  1.
         25    2    1    2    0    0  0.15512205559E+03 -0.15975142349E+03  0.49934907113E+03  0.56087461734E+03  0.12508985609E+03 0.  0.
          5    1    3    3  502    0 -0.45187411031E+01 -0.41512311160E+02  0.17940791450E+03  0.18425081596E+03  0.41800000000E+01 0. -1.
         -5    1    3    3    0  502  0.15964079669E+03 -0.11823911233E+03  0.31994115664E+03  0.37662380138E+03  0.41800000000E+01 0. -1.
        -11    1    1    2    0    0 -0.95341362725E+02  0.51090450872E+02  0.18165579244E+03  0.21142146661E+03  0.00000000000E+00 0. -1.
         11    1    1    2    0    0 -0.59780692862E+02  0.10866097262E+03  0.38194996899E+03  0.40158027469E+03  0.00000000000E+00 0.  1.
</event>
<event>
 7    1  0.2693725E-009  0.1319620E+03  0.7561462E-02  0.1224573E+00
          2   -1    0    0  501    0  0.00000000000E+00  0.00000000000E+00  0.21124496924E+04  0.21124496924E+04  0.00000000000E+00 0.  1.
         -2   -1    0    0    0  501 -0.00000000000E+00 -0.00000000000E+00 -0.12483053664E+02  0.12483053664E+02  0.00000000000E+00 0. -1.
         25    2    1    2    0    0  0.76720614777E+02  0.82049516789E+02  0.14212821698E+04  0.14311911564E+04  0.12508774520E+03 0.  0.
          5    1    3    3  502    0  0.40858302787E+02  0.12251834435E+02  0.11801270884E+03  0.12555469008E+03  0.41800000000E+01 0.  1.
         -5    1    3    3    0  502  0.35862311990E+02  0.69797682355E+02  0.13032694610E+04  0.13056364663E+04  0.41800000000E+01 0.  1.
        -11    1    1    2    0    0 -0.72283234996E+02 -0.10033725487E+03  0.61614268184E+03  0.62842997634E+03  0.00000000000E+00 0. -1.
         11    1    1    2    0    0 -0.44373797811E+01  0.18287738079E+02  0.62541787105E+02  0.65311613345E+02  0.00000000000E+00 0.  1.
</event>
<event>
 7    1  0.2693725E-009  0.1155426E+03  0.7561462E-02  0.1250637E+00
          1   -1    0    0  501    0  0.00000000000E+00  0.00000000000E+00  0.57846465538E+02  0.57846465538E+02  0.00000000000E+00 0. -1.
         -1   -1    0    0    0  501 -0.00000000000E+00 -0.00000000000E+00 -0.31966683194E+03  0.31966683194E+03  0.00000000000E+00 0.  1.
         25    2    1    2    0    0  0.37583180331E+02  0.64683443506E+02 -0.18778379483E+03  0.23771006635E+03  0.12508748433E+03 0.  0.
          5    1    3    3  502    0  0.53255384561E+02  0.64757717784E+01 -0.16429046621E+03  0.17287828462E+03  0.41800000000E+01 0. -1.
         -5    1    3    3    0  502 -0.15672204230E+02  0.58207671727E+02 -0.23493328623E+02  0.64831781736E+02  0.41800000000E+01 0. -1.
        -11    1    1    2    0    0 -0.44099809125E+02  0.71894036760E+01 -0.40170222071E+02  0.60084335990E+02  0.00000000000E+00 0.  1.
         11    1    1    2    0    0  0.65166287942E+01 -0.71872847182E+02 -0.33866349495E+02  0.79718895131E+02  0.00000000000E+00 0. -1.
</event>
<event>
 7    1  0.2693725E-009  0.1280926E+03  0.7561462E-02  0.1230314E+00
         -1   -1    0    0    0  501 -0.00000000000E+00  0.00000000000E+00  0.15959840770E+03  0.15959840770E+03  0.00000000000E+00 0.  1.
          1   -1    0    0  501    0  0.00000000000E+00 -0.00000000000E+00 -0.15301361613E+03  0.15301361613E+03  0.00000000000E+00 0. -1.
         25    2    1    2    0    0 -0.62062849042E+01 -0.96094437587E+02  0.57865272279E+02  0.16813079824E+03  0.12508763597E+03 0.  0.
          5    1    3    3  502    0 -0.55808071988E+02 -0.85029290490E+02  0.57959805351E+02  0.11713809191E+03  0.41800000000E+01 0. -1.
         -5    1    3    3    0  502  0.49601787084E+02 -0.11065147097E+02 -0.94533072062E-01  0.50992706329E+02  0.41800000000E+01 0. -1.
        -11    1    1    2    0    0 -0.14971292857E+02  0.57039709797E+02 -0.73966145595E+02  0.94597350902E+02  0.00000000000E+00 0. -1.
         11    1    1    2    0    0  0.21177577762E+02  0.39054727789E+02  0.22685664891E+02  0.49883874690E+02  0.00000000000E+00 0.  1.
</event>
<event>
 7    1  0.2693725E-009  0.6707373E+02  0.7561462E-02  0.1370336E+00
          2   -1    0    0  501    0  0.00000000000E+00  0.00000000000E+00  0.10987570149E+03  0.10987570149E+03  0.00000000000E+00 0. -1.
         -2   -1    0    0    0  501 -0.00000000000E+00 -0.00000000000E+00 -0.11837431066E+03  0.11837431066E+03  0.00000000000E+00 0.  1.
         25    2    1    2    0    0  0.27557398318E+02 -0.22634805337E+02 -0.10400888131E+02  0.13048579234E+03  0.12508644576E+03 0.  0.
          5    1    3    3  502    0  0.20933683617E+01 -0.65635263075E+00  0.55859581912E+02  0.56058703885E+02  0.41800000000E+01 0. -1.
         -5    1    3    3    0  502  0.25464029956E+02 -0.21978452706E+02 -0.66260470043E+02  0.74427088451E+02  0.41800000000E+01 0. -1.
        -11    1    1    2    0    0 -0.56528046350E+02 -0.33317905733E+01 -0.90562429673E+01  0.57345761738E+02  0.00000000000E+00 0. -1.
         11    1    1    2    0    0  0.28970648032E+02  0.25966595910E+02  0.10958521932E+02  0.40418458079E+02  0.00000000000E+00 0.  1.
</event>
<event>
 7    1  0.2693725E-009  0.1173862E+03  0.7561462E-02  0.1247472E+00
          2   -1    0    0  501    0  0.00000000000E+00  0.00000000000E+00  0.27004522409E+03  0.27004522409E+03  0.00000000000E+00 0.  1.
         -2   -1    0    0    0  501 -0.00000000000E+00 -0.00000000000E+00 -0.82118338269E+02  0.82118338269E+02  0.00000000000E+00 0. -1.
         25    2    1    2    0    0 -0.39921388289E+02 -0.93756932511E+02  0.10076013924E+03  0.19022036823E+03  0.12508838152E+03 0.  0.
          5    1    3    3  502    0 -0.24341287390E+02  0.38245634035E+01 -0.21496889054E+02  0.32965348414E+02  0.41800000000E+01 0.  1.
         -5    1    3    3    0  502 -0.15580100898E+02 -0.97581495915E+02  0.12225702830E+03  0.15725501982E+03  0.41800000000E+01 0.  1.
        -11    1    1    2    0    0  0.18488873520E+02  0.44295053605E+01  0.64613520622E+02  0.67352550130E+02  0.00000000000E+00 0.  1.
         11    1    1    2    0    0  0.21432514769E+02  0.89327427151E+02  0.22553225951E+02  0.94590643995E+02  0.00000000000E+00 0. -1.
</event>
<event>
 7    1  0.2693725E-009  0.1457574E+03  0.7561462E-02  0.1205785E+00
          2   -1    0    0  501    0  0.00000000000E+00  0.00000000000E+00  0.83500583338E+02  0.83500583338E+02  0.00000000000E+00 0. -1.
         -2   -1    0    0    0  501 -0.00000000000E+00 -0.00000000000E+00 -0.29875188269E+03  0.29875188269E+03  0.00000000000E+00 0.  1.
         25    2    1    2    0    0 -0.95277343392E+02  0.31497623266E+02 -0.18382999453E+03  0.24394840568E+03  0.12508990891E+03 0.  0.
          5    1    3    3  502    0 -0.10081308301E+03  0.68660638423E+02 -0.13172099086E+03  0.17957018908E+03  0.41800000000E+01 0. -1.
         -5    1    3    3    0  502  0.55357396191E+01 -0.37163015156E+02 -0.52109003671E+02  0.64378216597E+02  0.41800000000E+01 0. -1.
        -11    1    1    2    0    0  0.84534354496E+02  0.13320207882E+02 -0.62857277133E+01  0.85807898244E+02  0.00000000000E+00 0.  1.
         11    1    1    2    0    0  0.10742988896E+02 -0.44817831149E+02 -0.25135577114E+02  0.52496162109E+02  0.00000000000E+00 0. -1.
</event>
<event>
 7    1  0.2693725E-009  0.1115881E+03  0.7561462E-02  0.1257657E+00
          2   -1    0    0  501    0  0.00000000000E+00  0.00000000000E+00  0.36241041611E+03  0.36241041611E+03  0.00000000000E+00 0.  1.
         -2   -1    0    0    0  501 -0.00000000000E+00 -0.00000000000E+00 -0.10763288838E+03  0.10763288838E+03  0.00000000000E+00 0. -1.
         25    2    1    2    0    0 -0.94132401651E+02  0.24246505566E+02  0.28925022530E+03  0.32978921979E+03  0.12508570893E+03 0.  0.
          5    1    3    3  502    0 -0.10020812754E+03  0.13039165864E+02  0.29737579187E+03  0.31410431812E+03  0.41800000000E+01 0.  1.
         -5    1    3    3    0  502  0.60757258892E+01  0.11207339702E+02 -0.81255665671E+01  0.15684901667E+02  0.41800000000E+01 0.  1.
        -11    1    1    2    0    0  0.78351820382E+02 -0.38550624997E+02  0.12941384067E+02  0.88275918949E+02  0.00000000000E+00 0.  1.
         11    1    1    2    0    0  0.15780581269E+02  0.14304119431E+02 -0.47414081641E+02  0.51978165760E+02  0.00000000000E+00 0. -1.
</event>
<event>
 7    1  0.2693725E-009  0.9568056E+02  0.7561462E-02  0.1289651E+00
         -1   -1    0    0    0  501 -0.00000000000E+00  0.00000000000E+00  0.49421993355E+02  0.49421993355E+02  0.00000000000E+00 0. -1.
          1   -1    0    0  501    0  0.00000000000E+00 -0.00000000000E+00 -0.28657444622E+03  0.28657444622E+03  0.00000000000E+00 0.  1.
         25    2    1    2    0    0  0.41940997995E+02  0.15238315221E+01 -0.16354222928E+03  0.21012996355E+03  0.12508865437E+03 0.  0.
          5    1    3    3  502    0  0.52965293215E+02 -0.50333496454E+02 -0.12351273418E+03  0.14356758358E+03  0.41800000000E+01 0.  1.
         -5    1    3    3    0  502 -0.11024295220E+02  0.51857327976E+02 -0.40029495097E+02  0.66562379973E+02  0.41800000000E+01 0.  1.
        -11    1    1    2    0    0 -0.60285243882E+01  0.21503734394E+02  0.15422555904E+02  0.27140540337E+02  0.00000000000E+00 0. -1.
         11    1    1    2    0    0 -0.35912473607E+02 -0.23027565916E+02 -0.89032779495E+02  0.98725935687E+02  0.00000000000E+00 0.  1.
</event>
<event>
 7    1  0.2693725E-009  0.1061884E+03  0.7561462E-02  0.1267796E+00
          1   -1    0    0  501    0  0.00000000000E+00  0.00000000000E+00  0.84731945921E+03  0.84731945921E+03  0.00000000000E+00 0. -1.
         -1   -1    0    0    0  501 -0.00000000000E+00 -0.00000000000E+00 -0.17119926049E+02  0.17119926049E+02  0.00000000000E+00 0.  1.
         25    2    1    2    0    0 -0.10272191305E+01  0.24879157761E+02  0.31069971116E+03  0.33585781645E+03  0.12508451016E+03 0.  0.
          5    1    3    3  502    0  0.55173102593E+02  0.58381002752E+01  0.78882676602E+02  0.96530325455E+02  0.41800000000E+01 0. -1.
         -5    1    3    3    0  502 -0.56200321724E+02  0.19041057486E+02  0.23181703456E+03  0.23932749099E+03  0.41800000000E+01 0. -1.
        -11    1    1    2    0    0 -0.27379395691E+02  0.26779984573E+02  0.18438025028E+03  0.18831589305E+03  0.00000000000E+00 0.  1.
         11    1    1    2    0    0  0.28406614822E+02 -0.51659142334E+02  0.33511957172E+03  0.34026567576E+03  0.00000000000E+00 0. -1.
</event>
<event>
 7    1  0.2693725E-009  0.9087454E+02  0.7561462E-02  0.1300748E+00
          1   -1    0    0  501    0  0.00000000000E+00  0.00000000000E+00  0.18231049059E+03  0.18231049059E+03  0.00000000000E+00 0. -1.
         -1   -1    0    0    0  501 -0.00000000000E+00 -0.00000000000E+00 -0.73404114728E+02  0.73404114728E+02  0.00000000000E+00 0.  1.
         25    2    1    2    0    0  0.26623876151E+02  0.17886573960E+02  0.98967291645E+02  0.16269556452E+03  0.12508621662E+03 0.  0.
          5    1    3    3  502    0  0.36333597282E+02  0.63914344820E+02  0.30921706237E+02  0.79867378082E+02  0.41800000000E+01 0. -1.
         -5    1    3    3    0  502 -0.97097211302E+01 -0.46027770860E+02  0.68045585408E+02  0.82828186436E+02  0.41800000000E+01 0. -1.
        -11    1    1    2    0    0 -0.21482080406E+02 -0.36073008176E+02  0.39688033694E+02  0.57774403639E+02  0.00000000000E+00 0. -1.
         11    1    1    2    0    0 -0.51417957457E+01  0.18186434216E+02 -0.29748949481E+02  0.35244637156E+02  0.00000000000E+00 0.  1.
</event>
<event>
 7    1  0.2693725E-009  0.3869210E+03  0.7561462E-02  0.1048405E+00
          1   -1    0    0  501    0  0.00000000000E+00  0.00000000000E+00  0.31082308523E+03  0.31082308523E+03  0.00000000000E+00 0. -1.
         -1   -1    0    0    0  501 -0.00000000000E+00 -0.00000000000E+00 -0.57494629685E+03  0.57494629685E+03  0.00000000000E+00 0.  1.
         25    2    1    2    0    0 -0.17815151559E+03 -0.33054920077E+03 -0.30096188264E+03  0.49722012443E+03  0.12509620574E+03 0.  0.
          5    1    3    3  502    0 -0.23636865312E+02 -0.21391383166E+01 -0.51301834088E+02  0.56680048477E+02  0.41800000000E+01 0. -1.
         -5    1    3    3    0  502 -0.15451465028E+03 -0.32841006246E+03 -0.24966004855E+03  0.44054007595E+03  0.41800000000E+01 0. -1.
        -11    1    1    2    0    0  0.19841482957E+02 -0.47136071245E+00  0.28309213632E+01  0.20047961059E+02  0.00000000000E+00 0. -1.
         11    1    1    2    0    0  0.15831003263E+03  0.33102056149E+03  0.34007749663E+02  0.36850129660E+03  0.00000000000E+00 0.  1.
</event>
<event>
 7    1  0.2693725E-009  0.1733536E+03  0.7561462E-02  0.1174395E+00
          1   -1    0    0  501    0  0.00000000000E+00  0.00000000000E+00  0.62679202637E+03  0.62679202637E+03  0.00000000000E+00 0. -1.
         -1   -1    0    0    0  501 -0.00000000000E+00 -0.00000000000E+00 -0.78330004179E+02  0.78330004179E+02  0.00000000000E+00 0.  1.
         25    2    1    2    0    0  0.28862133955E+02 -0.13059138119E+03  0.65325778778E+02  0.19442710138E+03  0.12508920321E+03 0.  0.
          5    1    3    3  502    0 -0.32954867181E+02 -0.11347695474E+03  0.34701643433E+02  0.12322629178E+03  0.41800000000E+01 0. -1.
         -5    1    3    3    0  502  0.61817001136E+02 -0.17114426444E+02  0.30624135345E+02  0.71200809599E+02  0.41800000000E+01 0. -1.
        -11    1    1    2    0    0  0.35124525470E+02  0.39327645081E+02  0.18644547042E+03  0.19375837891E+03  0.00000000000E+00 0. -1.
         11    1    1    2    0    0 -0.63986659425E+02  0.91263736107E+02  0.29669077300E+03  0.31693655027E+03  0.00000000000E+00 0.  1.
</event>
<event>
 7    1  0.2693725E-009  0.1034606E+03  0.7561462E-02  0.1273183E+00
          2   -1    0    0  501    0  0.00000000000E+00  0.00000000000E+00  0.89356250329E+03  0.89356250329E+03  0.00000000000E+00 0. -1.
         -2   -1    0    0    0  501 -0.00000000000E+00 -0.00000000000E+00 -0.18190968666E+02  0.18190968666E+02  0.00000000000E+00 0.  1.
         25    2    1    2    0    0  0.25865540735E+01  0.60695704971E+02  0.59012299858E+03  0.60629020989E+03  0.12510797853E+03 0.  0.
          5    1    3    3  502    0  0.34113689595E+02  0.56479491552E+02  0.55418997389E+03  0.55811976882E+03  0.41800000000E+01 0. -1.
         -5    1    3    3    0  502 -0.31527135522E+02  0.42162134195E+01  0.35933024689E+02  0.48170441073E+02  0.41800000000E+01 0. -1.
        -11    1    1    2    0    0 -0.18411145818E+02  0.19596526779E+02  0.58040052205E+02  0.63965942595E+02  0.00000000000E+00 0.  1.
         11    1    1    2    0    0  0.15824591745E+02 -0.80292231750E+02  0.22720848384E+03  0.24149731947E+03  0.00000000000E+00 0. -1.
</event>
<event>
 7    1  0.2693725E-009  0.1119728E+03  0.7561462E-02  0.1256960E+00
          2   -1    0    0  501    0  0.00000000000E+00  0.00000000000E+00  0.11877359790E+04  0.11877359790E+04  0.00000000000E+00 0. -1.
         -2   -1    0    0    0  501 -0.00000000000E+00 -0.00000000000E+00 -0.11229893626E+02  0.11229893626E+02  0.00000000000E+00 0.  1.
         25    2    1    2    0    0 -0.31797745976E+01 -0.31578816632E+02  0.76607314898E+03  0.77686716641E+03  0.12508873663E+03 0.  0.
          5    1    3    3  502    0 -0.47982428034E+02 -0.59068829211E+02  0.43719542894E+03  0.44378908895E+03  0.41800000000E+01 0. -1.
         -5    1    3    3    0  502  0.44802653436E+02  0.27490012579E+02  0.32887772004E+03  0.33307807746E+03  0.41800000000E+01 0. -1.
        -11    1    1    2    0    0  0.44821665423E+02  0.38855650169E+01  0.13907183753E+03  0.14616790106E+03  0.00000000000E+00 0.  1.
         11    1    1    2    0    0 -0.41641890826E+02  0.27693251615E+02  0.27136109888E+03  0.27593080517E+03  0.00000000000E+00 0. -1.
</event>
<event>
 7    1  0.2693725E-009  0.1122875E+03  0.7561462E-02  0.1256391E+00
         -2   -1    0    0    0  501 -0.00000000000E+00  0.00000000000E+00  0.14672950258E+03  0.14672950258E+03  0.00000000000E+00 0.  1.
          2   -1    0    0  501    0  0.00000000000E+00 -0.00000000000E+00 -0.10558125533E+03  0.10558125533E+03  0.00000000000E+00 0. -1.
         25    2    1    2    0    0  0.64626035979E+02  0.15641401392E+02  0.39824938791E+02  0.14715615356E+03  0.12509088622E+03 0.  0.
          5    1    3    3  502    0 -0.15048935068E+02 -0.33258482701E+02 -0.13862603901E+02  0.39271380230E+02  0.41800000000E+01 0. -1.
         -5    1    3    3    0  502  0.79674971047E+02  0.48899884094E+02  0.53687542691E+02  0.10788477333E+03  0.41800000000E+01 0. -1.
        -11    1    1    2    0    0 -0.13553151859E+02  0.25363353325E+02  0.22289175296E+02  0.36383993082E+02  0.00000000000E+00 0.  1.
         11    1    1    2    0    0 -0.51072884120E+02 -0.41004754718E+02 -0.20965866844E+02  0.68770611269E+02  0.00000000000E+00 0. -1.
</event>
<event>
 7    1  0.2693725E-009  0.1119297E+03  0.7561462E-02  0.1257038E+00
          2   -1    0    0  501    0  0.00000000000E+00  0.00000000000E+00  0.25751199256E+03  0.25751199256E+03  0.00000000000E+00 0. -1.
         -2   -1    0    0    0  501 -0.00000000000E+00 -0.00000000000E+00 -0.15035829302E+03  0.15035829302E+03  0.00000000000E+00 0.  1.
         25    2    1    2    0    0  0.36382158003E+02 -0.64775311768E+02  0.20725602499E+03  0.25322441297E+03  0.12509213002E+03 0.  0.
          5    1    3    3  502    0 -0.44743616818E+02 -0.20241617521E+02  0.10009383827E+03  0.11157044047E+03  0.41800000000E+01 0. -1.
         -5    1    3    3    0  502  0.81125774821E+02 -0.44533694247E+02  0.10716218672E+03  0.14165397250E+03  0.41800000000E+01 0. -1.
        -11    1    1    2    0    0 -0.25334401968E+02  0.12034520321E+02  0.11812956213E+02  0.30433657962E+02  0.00000000000E+00 0. -1.
         11    1    1    2    0    0 -0.11047756035E+02  0.52740791447E+02 -0.11191528166E+03  0.12421221464E+03  0.00000000000E+00 0.  1.
</event>
<event>
 7    1  0.2693725E-009  0.1442499E+03  0.7561462E-02  0.1207722E+00
          2   -1    0    0  501    0  0.00000000000E+00  0.00000000000E+00  0.26819592935E+04  0.26819592935E+04  0.00000000000E+00 0. -1.
         -2   -1    0    0    0  501 -0.00000000000E+00 -0.00000000000E+00 -0.16992433777E+02  0.16992433777E+02  0.00000000000E+00 0.  1.
         25    2    1    2    0    0  0.68193606587E+02 -0.70006171944E+02  0.23669183634E+04  0.23722354240E+04  0.12508851171E+03 0.  0.
          5    1    3    3  502    0 -0.96787467833E+00 -0.84747424855E+02  0.15162820792E+04  0.15186546279E+04  0.41800000000E+01 0.  1.
         -5    1    3    3    0  502  0.69161481265E+02  0.14741252911E+02  0.85063628415E+03  0.85358079602E+03  0.41800000000E+01 0.  1.
        -11    1    1    2    0    0 -0.37728608293E+02  0.89163687920E+02  0.23421818863E+03  0.25343987652E+03  0.00000000000E+00 0.  1.
         11    1    1    2    0    0 -0.30464998294E+02 -0.19157515976E+02  0.63830307745E+02  0.73276426812E+02  0.00000000000E+00 0. -1.
</event>
<event>
 7    1  0.2693725E-009  0.9176182E+02  0.7561462E-02  0.1298640E+00
          3   -1    0    0  501    0  0.00000000000E+00  0.00000000000E+00  0.31305223105E+02  0.31305223105E+02  0.00000000000E+00 0. -1.
         -3   -1    0    0    0  501 -0.00000000000E+00 -0.00000000000E+00 -0.42675827262E+03  0.42675827262E+03  0.00000000000E+00 0.  1.
         25    2    1    2    0    0  0.58823950920E+01  0.28603311664E+02 -0.23639314998E+03  0.26903923917E+03  0.12509052262E+03 0.  0.
          5    1    3    3  502    0  0.29013054294E+01  0.78313437930E+02 -0.14398116330E+03  0.16398005952E+03  0.41800000000E+01 0. -1.
         -5    1    3    3    0  502  0.29810896626E+01 -0.49710126266E+02 -0.92411986676E+02  0.10505917966E+03  0.41800000000E+01 0. -1.
        -11    1    1    2    0    0 -0.22057973776E+02 -0.31682132782E+02 -0.16652781906E+03  0.17094392726E+03  0.00000000000E+00 0.  1.
         11    1    1    2    0    0  0.16175578684E+02  0.30788211189E+01  0.74679195257E+01  0.18080329291E+02  0.00000000000E+00 0. -1.
</event>
<event>
 7    1  0.2693725E-009  0.2249151E+03  0.7561462E-02  0.1130271E+00
         -2   -1    0    0    0  501 -0.00000000000E+00  0.00000000000E+00  0.74443111148E+02  0.74443111148E+02  0.00000000000E+00 0.  1.
          2   -1    0    0  501    0  0.00000000000E+00 -0.00000000000E+00 -0.80033946794E+03  0.80033946794E+03  0.00000000000E+00 0. -1.
         25    2    1    2    0    0 -0.46495946342E+00 -0.21815654651E+03 -0.36356007898E+03  0.44205828407E+03  0.12508837083E+03 0.  0.
          5    1    3    3  502    0  0.22903610703E+02 -0.18173577628E+02 -0.38155522819E+01  0.29780616955E+02  0.41800000000E+01 0.  1.
         -5    1    3    3    0  502 -0.23368570167E+02 -0.19998296888E+03 -0.35974452670E+03  0.41227766712E+03  0.41800000000E+01 0.  1.
        -11    1    1    2    0    0  0.90148445323E+01  0.13870236516E+03 -0.14361781615E+03  0.19986418048E+03  0.00000000000E+00 0.  1.
         11    1    1    2    0    0 -0.85498850689E+01  0.79454181350E+02 -0.21871846166E+03  0.23286011453E+03  0.00000000000E+00 0. -1.
</event>
<event>
 7    1  0.2693725E-009  0.1064950E+03  0.7561462E-02  0.1267202E+00
          2   -1    0    0  501    0  0.00000000000E+00  0.00000000000E+00  0.24439255123E+03  0.24439255123E+03  0.00000000000E+00 0. -1.
         -2   -1    0    0    0  501 -0.00000000000E+00 -0.00000000000E+00 -0.61687788156E+02  0.61687788156E+02  0.00000000000E+00 0.  1.
         25    2    1    2    0    0  0.49347556819E+02  0.23223199894E+02  0.12056623280E+03  0.18209405452E+03  0.12509008683E+03 0.  0.
          5    1    3    3  502    0  0.64637454483E+02  0.56649656542E+02  0.11656156222E+03  0.14488358877E+03  0.41800000000E+01 0. -1.
         -5    1    3    3    0  502 -0.15289897665E+02 -0.33426456648E+02  0.40046705743E+01  0.37210465746E+02  0.41800000000E+01 0. -1.
        -11    1    1    2    0    0 -0.58947280449E+02  0.59371722698E+01  0.70577370228E+02  0.92147691644E+02  0.00000000000E+00 0. -1.
         11    1    1    2    0    0  0.95997236307E+01 -0.29160372164E+02 -0.84388399512E+01  0.31838593220E+02  0.00000000000E+00 0.  1.
</event>
<event>
 7    1  0.2693725E-009  0.1045399E+03  0.7561462E-02  0.1271029E+00
         -1   -1    0    0    0  501 -0.00000000000E+00  0.00000000000E+00  0.16024200833E+03  0.16024200833E+03  0.00000000000E+00 0.  1.
          1   -1    0    0  501    0  0.00000000000E+00 -0.00000000000E+00 -0.10585126618E+03  0.10585126618E+03  0.00000000000E+00 0. -1.
         25    2    1    2    0    0 -0.22909025212E+02  0.65774256160E+02  0.13938000461E+02  0.14385146488E+03  0.12509156599E+03 0.  0.
          5    1    3    3  502    0 -0.44269212009E+02  0.82731486009E+02 -0.23999360705E+02  0.96941753767E+02  0.41800000000E+01 0.  1.
         -5    1    3    3    0  502  0.21360186797E+02 -0.16957229849E+02  0.37937361166E+02  0.46909711110E+02  0.41800000000E+01 0.  1.
        -11    1    1    2    0    0  0.12558773785E+02 -0.73552710816E+02  0.62060011411E+02  0.97052403802E+02  0.00000000000E+00 0.  1.
         11    1    1    2    0    0  0.10350251427E+02  0.77784546564E+01 -0.21607269718E+02  0.25189405831E+02  0.00000000000E+00 0. -1.
</event>
<event>
 7    1  0.2693725E-009  0.1501071E+03  0.7561462E-02  0.1200341E+00
          1   -1    0    0  501    0  0.00000000000E+00  0.00000000000E+00  0.18929722866E+03  0.18929722866E+03  0.00000000000E+00 0. -1.
         -1   -1    0    0    0  501 -0.00000000000E+00 -0.00000000000E+00 -0.13173104975E+03  0.13173104975E+03  0.00000000000E+00 0.  1.
         25    2    1    2    0    0  0.90088898735E+02 -0.53671107127E+02  0.76106236894E+02  0.18008820175E+03  0.12507199407E+03 0.  0.
          5    1    3    3  502    0 -0.68466213870E+01 -0.63632666081E+02  0.18243339243E+02  0.66680463734E+02  0.41800000000E+01 0. -1.
         -5    1    3    3    0  502  0.96935520122E+02  0.99615589545E+01  0.57862897651E+02  0.11340773802E+03  0.41800000000E+01 0. -1.
        -11    1    1    2    0    0  0.14183404514E+02 -0.90832440526E+01  0.36507561778E+01  0.17233754866E+02  0.00000000000E+00 0.  1.
         11    1    1    2    0    0 -0.10427230325E+03  0.62754351180E+02 -0.22190814167E+02  0.12370632179E+03  0.00000000000E+00 0. -1.
</event>
<event>
 7    1  0.2693725E-009  0.1310421E+03  0.7561462E-02  0.1225918E+00
         -2   -1    0    0    0  501 -0.00000000000E+00  0.00000000000E+00  0.12197606079E+02  0.12197606079E+02  0.00000000000E+00 0.  1.
          2   -1    0    0  501    0  0.00000000000E+00 -0.00000000000E+00 -0.15150046231E+04  0.15150046231E+04  0.00000000000E+00 0. -1.
         25    2    1    2    0    0 -0.21676200513E+02  0.71611606145E+02 -0.10025578928E+04  0.10130988208E+04  0.12509521333E+03 0.  0.
          5    1    3    3  502    0 -0.57824691791E+02  0.87226289607E+02 -0.78639517059E+03  0.79333911873E+03  0.41800000000E+01 0.  1.
         -5    1    3    3    0  502  0.36148491278E+02 -0.15614683462E+02 -0.21616272224E+03  0.21975970205E+03  0.41800000000E+01 0.  1.
        -11    1    1    2    0    0 -0.35559896548E+02 -0.34435027929E+02 -0.24018539387E+03  0.24523315603E+03  0.00000000000E+00 0. -1.
         11    1    1    2    0    0  0.57236097061E+02 -0.37176578216E+02 -0.26006373031E+03  0.26887025235E+03  0.00000000000E+00 0.  1.
</event>
<event>
 7    1  0.2693725E-009  0.1519933E+03  0.7561462E-02  0.1198045E+00
         -1   -1    0    0    0  501 -0.00000000000E+00  0.00000000000E+00  0.18388469106E+02  0.18388469106E+02  0.00000000000E+00 0.  1.
          1   -1    0    0  501    0  0.00000000000E+00 -0.00000000000E+00 -0.20245597395E+04  0.20245597395E+04  0.00000000000E+00 0. -1.
         25    2    1    2    0    0  0.97607255695E+02 -0.73767601729E+02 -0.15862922778E+04  0.15959133364E+04  0.12508937275E+03 0.  0.
          5    1    3    3  502    0  0.79932283410E+02  0.13593743138E+01 -0.45537609821E+03  0.46235903912E+03  0.41800000000E+01 0.  1.
         -5    1    3    3    0  502  0.17674972286E+02 -0.75126976043E+02 -0.11309161796E+04  0.11335542973E+04  0.41800000000E+01 0.  1.
        -11    1    1    2    0    0 -0.11101514366E+03  0.55874908144E+02 -0.39238343974E+03  0.41159583485E+03  0.00000000000E+00 0. -1.
         11    1    1    2    0    0  0.13407887967E+02  0.17892693585E+02 -0.27495552815E+02  0.35439037347E+02  0.00000000000E+00 0.  1.
</event>
<event>
 7    1  0.2693725E-009  0.5892595E+02  0.7561462E-02  0.1402395E+00
          1   -1    0    0  501    0  0.00000000000E+00  0.00000000000E+00  0.77061735038E+02  0.77061735038E+02  0.00000000000E+00 0. -1.
         -1   -1    0    0    0  501 -0.00000000000E+00 -0.00000000000E+00 -0.16660716135E+03  0.16660716135E+03  0.00000000000E+00 0.  1.
         25    2    1    2    0    0  0.28952918080E+00 -0.72106747245E+00 -0.89279343445E+02  0.15368894519E+03  0.12509551127E+03 0.  0.
          5    1    3    3  502    0  0.14342196441E+02 -0.26396130832E+02  0.22692264899E+02  0.37879619954E+02  0.41800000000E+01 0.  1.
         -5    1    3    3    0  502 -0.14052667260E+02  0.25675063359E+02 -0.11197160834E+03  0.11580932523E+03  0.41800000000E+01 0.  1.
        -11    1    1    2    0    0  0.20329572781E+02  0.20863753852E+02 -0.34547991890E+02  0.45190170368E+02  0.00000000000E+00 0.  1.
         11    1    1    2    0    0 -0.20619101962E+02 -0.20142686380E+02  0.34281909027E+02  0.44789780830E+02  0.00000000000E+00 0. -1.
</event>
<event>
 7    1  0.2693725E-009  0.1096407E+03  0.7561462E-02  0.1261237E+00
         -1   -1    0    0    0  501 -0.00000000000E+00  0.00000000000E+00  0.19838054107E+02  0.19838054107E+02  0.00000000000E+00 0.  1.
          1   -1    0    0  501    0  0.00000000000E+00 -0.00000000000E+00 -0.63532220775E+03  0.63532220775E+03  0.00000000000E+00 0. -1.
         25    2    1    2    0    0 -0.26105780661E+02  0.15707260667E+02 -0.40257807599E+03  0.42266395849E+03  0.12508990654E+03 0.  0.
          5    1    3    3  502    0  0.49290720746E+02  0.13105909263E+02 -0.20033615535E+03  0.20676892308E+03  0.41800000000E+01 0. -1.
         -5    1    3    3    0  502 -0.75396501407E+02  0.26013514043E+01 -0.20224192064E+03  0.21589503542E+03  0.41800000000E+01 0. -1.
        -11    1    1    2    0    0  0.44098732613E+02  0.23094065906E+02 -0.98669509556E+02  0.11051563787E+03  0.00000000000E+00 0.  1.
         11    1    1    2    0    0 -0.17992951952E+02 -0.38801326572E+02 -0.11423656810E+03  0.12198066549E+03  0.00000000000E+00 0. -1.
</event>
<event>
 7    1  0.2992494E-009  0.5356855E+02  0.7561462E-02  0.1426992E+00
          1   -1    0    0  501    0  0.00000000000E+00  0.00000000000E+00  0.13125955808E+03  0.13125955808E+03  0.00000000000E+00 0. -1.
         -1   -1    0    0    0  501 -0.00000000000E+00 -0.00000000000E+00 -0.10868469058E+03  0.10868469058E+03  0.00000000000E+00 0.  1.
         25    2    1    2    0    0  0.32586985043E+02 -0.37447185657E+02  0.12886468306E+02  0.13519423884E+03  0.12508883980E+03 0.  0.
          5    1    3    3  502    0  0.17982007235E+02 -0.24623593304E+02 -0.55780569785E+02  0.63707286058E+02  0.41800000000E+01 0. -1.
         -5    1    3    3    0  502  0.14604977808E+02 -0.12823592353E+02  0.68667038091E+02  0.71486952780E+02  0.41800000000E+01 0. -1.
        -11    1    1    2    0    0 -0.33908363257E+02  0.20795771428E+02 -0.37515559242E+02  0.54677768731E+02  0.00000000000E+00 0.  1.
         11    1    1    2    0    0  0.13213782142E+01  0.16651414229E+02  0.47203958438E+02  0.50072241096E+02  0.00000000000E+00 0. -1.
</event>
<event>
 7    1  0.2693725E-009  0.1696187E+03  0.7561462E-02  0.1178246E+00
          3   -1    0    0  501    0  0.00000000000E+00  0.00000000000E+00  0.58228996125E+03  0.58228996125E+03  0.00000000000E+00 0. -1.
         -3   -1    0    0    0  501 -0.00000000000E+00 -0.00000000000E+00 -0.69073069627E+02  0.69073069627E+02  0.00000000000E+00 0.  1.
         25    2    1    2    0    0  0.97975803586E+02  0.12727500893E+03  0.35426433298E+03  0.40859331857E+03  0.12508835424E+03 0.  0.
          5    1    3    3  502    0  0.88845195340E+02  0.88737917361E+02  0.34574895157E+03  0.36786912976E+03  0.41800000000E+01 0.  1.
         -5    1    3    3    0  502  0.91306082461E+01  0.38537091572E+02  0.85153814088E+01  0.40724188811E+02  0.41800000000E+01 0.  1.
        -11    1    1    2    0    0 -0.82267539012E+01 -0.62627031840E+02  0.97680117772E+02  0.11632381529E+03  0.00000000000E+00 0. -1.
         11    1    1    2    0    0 -0.89749049685E+02 -0.64647977094E+02  0.61272440865E+02  0.12644589701E+03  0.00000000000E+00 0.  1.
</event>
<event>
 7    1  0.2693725E-009  0.9483965E+02  0.7561462E-02  0.1291538E+00
          1   -1    0    0  501    0  0.00000000000E+00  0.00000000000E+00  0.43896441083E+02  0.43896441083E+02  0.00000000000E+00 0. -1.
         -1   -1    0    0    0  501 -0.00000000000E+00 -0.00000000000E+00 -0.36364023718E+03  0.36364023718E+03  0.00000000000E+00 0.  1.
         25    2    1    2    0    0 -0.33810154814E+02 -0.45661453605E+02 -0.19367949685E+03  0.23745972697E+03  0.12508908634E+03 0.  0.
          5    1    3    3  502    0  0.36822851772E+01 -0.62547128009E+02 -0.18481073364E+03  0.19518755625E+03  0.41800000000E+01 0.  1.
         -5    1    3    3    0  502 -0.37492439992E+02  0.16885674405E+02 -0.88687632074E+01  0.42272170721E+02  0.41800000000E+01 0.  1.
        -11    1    1    2    0    0  0.34223592544E+02 -0.52640328570E+01 -0.11201892114E+03  0.11724846704E+03  0.00000000000E+00 0.  1.
         11    1    1    2    0    0 -0.41343772922E+00  0.50925486462E+02 -0.14045378100E+02  0.52828484249E+02  0.00000000000E+00 0. -1.
</event>
<event>
 7    1  0.2693725E-009  0.9849194E+02  0.7561462E-02  0.1283500E+00
          2   -1    0    0  501    0  0.00000000000E+00  0.00000000000E+00  0.15470678529E+04  0.15470678529E+04  0.00000000000E+00 0. -1.
         -2   -1    0    0    0  501 -0.00000000000E+00 -0.00000000000E+00 -0.89742168537E+01  0.89742168537E+01  0.00000000000E+00 0.  1.
         25    2    1    2    0    0  0.35224560612E+02  0.11267379333E+02  0.12317911953E+04  0.12386784532E+04  0.12508812103E+03 0.  0.
          5    1    3    3  502    0  0.74012296108E+02  0.39574405828E+01  0.46750434406E+03  0.47336166450E+03  0.41800000000E+01 0.  1.
         -5    1    3    3    0  502 -0.38787735496E+02  0.73099387498E+01  0.76428685127E+03  0.76531678870E+03  0.41800000000E+01 0.  1.
        -11    1    1    2    0    0  0.15375580638E+02 -0.26130872701E+02  0.11219113787E+03  0.11621567194E+03  0.00000000000E+00 0. -1.
         11    1    1    2    0    0 -0.50600141250E+02  0.14863493369E+02  0.19411130287E+03  0.20114794464E+03  0.00000000000E+00 0.  1.
</event>
<event>
 7    1  0.2693725E-009  0.1124629E+03  0.7561462E-02  0.1256076E+00
          2   -1    0    0  501    0  0.00000000000E+00  0.00000000000E+00  0.66578802996E+03  0.66578802996E+03  0.00000000000E+00 0. -1.
         -2   -1    0    0    0  501 -0.00000000000E+00 -0.00000000000E+00 -0.19410112916E+02  0.19410112916E+02  0.00000000000E+00 0.  1.
         25    2    1    2    0    0 -0.23825228838E+02 -0.21558233927E+02  0.37133254093E+03  0.39315182213E+03  0.12509236713E+03 0.  0.
          5    1    3    3  502    0 -0.18247440974E+02 -0.73901542050E+02  0.22736745523E+03  0.23980792130E+03  0.41800000000E+01 0. -1.
         -5    1    3    3    0  502 -0.55777878637E+01  0.52343308123E+02  0.14396508570E+03  0.15334390084E+03  0.41800000000E+01 0. -1.
        -11    1    1    2    0    0  0.56255449563E+02 -0.11961678812E+01  0.12930399653E+03  0.14101641728E+03  0.00000000000E+00 0.  1.
         11    1    1    2    0    0 -0.32430220725E+02  0.22754401808E+02  0.14574137958E+03  0.15102990346E+03  0.00000000000E+00 0. -1.
</event>
<event>
 7    1  0.2693725E-009  0.8248217E+02  0.7561462E-02  0.1322151E+00
          2   -1    0    0  501    0  0.00000000000E+00  0.00000000000E+00  0.10805550322E+04  0.10805550322E+04  0.00000000000E+00 0.  1.
         -2   -1    0    0    0  501 -0.00000000000E+00 -0.00000000000E+00 -0.17170342827E+02  0.17170342827E+02  0.00000000000E+00 0. -1.
         25    2    1    2    0    0  0.96580919668E+01  0.38232280174E+02  0.86652000304E+03  0.87638899474E+03  0.12508304621E+03 0.  0.
          5    1    3    3  502    0  0.12801586976E+02 -0.28555579286E+02  0.66986704476E+02  0.74053985132E+02  0.41800000000E+01 0. -1.
         -5    1    3    3    0  502 -0.31434950096E+01  0.66787859460E+02  0.79953329857E+03  0.80233500961E+03  0.41800000000E+01 0. -1.
        -11    1    1    2    0    0  0.31891106383E+01 -0.49324274649E+02  0.19823884105E+03  0.20430783782E+03  0.00000000000E+00 0.  1.
         11    1    1    2    0    0 -0.12847202605E+02  0.11091994474E+02 -0.13741547417E+01  0.17028542435E+02  0.00000000000E+00 0. -1.
</event>
<event>
 7    1  0.2693725E-009  0.1189766E+03  0.7561462E-02  0.1244795E+00
         -2   -1    0    0    0  501 -0.00000000000E+00  0.00000000000E+00  0.57138252211E+02  0.57138252211E+02  0.00000000000E+00 0.  1.
          2   -1    0    0  501    0  0.00000000000E+00 -0.00000000000E+00 -0.34406144271E+03  0.34406144271E+03  0.00000000000E+00 0. -1.
         25    2    1    2    0    0  0.65214245046E+02  0.26566579046E+02 -0.79829706721E+02  0.16425367417E+03  0.12509119283E+03 0.  0.
          5    1    3    3  502    0  0.14697916644E+02 -0.44957677627E+02 -0.55973215239E+02  0.73400917947E+02  0.41800000000E+01 0. -1.
         -5    1    3    3    0  502  0.50516328401E+02  0.71524256673E+02 -0.23856491482E+02  0.90852756224E+02  0.41800000000E+01 0. -1.
        -11    1    1    2    0    0 -0.63526279441E+02  0.11620586966E+02 -0.17663431821E+03  0.18806995664E+03  0.00000000000E+00 0. -1.
         11    1    1    2    0    0 -0.16879656042E+01 -0.38187166011E+02 -0.30459165573E+02  0.48876064114E+02  0.00000000000E+00 0.  1.
</event>
<event>
 7    1  0.2837864E-009  0.1184801E+03  0.7561462E-02  0.1245626E+00
         -2   -1    0    0    0  501 -0.00000000000E+00  0.00000000000E+00  0.16570905136E+02  0.16570905136E+02  0.00000000000E+00 0.  1.
          2   -1    0    0  501    0  0.00000000000E+00 -0.00000000000E+00 -0.10225275774E+04  0.10225275774E+04  0.00000000000E+00 0. -1.
         25    2    1    2    0    0  0.47780569532E+02 -0.12850680375E+02 -0.76528679394E+03  0.77701976821E+03  0.12509084856E+03 0.  0.
          5    1    3    3  502    0 -0.30592390995E+02  0.31566464272E+02 -0.23287892677E+03  0.23702827466E+03  0.41800000000E+01 0. -1.
         -5    1    3    3    0  502  0.78372960527E+02 -0.44417144647E+02 -0.53240786717E+03  0.53999149355E+03  0.41800000000E+01 0. -1.
        -11    1    1    2    0    0 -0.26992757961E+02  0.51834822312E+02 -0.11764393578E+03  0.13136039514E+03  0.00000000000E+00 0.  1.
         11    1    1    2    0    0 -0.20787811570E+02 -0.38984141938E+02 -0.12302594259E+03  0.13071831924E+03  0.00000000000E+00 0. -1.
</event>
<event>
 7    1  0.2693725E-009  0.8128200E+02  0.7561462E-02  0.1325452E+00
          2   -1    0    0  501    0  0.00000000000E+00  0.00000000000E+00  0.27042980765E+02  0.27042980765E+02  0.00000000000E+00 0. -1.
         -2   -1    0    0    0  501 -0.00000000000E+00 -0.00000000000E+00 -0.45400668262E+03  0.45400668262E+03  0.00000000000E+00 0.  1.
         25    2    1    2    0    0 -0.23514365710E+02 -0.90212944168E+00 -0.26171564086E+03  0.29102702302E+03  0.12509161532E+03 0.  0.
          5    1    3    3  502    0 -0.34810871314E+02 -0.46777226219E+02 -0.22073623100E+03  0.22834592558E+03  0.41800000000E+01 0.  1.
         -5    1    3    3    0  502  0.11296505604E+02  0.45875096778E+02 -0.40979409862E+02  0.62681097436E+02  0.41800000000E+01 0.  1.
        -11    1    1    2    0    0  0.10484528093E+02  0.26199676404E+02 -0.15821292396E+03  0.16070991781E+03  0.00000000000E+00 0.  1.
         11    1    1    2    0    0  0.13029837617E+02 -0.25297546962E+02 -0.70351370295E+01  0.29312722556E+02  0.00000000000E+00 0. -1.
</event>
<event>
 7    1  0.2693725E-009  0.1408545E+03  0.7561462E-02  0.1212184E+00
         -1   -1    0    0    0  501 -0.00000000000E+00  0.00000000000E+00  0.35073117364E+03  0.35073117364E+03  0.00000000000E+00 0.  1.
          1   -1    0    0  501    0  0.00000000000E+00 -0.00000000000E+00 -0.96892000124E+02  0.96892000124E+02  0.00000000000E+00 0. -1.
         25    2    1    2    0    0 -0.30033803509E+02  0.10780306457E+03  0.14863675448E+02  0.16850304697E+03  0.12509523534E+03 0.  0.
          5    1    3    3  502    0  0.24448060344E+02  0.10284400743E+03 -0.13650189432E+02  0.10666957200E+03  0.41800000000E+01 0.  1.
         -5    1    3    3    0  502 -0.54481863852E+02  0.49590571410E+01  0.28513864880E+02  0.61833474971E+02  0.41800000000E+01 0.  1.
        -11    1    1    2    0    0 -0.11733584665E+02 -0.37317204968E+02  0.17271843091E+02  0.42761751127E+02  0.00000000000E+00 0. -1.
         11    1    1    2    0    0  0.41767388174E+02 -0.70485859601E+02  0.22170365498E+03  0.23635837567E+03  0.00000000000E+00 0.  1.
</event>
<event>
 7    1  0.2693725E-009  0.1044282E+03  0.7561462E-02  0.1271250E+00
          1   -1    0    0  501    0  0.00000000000E+00  0.00000000000E+00  0.45949463013E+02  0.45949463013E+02  0.00000000000E+00 0. -1.
         -1   -1    0    0    0  501 -0.00000000000E+00 -0.00000000000E+00 -0.34972342725E+03  0.34972342725E+03  0.00000000000E+00 0.  1.
         25    2    1    2    0    0 -0.21858946349E+02  0.21969319584E+02 -0.25850662702E+03  0.28884821720E+03  0.12508857592E+03 0.  0.
          5    1    3    3  502    0  0.91803931685E+01  0.61303341433E+02 -0.69285982165E+02  0.93061264843E+02  0.41800000000E+01 0.  1.
         -5    1    3    3    0  502 -0.31039339517E+02 -0.39334021849E+02 -0.18922064486E+03  0.19578695236E+03  0.41800000000E+01 0.  1.
        -11    1    1    2    0    0  0.24740613752E+02 -0.56562036467E+02 -0.33040909037E+02  0.70021879496E+02  0.00000000000E+00 0. -1.
         11    1    1    2    0    0 -0.28816674033E+01  0.34592716883E+02 -0.12226428174E+02  0.36802793566E+02  0.00000000000E+00 0.  1.
</event>
<event>
 7    1  0.2693725E-009  0.1131433E+03  0.7561462E-02  0.1254857E+00
         -1   -1    0    0    0  501 -0.00000000000E+00  0.00000000000E+00  0.21806504981E+02  0.21806504981E+02  0.00000000000E+00 0.  1.
          1   -1    0    0  501    0  0.00000000000E+00 -0.00000000000E+00 -0.78222086044E+03  0.78222086044E+03  0.00000000000E+00 0. -1.
         25    2    1    2    0    0  0.52241755847E+01  0.31587488560E+02 -0.22128409873E+03  0.25620195590E+03  0.12509088060E+03 0.  0.
          5    1    3    3  502    0 -0.11598479248E+02 -0.47014969501E+02 -0.80765025624E+02  0.94262367051E+02  0.41800000000E+01 0. -1.
         -5    1    3    3    0  502  0.16822654833E+02  0.78602458061E+02 -0.14051907311E+03  0.16193958885E+03  0.41800000000E+01 0. -1.
        -11    1    1    2    0    0  0.70787407836E+01  0.31821586167E+02 -0.17484026283E+03  0.17785342117E+03  0.00000000000E+00 0.  1.
         11    1    1    2    0    0 -0.12302916368E+02 -0.63409074726E+02 -0.36428999390E+03  0.36997198835E+03  0.00000000000E+00 0. -1.
</event>
<event>
 7    1  0.2693725E-009  0.1164294E+03  0.7561462E-02  0.1249106E+00
         -2   -1    0    0    0  501 -0.00000000000E+00  0.00000000000E+00  0.18665474970E+03  0.18665474970E+03  0.00000000000E+00 0.  1.
          2   -1    0    0  501    0  0.00000000000E+00 -0.00000000000E+00 -0.13491235280E+03  0.13491235280E+03  0.00000000000E+00 0. -1.
         25    2    1    2    0    0 -0.11566876387E+03  0.11360696111E+02 -0.11451896815E+01  0.17075341072E+03  0.12508831865E+03 0.  0.
          5    1    3    3  502    0 -0.85315653444E+02  0.91458153292E+01  0.58313126751E+02  0.10382822262E+03  0.41800000000E+01 0.  1.
         -5    1    3    3    0  502 -0.30353110426E+02  0.22148807820E+01 -0.59458316432E+02  0.66925188101E+02  0.41800000000E+01 0.  1.
        -11    1    1    2    0    0  0.34297636242E+02 -0.39797812641E+01  0.59551589988E+02  0.68837187485E+02  0.00000000000E+00 0.  1.
         11    1    1    2    0    0  0.81371127628E+02 -0.73809148470E+01 -0.66640034129E+01  0.81976504298E+02  0.00000000000E+00 0. -1.
</event>
<event>
 7    1  0.2693725E-009  0.1111571E+03  0.7561462E-02  0.1258442E+00
         -1   -1    0    0    0  501 -0.00000000000E+00  0.00000000000E+00  0.65367509945E+02  0.65367509945E+02  0.00000000000E+00 0.  1.
          1   -1    0    0  501    0  0.00000000000E+00 -0.00000000000E+00 -0.30349593931E+03  0.30349593931E+03  0.00000000000E+00 0. -1.
         25    2    1    2    0    0  0.62380432353E+02  0.64377730400E+02 -0.12593363551E+03  0.19885232471E+03  0.12508859251E+03 0.  0.
          5    1    3    3  502    0 -0.20091613306E+02  0.40514250422E+02 -0.98761180267E+02  0.10870290033E+03  0.41800000000E+01 0.  1.
         -5    1    3    3    0  502  0.82472045659E+02  0.23863479978E+02 -0.27172455244E+02  0.90149424378E+02  0.41800000000E+01 0.  1.
        -11    1    1    2    0    0 -0.86925657952E+01 -0.18030366125E+02  0.14567179379E+02  0.24755959238E+02  0.00000000000E+00 0.  1.
         11    1    1    2    0    0 -0.53687866558E+02 -0.46347364274E+02 -0.12676197323E+03  0.14525516531E+03  0.00000000000E+00 0. -1.
</event>
<event>
 7    1  0.2693725E-009  0.2173637E+03  0.7561462E-02  0.1135864E+00
         -1   -1    0    0    0  501 -0.00000000000E+00  0.00000000000E+00  0.44322016006E+02  0.44322016006E+02  0.00000000000E+00 0.  1.
          1   -1    0    0  501    0  0.00000000000E+00 -0.00000000000E+00 -0.12159824739E+04  0.12159824739E+04  0.00000000000E+00 0. -1.
         25    2    1    2    0    0  0.19989000183E+02 -0.18926429583E+03 -0.39995447918E+03  0.46025503314E+03  0.12510226343E+03 0.  0.
          5    1    3    3  502    0 -0.37272335965E+02 -0.14902983944E+03 -0.23229324313E+03  0.27852601903E+03  0.41800000000E+01 0.  1.
         -5    1    3    3    0  502  0.57261336148E+02 -0.40234456387E+02 -0.16766123605E+03  0.18172901412E+03  0.41800000000E+01 0.  1.
        -11    1    1    2    0    0  0.28709589226E+02  0.20460464848E+02 -0.11904183871E+03  0.12415244862E+03  0.00000000000E+00 0. -1.
         11    1    1    2    0    0 -0.48698589409E+02  0.16880383098E+03 -0.65266413996E+03  0.67589700810E+03  0.00000000000E+00 0.  1.
</event>
<event>
 7    1  0.2693725E-009  0.9966214E+02  0.7561462E-02  0.1281008E+00
         -2   -1    0    0    0  501 -0.00000000000E+00  0.00000000000E+00  0.39983717145E+02  0.39983717145E+02  0.00000000000E+00 0.  1.
          2   -1    0    0  501    0  0.00000000000E+00 -0.00000000000E+00 -0.36740933980E+03  0.36740933980E+03  0.00000000000E+00 0. -1.
         25    2    1    2    0    0  0.48155142279E+02 -0.23542273515E+02 -0.17125756738E+03  0.21874588060E+03  0.12508976586E+03 0.  0.
          5    1    3    3  502    0 -0.23696886010E+02 -0.50362722733E+02 -0.96990498779E+02  0.11190431404E+03  0.41800000000E+01 0.  1.
         -5    1    3    3    0  502  0.71852028289E+02  0.26820449218E+02 -0.74267068601E+02  0.10684156656E+03  0.41800000000E+01 0.  1.
        -11    1    1    2    0    0 -0.16112779591E+02  0.29963032340E+02 -0.54835361079E+01  0.34459746683E+02  0.00000000000E+00 0.  1.
         11    1    1    2    0    0 -0.32042362688E+02 -0.64207588251E+01 -0.15068451917E+03  0.15418742967E+03  0.00000000000E+00 0. -1.
</event>
<event>
 7    1  0.2693725E-009  0.9191725E+02  0.7561462E-02  0.1298274E+00
         -1   -1    0    0    0  501 -0.00000000000E+00  0.00000000000E+00  0.30938302795E+02  0.30938302795E+02  0.00000000000E+00 0.  1.
          1   -1    0    0  501    0  0.00000000000E+00 -0.00000000000E+00 -0.45905453751E+03  0.45905453751E+03  0.00000000000E+00 0. -1.
         25    2    1    2    0    0 -0.28002072690E+01 -0.45064347134E+02 -0.18853599565E+03  0.23071994060E+03  0.12508889955E+03 0.  0.
          5    1    3    3  502    0  0.35749267625E+02 -0.57664483520E+02 -0.17503578764E+03  0.18777167558E+03  0.41800000000E+01 0. -1.
         -5    1    3    3    0  502 -0.38549474894E+02  0.12600136386E+02 -0.13500208010E+02  0.42948265016E+02  0.41800000000E+01 0. -1.
        -11    1    1    2    0    0 -0.27044799736E+02  0.95115310734E+01 -0.20286857564E+02  0.35120464205E+02  0.00000000000E+00 0.  1.
         11    1    1    2    0    0  0.29845007005E+02  0.35552816060E+02 -0.21929338149E+03  0.22415243550E+03  0.00000000000E+00 0. -1.
</event>
<event>
 7    1  0.2693725E-009  0.1908333E+03  0.7561462E-02  0.1157712E+00
         -4   -1    0    0    0  501 -0.00000000000E+00  0.00000000000E+00  0.15857364101E+04  0.15857364101E+04  0.00000000000E+00 0.  1.
          4   -1    0    0  501    0  0.00000000000E+00 -0.00000000000E+00 -0.26475458388E+02  0.26475458388E+02  0.00000000000E+00 0. -1.
         25    2    1    2    0    0 -0.10942048621E+03  0.13420870417E+03  0.84887095953E+03  0.87533786695E+03  0.12509858636E+03 0.  0.
          5    1    3    3  502    0 -0.87596012679E+02  0.35368428641E+02  0.58675342118E+03  0.59432401672E+03  0.41800000000E+01 0. -1.
         -5    1    3    3    0  502 -0.21824473530E+02  0.98840275533E+02  0.26211753835E+03  0.28101385023E+03  0.41800000000E+01 0. -1.
        -11    1    1    2    0    0  0.37070455959E+02 -0.98241339811E+02  0.51210765362E+03  0.52276173200E+03  0.00000000000E+00 0. -1.
         11    1    1    2    0    0  0.72350030251E+02 -0.35967364363E+02  0.19828233852E+03  0.21411226949E+03  0.00000000000E+00 0.  1.
</event>
<event>
 7    1  0.2693725E-009  0.1576959E+03  0.7561462E-02  0.1191323E+00
         -2   -1    0    0    0  501 -0.00000000000E+00  0.00000000000E+00  0.37749591542E+03  0.37749591542E+03  0.00000000000E+00 0.  1.
          2   -1    0    0  501    0  0.00000000000E+00 -0.00000000000E+00 -0.82848148261E+02  0.82848148261E+02  0.00000000000E+00 0. -1.
         25    2    1    2    0    0 -0.72233986483E+02  0.11719186011E+03  0.14755150700E+03  0.23742217698E+03  0.12508461945E+03 0.  0.
          5    1    3    3  502    0  0.81279951957E+01  0.31829846295E+02  0.10902809166E+03  0.11394648126E+03  0.41800000000E+01 0.  1.
         -5    1    3    3    0  502 -0.80361981679E+02  0.85362013819E+02  0.38523415338E+02  0.12347569571E+03  0.41800000000E+01 0.  1.
        -11    1    1    2    0    0  0.40710631903E+02 -0.12585145972E+03  0.10106637062E+03  0.16646428066E+03  0.00000000000E+00 0.  1.
         11    1    1    2    0    0  0.31523354580E+02  0.86595996106E+01  0.46029889538E+02  0.56457606044E+02  0.00000000000E+00 0. -1.
</event>
<event>
 7    1  0.2693725E-009  0.1101518E+03  0.7561462E-02  0.1260289E+00
          3   -1    0    0  501    0  0.00000000000E+00  0.00000000000E+00  0.17735978935E+03  0.17735978935E+03  0.00000000000E+00 0. -1.
         -3   -1    0    0    0  501 -0.00000000000E+00 -0.00000000000E+00 -0.10105990002E+03  0.10105990002E+03  0.00000000000E+00 0.  1.
         25    2    1    2    0    0  0.43680934031E+02 -0.52616712996E+02  0.87553314336E+02  0.16729595459E+03  0.12508321665E+03 0.  0.
          5    1    3    3  502    0  0.33963263079E+02  0.18942927867E+02  0.86521293901E+02  0.94951274101E+02  0.41800000000E+01 0.  1.
         -5    1    3    3    0  502  0.97176709522E+01 -0.71559640863E+02  0.10320204357E+01  0.72344680491E+02  0.41800000000E+01 0.  1.
        -11    1    1    2    0    0  0.25208243992E+02  0.22035581787E+02 -0.12507016720E+02  0.35741403121E+02  0.00000000000E+00 0. -1.
         11    1    1    2    0    0 -0.68889178023E+02  0.30581131209E+02  0.12535917138E+01  0.75382331663E+02  0.00000000000E+00 0.  1.
</event>
<event>
 7    1  0.2693725E-009  0.1164297E+03  0.7561462E-02  0.1249106E+00
          2   -1    0    0  501    0  0.00000000000E+00  0.00000000000E+00  0.15322146204E+03  0.15322146204E+03  0.00000000000E+00 0. -1.
         -2   -1    0    0    0  501 -0.00000000000E+00 -0.00000000000E+00 -0.12186549570E+03  0.12186549570E+03  0.00000000000E+00 0.  1.
         25    2    1    2    0    0 -0.66256830456E+02  0.21146620104E+02  0.62728188422E+02  0.15627009058E+03  0.12509343893E+03 0.  0.
          5    1    3    3  502    0  0.17849938805E+02  0.46575352926E+02  0.43301400624E+02  0.66184344913E+02  0.41800000000E+01 0. -1.
         -5    1    3    3    0  502 -0.84106769261E+02 -0.25428732822E+02  0.19426787798E+02  0.90085745668E+02  0.41800000000E+01 0. -1.
        -11    1    1    2    0    0  0.24643713139E+02 -0.41692270031E+02 -0.49259676544E+02  0.69080197675E+02  0.00000000000E+00 0.  1.
         11    1    1    2    0    0  0.41613117318E+02  0.20545649927E+02  0.17887454463E+02  0.49736669480E+02  0.00000000000E+00 0. -1.
</event>
<event>
 7    1  0.2693725E-009  0.1485221E+03  0.7561462E-02  0.1202301E+00
          1   -1    0    0  501    0  0.00000000000E+00  0.00000000000E+00  0.81433633594E+02  0.81433633594E+02  0.00000000000E+00 0. -1.
         -1   -1    0    0    0  501 -0.00000000000E+00 -0.00000000000E+00 -0.34816013407E+03  0.34816013407E+03  0.00000000000E+00 0.  1.
         25    2    1    2    0    0  0.10339669530E+03 -0.56607610213E+02 -0.75834231277E+02  0.18786643375E+03  0.12509063979E+03 0.  0.
          5    1    3    3  502    0  0.11754295436E+03 -0.75279748979E+01 -0.67869536462E+02  0.13600280477E+03  0.41800000000E+01 0. -1.
         -5    1    3    3    0  502 -0.14146259053E+02 -0.49079635315E+02 -0.79646948145E+01  0.51863628983E+02  0.41800000000E+01 0. -1.
        -11    1    1    2    0    0 -0.25637722614E+02  0.41415518619E+02 -0.13831214153E+03  0.14663828456E+03  0.00000000000E+00 0.  1.
         11    1    1    2    0    0 -0.77758972691E+02  0.15192091594E+02 -0.52580127663E+02  0.95089049348E+02  0.00000000000E+00 0. -1.
</event>
<event>
 7    1  0.2693725E-009  0.7560664E+02  0.7561462E-02  0.1342003E+00
         -1   -1    0    0    0  501 -0.00000000000E+00  0.00000000000E+00  0.20610432180E+03  0.20610432180E+03  0.00000000000E+00 0.  1.
          1   -1    0    0  501    0  0.00000000000E+00 -0.00000000000E+00 -0.78913781895E+02  0.78913781895E+02  0.00000000000E+00 0. -1.
         25    2    1    2    0    0  0.41583477135E+02  0.15336224216E+02  0.12787020878E+03  0.18428979727E+03  0.12509018242E+03 0.  0.
          5    1    3    3  502    0  0.54826308841E+02  0.28146568960E+02  0.14573643587E+03  0.15828687446E+03  0.41800000000E+01 0. -1.
         -5    1    3    3    0  502 -0.13242831707E+02 -0.12810344744E+02 -0.17866227090E+02  0.26002922807E+02  0.41800000000E+01 0. -1.
        -11    1    1    2    0    0  0.72965116586E+01  0.12371186289E+02  0.32460623396E+02  0.35496160410E+02  0.00000000000E+00 0.  1.
         11    1    1    2    0    0 -0.48879988793E+02 -0.27707410505E+02 -0.33140292279E+02  0.65232146014E+02  0.00000000000E+00 0. -1.
</event>
<event>
 7    1  0.2693725E-009  0.1444935E+03  0.7561462E-02  0.1207407E+00
         -2   -1    0    0    0  501 -0.00000000000E+00  0.00000000000E+00  0.16651529823E+03  0.16651529823E+03  0.00000000000E+00 0.  1.
          2   -1    0    0  501    0  0.00000000000E+00 -0.00000000000E+00 -0.25919287662E+03  0.25919287662E+03  0.00000000000E+00 0. -1.
         25    2    1    2    0    0  0.13164915431E+03  0.63548555157E+01  0.71975249209E+02  0.19544631258E+03  0.12508773155E+03 0.  0.
          5    1    3    3  502    0  0.38580758444E+02  0.16918957972E+02 -0.33746207394E+02  0.54138756677E+02  0.41800000000E+01 0.  1.
         -5    1    3    3    0  502  0.93068395861E+02 -0.10564102456E+02  0.10572145660E+03  0.14130755590E+03  0.41800000000E+01 0.  1.
        -11    1    1    2    0    0 -0.11057838831E+03 -0.36206000747E+02 -0.15236559169E+03  0.19171261821E+03  0.00000000000E+00 0. -1.
         11    1    1    2    0    0 -0.21070766000E+02  0.29851145231E+02 -0.12287235903E+02  0.38549244060E+02  0.00000000000E+00 0.  1.
</event>
<event>
 7    1  0.2693725E-009  0.9559229E+02  0.7561462E-02  0.1289848E+00
         -2   -1    0    0    0  501 -0.00000000000E+00  0.00000000000E+00  0.23021584143E+02  0.23021584143E+02  0.00000000000E+00 0.  1.
          2   -1    0    0  501    0  0.00000000000E+00 -0.00000000000E+00 -0.53489103161E+03  0.53489103161E+03  0.00000000000E+00 0. -1.
         25    2    1    2    0    0 -0.12170807602E+02  0.25227641621E+02 -0.32720945312E+03  0.35142329400E+03  0.12509093850E+03 0.  0.
          5    1    3    3  502    0 -0.55375019076E+02 -0.19883479438E+02 -0.10358878523E+03  0.11920509350E+03  0.41800000000E+01 0.  1.
         -5    1    3    3    0  502  0.43204211473E+02  0.45111121059E+02 -0.22362066790E+03  0.23221820050E+03  0.41800000000E+01 0.  1.
        -11    1    1    2    0    0 -0.23297972712E+02  0.39982041657E+01 -0.96278646311E+01  0.25524046435E+02  0.00000000000E+00 0.  1.
         11    1    1    2    0    0  0.35468780314E+02 -0.29225845786E+02 -0.17503212971E+03  0.18096527532E+03  0.00000000000E+00 0. -1.
</event>
<event>
 7    1  0.2693725E-009  0.9028745E+02  0.7561462E-02  0.1302157E+00
         -2   -1    0    0    0  501 -0.00000000000E+00  0.00000000000E+00  0.47020834655E+02  0.47020834655E+02  0.00000000000E+00 0.  1.
          2   -1    0    0  501    0  0.00000000000E+00 -0.00000000000E+00 -0.24093274101E+03  0.24093274101E+03  0.00000000000E+00 0. -1.
         25    2    1    2    0    0  0.29258783932E+02 -0.11873202053E+02 -0.10053694242E+03  0.16356225496E+03  0.12509150687E+03 0.  0.
          5    1    3    3  502    0  0.49329598352E+02 -0.57566271155E+02 -0.42903783304E+02  0.87209471218E+02  0.41800000000E+01 0. -1.
         -5    1    3    3    0  502 -0.20070814421E+02  0.45693069102E+02 -0.57633159116E+02  0.76352783742E+02  0.41800000000E+01 0. -1.
        -11    1    1    2    0    0 -0.27912248812E+02 -0.12196042401E+02 -0.27151666786E+01  0.30581190527E+02  0.00000000000E+00 0.  1.
         11    1    1    2    0    0 -0.13465351197E+01  0.24069244453E+02 -0.90659797256E+02  0.93810130177E+02  0.00000000000E+00 0. -1.
</event>
<event>
 7    1  0.2693725E-009  0.1178404E+03  0.7561462E-02  0.1246703E+00
         -2   -1    0    0    0  501 -0.00000000000E+00  0.00000000000E+00  0.16907300944E+03  0.16907300944E+03  0.00000000000E+00 0.  1.
          2   -1    0    0  501    0  0.00000000000E+00 -0.00000000000E+00 -0.94230228197E+02  0.94230228197E+02  0.00000000000E+00 0. -1.
         25    2    1    2    0    0  0.42467045259E+02 -0.32957088595E+02  0.78878131934E+02  0.15734968488E+03  0.12509014355E+03 0.  0.
          5    1    3    3  502    0  0.75247195838E+02 -0.53970588218E+02  0.72483110230E+02  0.11767004097E+03  0.41800000000E+01 0.  1.
         -5    1    3    3    0  502 -0.32780150579E+02  0.21013499622E+02  0.63950217048E+01  0.39679643912E+02  0.41800000000E+01 0.  1.
        -11    1    1    2    0    0 -0.64000333069E+02 -0.54071836774E+00 -0.12575024695E+02  0.65226269673E+02  0.00000000000E+00 0. -1.
         11    1    1    2    0    0  0.21533287810E+02  0.33497806963E+02  0.85396740069E+01  0.40727283084E+02  0.00000000000E+00 0.  1.
</event>
<event>
 7    1  0.2947770E-009  0.1133537E+03  0.7561462E-02  0.1254482E+00
          1   -1    0    0  501    0  0.00000000000E+00  0.00000000000E+00  0.80181958122E+03  0.80181958122E+03  0.00000000000E+00 0. -1.
         -1   -1    0    0    0  501 -0.00000000000E+00 -0.00000000000E+00 -0.27828290383E+02  0.27828290383E+02  0.00000000000E+00 0.  1.
         25    2    1    2    0    0 -0.49774052705E+02 -0.64124502104E+02  0.59041640003E+03  0.60895642816E+03  0.12508796058E+03 0.  0.
          5    1    3    3  502    0 -0.89706947978E+01 -0.92954829950E+02  0.29943643232E+03  0.31368889553E+03  0.41800000000E+01 0.  1.
         -5    1    3    3    0  502 -0.40803357908E+02  0.28830327845E+02  0.29097996771E+03  0.29526753263E+03  0.41800000000E+01 0.  1.
        -11    1    1    2    0    0  0.24861389555E+02  0.45983074116E+02  0.22868825013E+02  0.57057120092E+02  0.00000000000E+00 0.  1.
         11    1    1    2    0    0  0.24912663150E+02  0.18141427989E+02  0.16070606580E+03  0.16363432335E+03  0.00000000000E+00 0. -1.
</event>
<event>
 7    1  0.2693725E-009  0.1129484E+03  0.7561462E-02  0.1255205E+00
          1   -1    0    0  501    0  0.00000000000E+00  0.00000000000E+00  0.97235502682E+03  0.97235502682E+03  0.00000000000E+00 0. -1.
         -1   -1    0    0    0  501 -0.00000000000E+00 -0.00000000000E+00 -0.22557590386E+02  0.22557590386E+02  0.00000000000E+00 0.  1.
         25    2    1    2    0    0 -0.54909582784E+02 -0.66006134474E+02  0.69223048035E+03  0.70866180374E+03  0.12508653838E+03 0.  0.
          5    1    3    3  502    0 -0.39187413440E+02 -0.71370105786E+01  0.52550927430E+02  0.66073161464E+02  0.41800000000E+01 0. -1.
         -5    1    3    3    0  502 -0.15722169344E+02 -0.58869123895E+02  0.63967955292E+03  0.64258864227E+03  0.41800000000E+01 0. -1.
        -11    1    1    2    0    0 -0.24968813904E+02  0.23491513415E+02  0.65175525106E+02  0.73641984921E+02  0.00000000000E+00 0. -1.
         11    1    1    2    0    0  0.79878396688E+02  0.42514621058E+02  0.19239143098E+03  0.21260882854E+03  0.00000000000E+00 0.  1.
</event>
<event>
 7    1  0.2693725E-009  0.1305402E+03  0.7561462E-02  0.1226656E+00
         -1   -1    0    0    0  501 -0.00000000000E+00  0.00000000000E+00  0.56863312688E+02  0.56863312688E+02  0.00000000000E+00 0.  1.
          1   -1    0    0  501    0  0.00000000000E+00 -0.00000000000E+00 -0.37438963620E+03  0.37438963620E+03  0.00000000000E+00 0. -1.
         25    2    1    2    0    0  0.81742575310E+02 -0.16507771361E+02 -0.23815532123E+03  0.28163493993E+03  0.12508368089E+03 0.  0.
          5    1    3    3  502    0 -0.59290830242E+01 -0.45870003346E+02 -0.13637897802E+03  0.14406911285E+03  0.41800000000E+01 0.  1.
         -5    1    3    3    0  502  0.87671658334E+02  0.29362231985E+02 -0.10177634321E+03  0.13756582708E+03  0.41800000000E+01 0.  1.
        -11    1    1    2    0    0 -0.92734026686E+02  0.36189266479E+02 -0.78981105034E+02  0.12707193894E+03  0.00000000000E+00 0. -1.
         11    1    1    2    0    0  0.10991451376E+02 -0.19681495118E+02 -0.38989725010E+00  0.22546070019E+02  0.00000000000E+00 0.  1.
</event>
<event>
 7    1  0.2693725E-009  0.1234336E+03  0.7561462E-02  0.1237538E+00
          1   -1    0    0  501    0  0.00000000000E+00  0.00000000000E+00  0.20013180342E+03  0.20013180342E+03  0.00000000000E+00 0. -1.
         -1   -1    0    0    0  501 -0.00000000000E+00 -0.00000000000E+00 -0.10591448703E+03  0.10591448703E+03  0.00000000000E+00 0.  1.
         25    2    1    2    0    0  0.63670310075E+02  0.47617482013E+02  0.10847781338E+03  0.18366973051E+03  0.12508317605E+03 0.  0.
          5    1    3    3  502    0  0.95523513647E+02  0.54757404032E+02  0.10195792269E+03  0.15011996987E+03  0.41800000000E+01 0. -1.
         -5    1    3    3    0  502 -0.31853203572E+02 -0.71399220192E+01  0.65198906973E+01  0.33549760639E+02  0.41800000000E+01 0. -1.
        -11    1    1    2    0    0 -0.46802111546E+02 -0.64642316001E+02 -0.38221387311E+02  0.88486954468E+02  0.00000000000E+00 0.  1.
         11    1    1    2    0    0 -0.16868198529E+02  0.17024833988E+02  0.23960890322E+02  0.33889605470E+02  0.00000000000E+00 0. -1.
</event>
<event>
 7    1  0.2693725E-009  0.1077324E+03  0.7561462E-02  0.1264828E+00
          1   -1    0    0  501    0  0.00000000000E+00  0.00000000000E+00  0.32151977236E+03  0.32151977236E+03  0.00000000000E+00 0. -1.
         -1   -1    0    0    0  501 -0.00000000000E+00 -0.00000000000E+00 -0.11231429134E+03  0.11231429134E+03  0.00000000000E+00 0.  1.
         25    2    1    2    0    0  0.41952283839E+02  0.82320912990E+01 -0.60391843930E+02  0.14533601842E+03  0.12509045523E+03 0.  0.
          5    1    3    3  502    0  0.76300181156E+02 -0.57166277391E+01 -0.27536365223E+01  0.76677587281E+02  0.41800000000E+01 0. -1.
         -5    1    3    3    0  502 -0.34347897317E+02  0.13948719038E+02 -0.57638207407E+02  0.68658431136E+02  0.41800000000E+01 0. -1.
        -11    1    1    2    0    0  0.70349595314E+01  0.35300522910E+02  0.11731569315E+03  0.12271344438E+03  0.00000000000E+00 0.  1.
         11    1    1    2    0    0 -0.48987243371E+02 -0.43532614209E+02  0.15228163181E+03  0.16578460091E+03  0.00000000000E+00 0. -1.
</event>
<event>
 7    1  0.2693725E-009  0.1139750E+03  0.7561462E-02  0.1253381E+00
         -2   -1    0    0    0  501 -0.00000000000E+00  0.00000000000E+00  0.48486115363E+02  0.48486115363E+02  0.00000000000E+00 0.  1.
          2   -1    0    0  501    0  0.00000000000E+00 -0.00000000000E+00 -0.30091423395E+03  0.30091423395E+03  0.00000000000E+00 0. -1.
         25    2    1    2    0    0  0.56283240419E+02 -0.17067903315E+01 -0.17648343045E+03  0.22352632797E+03  0.12508757646E+03 0.  0.
          5    1    3    3  502    0 -0.62144417140E+01 -0.54419988993E+02 -0.62834658472E+02  0.83461495272E+02  0.41800000000E+01 0.  1.
         -5    1    3    3    0  502  0.62497682133E+02  0.52713198661E+02 -0.11364877198E+03  0.14006483269E+03  0.41800000000E+01 0.  1.
        -11    1    1    2    0    0  0.17147384731E+02 -0.36260035302E+01  0.31598291353E+01  0.17809133187E+02  0.00000000000E+00 0.  1.
         11    1    1    2    0    0 -0.73430625150E+02  0.53327938618E+01 -0.79104517271E+02  0.10806488816E+03  0.00000000000E+00 0. -1.
</event>
<event>
 7    1  0.2693725E-009  0.9754970E+02  0.7561462E-02  0.1285535E+00
          1   -1    0    0  501    0  0.00000000000E+00  0.00000000000E+00  0.25558024398E+03  0.25558024398E+03  0.00000000000E+00 0. -1.
         -1   -1    0    0    0  501 -0.00000000000E+00 -0.00000000000E+00 -0.64041419996E+02  0.64041419996E+02  0.00000000000E+00 0.  1.
         25    2    1    2    0    0  0.34603372800E+02 -0.25459292569E+02  0.17369020646E+03  0.21831321195E+03  0.12508717642E+03 0.  0.
          5    1    3    3  502    0 -0.16338294241E+02  0.38610705960E+02  0.26300718769E+02  0.49668165672E+02  0.41800000000E+01 0.  1.
         -5    1    3    3    0  502  0.50941667041E+02 -0.64069998529E+02  0.14738948769E+03  0.16864504628E+03  0.41800000000E+01 0.  1.
        -11    1    1    2    0    0  0.88278632382E+01  0.26118203096E+02  0.43027225547E+02  0.51102190175E+02  0.00000000000E+00 0. -1.
         11    1    1    2    0    0 -0.43431236039E+02 -0.65891052719E+00 -0.25178608024E+02  0.50206261850E+02  0.00000000000E+00 0.  1.
</event>
<event>
 7    1  0.4443844E-009  0.1485597E+03  0.7561462E-02  0.1202254E+00
         -2   -1    0    0    0  501 -0.00000000000E+00  0.00000000000E+00  0.26337367420E+02  0.26337367420E+02  0.00000000000E+00 0.  1.
          2   -1    0    0  501    0  0.00000000000E+00 -0.00000000000E+00 -0.10062273317E+04  0.10062273317E+04  0.00000000000E+00 0. -1.
         25    2    1    2    0    0  0.48224150602E+02  0.97781230806E+02 -0.69091961622E+03  0.71056615932E+03  0.12509041887E+03 0.  0.
          5    1    3    3  502    0  0.76865786974E+02  0.25220673368E+02 -0.45193065400E+03  0.45913311795E+03  0.41800000000E+01 0. -1.
         -5    1    3    3    0  502 -0.28641636372E+02  0.72560557439E+02 -0.23898896222E+03  0.25143304137E+03  0.41800000000E+01 0. -1.
        -11    1    1    2    0    0 -0.71930228881E+02 -0.61412992064E+02 -0.23069507806E+03  0.24933056864E+03  0.00000000000E+00 0. -1.
         11    1    1    2    0    0  0.23706078279E+02 -0.36368238743E+02 -0.58275269960E+02  0.72667971112E+02  0.00000000000E+00 0.  1.
</event>
<event>
 7    1  0.2693725E-009  0.2039160E+03  0.7561462E-02  0.1146477E+00
          1   -1    0    0  501    0  0.00000000000E+00  0.00000000000E+00  0.34674471350E+03  0.34674471350E+03  0.00000000000E+00 0. -1.
         -1   -1    0    0    0  501 -0.00000000000E+00 -0.00000000000E+00 -0.14505442551E+03  0.14505442551E+03  0.00000000000E+00 0.  1.
         25    2    1    2    0    0 -0.39520794269E+02 -0.17397313208E+03  0.30267177303E+02  0.21998136253E+03  0.12508858451E+03 0.  0.
          5    1    3    3  502    0 -0.19230508783E+02  0.15672458050E+02 -0.58256288703E+01  0.25823414977E+02  0.41800000000E+01 0.  1.
         -5    1    3    3    0  502 -0.20290285486E+02 -0.18964559013E+03  0.36092806173E+02  0.19415794755E+03  0.41800000000E+01 0.  1.
        -11    1    1    2    0    0 -0.11598630170E+02  0.10710304101E+03  0.38335633328E+02  0.11434688626E+03  0.00000000000E+00 0.  1.
         11    1    1    2    0    0  0.51119424439E+02  0.66870091072E+02  0.13308747736E+03  0.15747089021E+03  0.00000000000E+00 0. -1.
</event>
<event>
 7    1  0.2693725E-009  0.1291342E+03  0.7561462E-02  0.1228746E+00
         -4   -1    0    0    0  501 -0.00000000000E+00  0.00000000000E+00  0.28922386201E+02  0.28922386201E+02  0.00000000000E+00 0. -1.
          4   -1    0    0  501    0  0.00000000000E+00 -0.00000000000E+00 -0.79776434268E+03  0.79776434268E+03  0.00000000000E+00 0.  1.
         25    2    1    2    0    0  0.74664929236E+02  0.72645514923E+02 -0.45436548344E+03  0.48264714046E+03  0.12509215463E+03 0.  0.
          5    1    3    3  502    0  0.68262180296E+02 -0.10644711973E+02 -0.12558908813E+03  0.14339848886E+03  0.41800000000E+01 0.  1.
         -5    1    3    3    0  502  0.64027489399E+01  0.83290226896E+02 -0.32877639532E+03  0.33924865159E+03  0.41800000000E+01 0.  1.
        -11    1    1    2    0    0 -0.19205124824E+02 -0.96788650203E+01 -0.33112789985E+01  0.21759637318E+02  0.00000000000E+00 0. -1.
         11    1    1    2    0    0 -0.55459804412E+02 -0.62966649903E+02 -0.31116519403E+03  0.32227995110E+03  0.00000000000E+00 0.  1.
</event>
<event>
 7    1  0.2693725E-009  0.8869350E+02  0.7561462E-02  0.1306047E+00
          1   -1    0    0  501    0  0.00000000000E+00  0.00000000000E+00  0.23208563716E+03  0.23208563716E+03  0.00000000000E+00 0. -1.
         -1   -1    0    0    0  501 -0.00000000000E+00 -0.00000000000E+00 -0.80314833613E+02  0.80314833613E+02  0.00000000000E+00 0.  1.
         25    2    1    2    0    0 -0.11094310025E+02  0.23155551966E+02  0.17552429997E+03  0.21706745172E+03  0.12510090095E+03 0.  0.
          5    1    3    3  502    0 -0.96882823188E+01  0.71740891633E+02  0.13661350168E+03  0.15466525010E+03  0.41800000000E+01 0. -1.
         -5    1    3    3    0  502 -0.14060277066E+01 -0.48585339666E+02  0.38910798282E+02  0.62402201622E+02  0.41800000000E+01 0. -1.
        -11    1    1    2    0    0 -0.13505769224E+02 -0.27935562534E+02  0.25439650679E+02  0.40124522217E+02  0.00000000000E+00 0. -1.
         11    1    1    2    0    0  0.24600079250E+02  0.47800105675E+01 -0.49193147103E+02  0.55208496828E+02  0.00000000000E+00 0.  1.
</event>
<event>
 7    1  0.2693725E-009  0.1574723E+03  0.7561462E-02  0.1191580E+00
          1   -1    0    0  501    0  0.00000000000E+00  0.00000000000E+00  0.59673915169E+02  0.59673915169E+02  0.00000000000E+00 0. -1.
         -1   -1    0    0    0  501 -0.00000000000E+00 -0.00000000000E+00 -0.47705131080E+03  0.47705131080E+03  0.00000000000E+00 0.  1.
         25    2    1    2    0    0  0.12545862707E+03  0.32301478214E+01 -0.17672821950E+03  0.25025531388E+03  0.12507820592E+03 0.  0.
          5    1    3    3  502    0 -0.16189585896E+02 -0.27002082557E+02 -0.39532024718E+02  0.50709649301E+02  0.41800000000E+01 0.  1.
         -5    1    3    3    0  502  0.14164821296E+03  0.30232230378E+02 -0.13719619478E+03  0.19954566458E+03  0.41800000000E+01 0.  1.
        -11    1    1    2    0    0 -0.80763371709E+02 -0.30036924656E+02 -0.20755920221E+03  0.22473486929E+03  0.00000000000E+00 0. -1.
         11    1    1    2    0    0 -0.44695255356E+02  0.26806776835E+02 -0.33089973918E+02  0.61735042800E+02  0.00000000000E+00 0.  1.
</event>
<event>
 7    1  0.2693725E-009  0.1309560E+03  0.7561462E-02  0.1226044E+00
          2   -1    0    0  501    0  0.00000000000E+00  0.00000000000E+00  0.14891250991E+03  0.14891250991E+03  0.00000000000E+00 0. -1.
         -2   -1    0    0    0  501 -0.00000000000E+00 -0.00000000000E+00 -0.19796943983E+03  0.19796943983E+03  0.00000000000E+00 0.  1.
         25    2    1    2    0    0 -0.56279341041E+02  0.11619355304E+03  0.63439704774E+01  0.17987869856E+03  0.12509114372E+03 0.  0.
          5    1    3    3  502    0 -0.19890795196E+02  0.74763303145E+02  0.63629436637E+02  0.10025653514E+03  0.41800000000E+01 0.  1.
         -5    1    3    3    0  502 -0.36388545845E+02  0.41430249894E+02 -0.57285466159E+02  0.79622163422E+02  0.41800000000E+01 0.  1.
        -11    1    1    2    0    0  0.16607753725E+02 -0.31453242051E+02 -0.63815825009E+02  0.73058767036E+02  0.00000000000E+00 0. -1.
         11    1    1    2    0    0  0.39671587316E+02 -0.84740310988E+02  0.84149246091E+01  0.93944484152E+02  0.00000000000E+00 0.  1.
</event>
<event>
 7    1  0.2693725E-009  0.6428395E+02  0.7561462E-02  0.1380685E+00
         -1   -1    0    0    0  501 -0.00000000000E+00  0.00000000000E+00  0.57968260333E+02  0.57968260333E+02  0.00000000000E+00 0.  1.
          1   -1    0    0  501    0  0.00000000000E+00 -0.00000000000E+00 -0.24855092740E+03  0.24855092740E+03  0.00000000000E+00 0. -1.
         25    2    1    2    0    0  0.66009679393E+01  0.22804691492E+02 -0.58303680438E+02  0.14003608506E+03  0.12508860553E+03 0.  0.
          5    1    3    3  502    0  0.10572650833E+02  0.24427414937E+02 -0.97105748894E+02  0.10077439364E+03  0.41800000000E+01 0.  1.
         -5    1    3    3    0  502 -0.39716828935E+01 -0.16227234454E+01  0.38802068456E+02  0.39261691416E+02  0.41800000000E+01 0.  1.
        -11    1    1    2    0    0 -0.36692118150E+02 -0.45131464313E+02 -0.52547797795E+02  0.78386425218E+02  0.00000000000E+00 0.  1.
         11    1    1    2    0    0  0.30091150210E+02  0.22326772821E+02 -0.79731188831E+02  0.88096677452E+02  0.00000000000E+00 0. -1.
</event>
<event>
 7    1  0.2693725E-009  0.6884262E+02  0.7561462E-02  0.1364074E+00
         -1   -1    0    0    0  501 -0.00000000000E+00  0.00000000000E+00  0.15947217497E+03  0.15947217497E+03  0.00000000000E+00 0.  1.
          1   -1    0    0  501    0  0.00000000000E+00 -0.00000000000E+00 -0.85763954414E+02  0.85763954414E+02  0.00000000000E+00 0. -1.
         25    2    1    2    0    0 -0.41521537247E+02  0.22304033218E+01  0.58852700373E+02  0.14436650963E+03  0.12509610708E+03 0.  0.
          5    1    3    3  502    0 -0.36267916568E+02  0.21809163433E+02  0.94228653764E+02  0.10338042838E+03  0.41800000000E+01 0. -1.
         -5    1    3    3    0  502 -0.52536206787E+01 -0.19578760112E+02 -0.35375953391E+02  0.40986081248E+02  0.41800000000E+01 0. -1.
        -11    1    1    2    0    0  0.43447042084E+02  0.22998688494E+02  0.41347682489E+02  0.64235628630E+02  0.00000000000E+00 0.  1.
         11    1    1    2    0    0 -0.19255048373E+01 -0.25229091816E+02 -0.26492162302E+02  0.36633991131E+02  0.00000000000E+00 0. -1.
</event>
<event>
 7    1  0.2693725E-009  0.1314344E+03  0.7561462E-02  0.1225343E+00
          1   -1    0    0  501    0  0.00000000000E+00  0.00000000000E+00  0.43695690820E+03  0.43695690820E+03  0.00000000000E+00 0. -1.
         -1   -1    0    0    0  501 -0.00000000000E+00 -0.00000000000E+00 -0.51240145345E+02  0.51240145345E+02  0.00000000000E+00 0.  1.
         25    2    1    2    0    0  0.89985794418E+02 -0.31749304892E+02  0.23029598858E+03  0.27890796831E+03  0.12509176981E+03 0.  0.
          5    1    3    3  502    0  0.94303425099E+02 -0.40823312755E+01  0.23204313972E+03  0.25054199749E+03  0.41800000000E+01 0. -1.
         -5    1    3    3    0  502 -0.43176306806E+01 -0.27666973616E+02 -0.17471511404E+01  0.28365970826E+02  0.41800000000E+01 0. -1.
        -11    1    1    2    0    0 -0.37116555506E+02  0.66954496907E+02  0.88725540441E+02  0.11718688013E+03  0.00000000000E+00 0.  1.
         11    1    1    2    0    0 -0.52869238913E+02 -0.35205192015E+02  0.66695233836E+02  0.92102205101E+02  0.00000000000E+00 0. -1.
</event>
<event>
 7    1  0.2693725E-009  0.8235455E+02  0.7561462E-02  0.1322499E+00
          1   -1    0    0  501    0  0.00000000000E+00  0.00000000000E+00  0.63345647996E+02  0.63345647996E+02  0.00000000000E+00 0. -1.
         -1   -1    0    0    0  501 -0.00000000000E+00 -0.00000000000E+00 -0.25683810985E+03  0.25683810985E+03  0.00000000000E+00 0.  1.
         25    2    1    2    0    0  0.19022589657E+02 -0.11204528726E+02 -0.31190551489E+02  0.13079647961E+03  0.12508984050E+03 0.  0.
          5    1    3    3  502    0 -0.70816596543E+00  0.31350517859E+02  0.36521641999E+02  0.48318311264E+02  0.41800000000E+01 0.  1.
         -5    1    3    3    0  502  0.19730755623E+02 -0.42555046585E+02 -0.67712193487E+02  0.82478168349E+02  0.41800000000E+01 0.  1.
        -11    1    1    2    0    0  0.30837543115E+02 -0.90887271631E+01 -0.10895781809E+03  0.11360178322E+03  0.00000000000E+00 0.  1.
         11    1    1    2    0    0 -0.49860132772E+02  0.20293255889E+02 -0.53344092279E+02  0.75785495022E+02  0.00000000000E+00 0. -1.
</event>
<event>
 7    1  0.2693725E-009  0.7358005E+02  0.7561462E-02  0.1348325E+00
          1   -1    0    0  501    0  0.00000000000E+00  0.00000000000E+00  0.15947390262E+03  0.15947390262E+03  0.00000000000E+00 0. -1.
         -1   -1    0    0    0  501 -0.00000000000E+00 -0.00000000000E+00 -0.79987785064E+02  0.79987785064E+02  0.00000000000E+00 0.  1.
         25    2    1    2    0    0  0.15171478232E+02 -0.92317506502E+01  0.66640265065E+02  0.14283998473E+03  0.12508771858E+03 0.  0.
          5    1    3    3  502    0  0.17522600346E+02 -0.49269581671E+02 -0.12580560009E+02  0.53946974809E+02  0.41800000000E+01 0.  1.
         -5    1    3    3    0  502 -0.23511221137E+01  0.40037831021E+02  0.79220825075E+02  0.88893009925E+02  0.41800000000E+01 0.  1.
        -11    1    1    2    0    0 -0.34083038255E+02  0.20412862505E+01  0.46298158099E+02  0.57526861462E+02  0.00000000000E+00 0. -1.
         11    1    1    2    0    0  0.18911560023E+02  0.71904643996E+01 -0.33452305606E+02  0.39094841490E+02  0.00000000000E+00 0.  1.
</event>
<event>
 7    1  0.2693725E-009  0.1384444E+03  0.7561462E-02  0.1215438E+00
          1   -1    0    0  501    0  0.00000000000E+00  0.00000000000E+00  0.83009084299E+02  0.83009084299E+02  0.00000000000E+00 0.  1.
         -1   -1    0    0    0  501 -0.00000000000E+00 -0.00000000000E+00 -0.33041017099E+03  0.33041017099E+03  0.00000000000E+00 0. -1.
         25    2    1    2    0    0  0.91365818514E+02 -0.43500801826E+02 -0.22280183565E+03  0.27482685130E+03  0.12509639354E+03 0.  0.
          5    1    3    3  502    0  0.30831766119E+02 -0.82530749777E+02 -0.11114948809E+03  0.14189292992E+03  0.41800000000E+01 0.  1.
         -5    1    3    3    0  502  0.60534052395E+02  0.39029947951E+02 -0.11165234756E+03  0.13293392138E+03  0.41800000000E+01 0.  1.
        -11    1    1    2    0    0 -0.38412888274E+02 -0.11594286982E+02  0.25199801251E+02  0.47381509677E+02  0.00000000000E+00 0.  1.
         11    1    1    2    0    0 -0.52952930240E+02  0.55095088808E+02 -0.49799052295E+02  0.91210894313E+02  0.00000000000E+00 0. -1.
</event>
<event>
 7    1  0.2693725E-009  0.1011706E+03  0.7561462E-02  0.1277853E+00
         -4   -1    0    0    0  501 -0.00000000000E+00  0.00000000000E+00  0.19052775838E+03  0.19052775838E+03  0.00000000000E+00 0.  1.
          4   -1    0    0  501    0  0.00000000000E+00 -0.00000000000E+00 -0.66606939349E+02  0.66606939349E+02  0.00000000000E+00 0. -1.
         25    2    1    2    0    0 -0.16280766950E+02 -0.20012411253E+02  0.90915349679E+02  0.15677633290E+03  0.12509059826E+03 0.  0.
          5    1    3    3  502    0  0.40860416724E+02 -0.38870564468E+02  0.12620690234E+02  0.57941769553E+02  0.41800000000E+01 0. -1.
         -5    1    3    3    0  502 -0.57141183674E+02  0.18858153215E+02  0.78294659446E+02  0.98834563347E+02  0.41800000000E+01 0. -1.
        -11    1    1    2    0    0  0.10173561678E+02 -0.31755900629E+02 -0.76969996336E+01  0.34222542065E+02  0.00000000000E+00 0. -1.
         11    1    1    2    0    0  0.61072052726E+01  0.51768311883E+02  0.40702468987E+02  0.66135822767E+02  0.00000000000E+00 0.  1.
</event>
<event>
 7    1  0.2693725E-009  0.1071749E+03  0.7561462E-02  0.1265893E+00
         -2   -1    0    0    0  501 -0.00000000000E+00  0.00000000000E+00  0.21484108306E+02  0.21484108306E+02  0.00000000000E+00 0.  1.
          2   -1    0    0  501    0  0.00000000000E+00 -0.00000000000E+00 -0.81940848126E+03  0.81940848126E+03  0.00000000000E+00 0. -1.
         25    2    1    2    0    0 -0.74751451692E+02  0.50765417861E+01 -0.40869897743E+03  0.43392960856E+03  0.12508597132E+03 0.  0.
          5    1    3    3  502    0 -0.57569096470E+02 -0.26291950866E+02 -0.74699857424E+02  0.97994941951E+02  0.41800000000E+01 0. -1.
         -5    1    3    3    0  502 -0.17182355222E+02  0.31368492652E+02 -0.33399912001E+03  0.33593466661E+03  0.41800000000E+01 0. -1.
        -11    1    1    2    0    0  0.56317390303E+02 -0.44248391325E+02 -0.18910736011E+03  0.20221563301E+03  0.00000000000E+00 0.  1.
         11    1    1    2    0    0  0.18434061389E+02  0.39171849539E+02 -0.20011803540E+03  0.20474734799E+03  0.00000000000E+00 0. -1.
</event>
<event>
 7    1  0.2693725E-009  0.2107037E+03  0.7561462E-02  0.1141010E+00
         -1   -1    0    0    0  501 -0.00000000000E+00  0.00000000000E+00  0.69168062663E+02  0.69168062663E+02  0.00000000000E+00 0.  1.
          1   -1    0    0  501    0  0.00000000000E+00 -0.00000000000E+00 -0.88978122226E+03  0.88978122226E+03  0.00000000000E+00 0. -1.
         25    2    1    2    0    0 -0.20468841071E+03 -0.22023355450E+02 -0.51708753715E+03  0.57044614421E+03  0.12508760411E+03 0.  0.
          5    1    3    3  502    0 -0.11279750386E+03 -0.25552568424E+02 -0.42407412259E+03  0.43958223859E+03  0.41800000000E+01 0.  1.
         -5    1    3    3    0  502 -0.91890906853E+02  0.35292129740E+01 -0.93013414556E+02  0.13086390562E+03  0.41800000000E+01 0.  1.
        -11    1    1    2    0    0  0.50831334957E+02 -0.19203760270E+02 -0.11026400281E+02  0.55445383263E+02  0.00000000000E+00 0.  1.
         11    1    1    2    0    0  0.15385707576E+03  0.41227115720E+02 -0.29249922217E+03  0.33305775746E+03  0.00000000000E+00 0. -1.
</event>
<event>
 7    1  0.2693725E-009  0.5534808E+02  0.7561462E-02  0.1418460E+00
          1   -1    0    0  501    0  0.00000000000E+00  0.00000000000E+00  0.14291886524E+03  0.14291886524E+03  0.00000000000E+00 0. -1.
         -1   -1    0    0    0  501 -0.00000000000E+00 -0.00000000000E+00 -0.91405306800E+02  0.91405306800E+02  0.00000000000E+00 0.  1.
         25    2    1    2    0    0 -0.88044131705E+01 -0.19426899366E+02 -0.42504195107E+01  0.12696842771E+03  0.12509194002E+03 0.  0.
          5    1    3    3  502    0  0.58625152281E+01  0.11658926615E+01  0.58622212595E+02  0.59074229576E+02  0.41800000000E+01 0. -1.
         -5    1    3    3    0  502 -0.14666928399E+02 -0.20592792027E+02 -0.62872632105E+02  0.67894198132E+02  0.41800000000E+01 0. -1.
        -11    1    1    2    0    0  0.40158144813E+02 -0.13212978035E+01  0.94973527412E-01  0.40179988087E+02  0.00000000000E+00 0.  1.
         11    1    1    2    0    0 -0.31353731643E+02  0.20748197169E+02  0.55669004426E+02  0.67175756248E+02  0.00000000000E+00 0. -1.
</event>
<event>
 7    1  0.2693725E-009  0.1458778E+03  0.7561462E-02  0.1205632E+00
         -2   -1    0    0    0  501 -0.00000000000E+00  0.00000000000E+00  0.56860235113E+02  0.56860235113E+02  0.00000000000E+00 0. -1.
          2   -1    0    0  501    0  0.00000000000E+00 -0.00000000000E+00 -0.89249734389E+03  0.89249734389E+03  0.00000000000E+00 0.  1.
         25    2    1    2    0    0 -0.19205462161E+02 -0.12687725435E+03 -0.74728081960E+03  0.76846906487E+03  0.12509753342E+03 0.  0.
          5    1    3    3  502    0 -0.22905450407E+02 -0.13358974337E+02 -0.23073167320E+02  0.35397249948E+02  0.41800000000E+01 0.  1.
         -5    1    3    3    0  502  0.36999882454E+01 -0.11351828001E+03 -0.72420765228E+03  0.73307181492E+03  0.41800000000E+01 0.  1.
        -11    1    1    2    0    0 -0.15681323330E+02 -0.36890875574E+01  0.47256313202E+01  0.16788235755E+02  0.00000000000E+00 0. -1.
         11    1    1    2    0    0  0.34886785492E+02  0.13056634191E+03 -0.93081920501E+02  0.16410027838E+03  0.00000000000E+00 0.  1.
</event>
<event>
 7    1  0.2693725E-009  0.1264623E+03  0.7561462E-02  0.1232801E+00
         -3   -1    0    0    0  501 -0.00000000000E+00  0.00000000000E+00  0.13494897377E+03  0.13494897377E+03  0.00000000000E+00 0.  1.
          3   -1    0    0  501    0  0.00000000000E+00 -0.00000000000E+00 -0.17227093887E+03  0.17227093887E+03  0.00000000000E+00 0. -1.
         25    2    1    2    0    0  0.10240324790E+03 -0.12282096973E+02  0.67857154067E+01  0.16226687216E+03  0.12508883556E+03 0.  0.
          5    1    3    3  502    0  0.10255321307E+02 -0.23202487559E+02 -0.47982130726E+02  0.54436057104E+02  0.41800000000E+01 0. -1.
         -5    1    3    3    0  502  0.92147926591E+02  0.10920390586E+02  0.54767846132E+02  0.10783081506E+03  0.41800000000E+01 0. -1.
        -11    1    1    2    0    0 -0.27190334286E+02  0.44784615874E+02 -0.10725561289E+01  0.52403496775E+02  0.00000000000E+00 0.  1.
         11    1    1    2    0    0 -0.75212913612E+02 -0.32502518901E+02 -0.43035124378E+02  0.92549543700E+02  0.00000000000E+00 0. -1.
</event>
<event>
 7    1  0.2693725E-009  0.8657196E+02  0.7561462E-02  0.1311372E+00
         -1   -1    0    0    0  501 -0.00000000000E+00  0.00000000000E+00  0.11127618190E+03  0.11127618190E+03  0.00000000000E+00 0.  1.
          1   -1    0    0  501    0  0.00000000000E+00 -0.00000000000E+00 -0.40454893596E+03  0.40454893596E+03  0.00000000000E+00 0. -1.
         25    2    1    2    0    0  0.94320379560E+01  0.35148214842E+02  0.65542848672E+02  0.14584912601E+03  0.12510692306E+03 0.  0.
          5    1    3    3  502    0 -0.19315789290E+02  0.52153947970E+02  0.88851241738E+02  0.10490543152E+03  0.41800000000E+01 0.  1.
         -5    1    3    3    0  502  0.28747827246E+02 -0.17005733128E+02 -0.23308393066E+02  0.40943694483E+02  0.41800000000E+01 0.  1.
        -11    1    1    2    0    0  0.31460005219E+02 -0.28164767940E+02 -0.24961309777E+03  0.25315940564E+03  0.00000000000E+00 0.  1.
         11    1    1    2    0    0 -0.40892043175E+02 -0.69834469023E+01 -0.10920250496E+03  0.11681658622E+03  0.00000000000E+00 0. -1.
</event>
<event>
 7    1  0.2693725E-009  0.2831916E+03  0.7561462E-02  0.1093958E+00
         -2   -1    0    0    0  501 -0.00000000000E+00  0.00000000000E+00  0.98097166023E+02  0.98097166023E+02  0.00000000000E+00 0.  1.
          2   -1    0    0  501    0  0.00000000000E+00 -0.00000000000E+00 -0.90507625310E+03  0.90507625310E+03  0.00000000000E+00 0. -1.
         25    2    1    2    0    0 -0.80832978690E+02 -0.25413455888E+03 -0.54123520924E+03  0.61620038741E+03  0.12509604813E+03 0.  0.
          5    1    3    3  502    0  0.23922876978E+02 -0.39525495082E+02 -0.15762577063E+03  0.16431045241E+03  0.41800000000E+01 0. -1.
         -5    1    3    3    0  502 -0.10475585567E+03 -0.21460906380E+03 -0.38360943861E+03  0.45188993500E+03  0.41800000000E+01 0. -1.
        -11    1    1    2    0    0  0.11629978608E+02  0.17753145558E+03 -0.16198810392E+03  0.24060926818E+03  0.00000000000E+00 0. -1.
         11    1    1    2    0    0  0.69203000082E+02  0.76603103301E+02 -0.10375577392E+03  0.14636376354E+03  0.00000000000E+00 0.  1.
</event>
<event>
 7    1  0.2693725E-009  0.1740902E+03  0.7561462E-02  0.1173648E+00
          1   -1    0    0  501    0  0.00000000000E+00  0.00000000000E+00  0.17598561132E+03  0.17598561132E+03  0.00000000000E+00 0. -1.
         -1   -1    0    0    0  501 -0.00000000000E+00 -0.00000000000E+00 -0.22185128523E+03  0.22185128523E+03  0.00000000000E+00 0.  1.
         25    2    1    2    0    0 -0.14800049839E+03  0.12967054149E+02  0.48521658822E+02  0.20018231864E+03  0.12508524016E+03 0.  0.
          5    1    3    3  502    0 -0.15094164649E+03  0.47813013463E+02  0.45704856128E+02  0.16485105755E+03  0.41800000000E+01 0.  1.
         -5    1    3    3    0  502  0.29411481042E+01 -0.34845959314E+02  0.28168026941E+01  0.35331261089E+02  0.41800000000E+01 0.  1.
        -11    1    1    2    0    0  0.12112896065E+03  0.66367721126E+01 -0.29664689917E+02  0.12488500983E+03  0.00000000000E+00 0. -1.
         11    1    1    2    0    0  0.26871537737E+02 -0.19603826261E+02 -0.64722642820E+02  0.72769568077E+02  0.00000000000E+00 0.  1.
</event>
<event>
 7    1  0.2693725E-009  0.1577296E+03  0.7561462E-02  0.1191284E+00
          1   -1    0    0  501    0  0.00000000000E+00  0.00000000000E+00  0.17038128032E+04  0.17038128032E+04  0.00000000000E+00 0. -1.
         -1   -1    0    0    0  501 -0.00000000000E+00 -0.00000000000E+00 -0.19283303360E+02  0.19283303360E+02  0.00000000000E+00 0.  1.
         25    2    1    2    0    0  0.12690700740E+03 -0.14725456219E+02  0.12169675745E+04  0.12300320602E+04  0.12508622697E+03 0.  0.
          5    1    3    3  502    0 -0.51202532922E+01 -0.30188098326E+02  0.49178141101E+03  0.49275142506E+03  0.41800000000E+01 0.  1.
         -5    1    3    3    0  502  0.13202726069E+03  0.15462642107E+02  0.72518616346E+03  0.73728063513E+03  0.41800000000E+01 0.  1.
        -11    1    1    2    0    0 -0.23931696784E+02 -0.30771546231E+02  0.73009235934E+02  0.82764501449E+02  0.00000000000E+00 0. -1.
         11    1    1    2    0    0 -0.10297531062E+03  0.45497002450E+02  0.39455268948E+03  0.41029954497E+03  0.00000000000E+00 0.  1.
</event>
<event>
 7    1  0.2693725E-009  0.1926984E+03  0.7561462E-02  0.1156050E+00
         -2   -1    0    0    0  501 -0.00000000000E+00  0.00000000000E+00  0.44542894901E+02  0.44542894901E+02  0.00000000000E+00 0.  1.
          2   -1    0    0  501    0  0.00000000000E+00 -0.00000000000E+00 -0.96099455834E+03  0.96099455834E+03  0.00000000000E+00 0. -1.
         25    2    1    2    0    0  0.40229313793E+01  0.16660304862E+03 -0.34824168459E+03  0.40581866783E+03  0.12507501945E+03 0.  0.
          5    1    3    3  502    0 -0.44717410221E+02  0.36212561370E+02 -0.48753084052E+02  0.75533648015E+02  0.41800000000E+01 0. -1.
         -5    1    3    3    0  502  0.48740341600E+02  0.13039048725E+03 -0.29948860054E+03  0.33028501982E+03  0.41800000000E+01 0. -1.
        -11    1    1    2    0    0 -0.44907907100E+02 -0.10818042344E+03 -0.29623456936E+03  0.31855085028E+03  0.00000000000E+00 0.  1.
         11    1    1    2    0    0  0.40884975720E+02 -0.58422625181E+02 -0.27197540949E+03  0.28116793512E+03  0.00000000000E+00 0. -1.
</event>
<event>
 7    1  0.2693725E-009  0.1208996E+03  0.7561462E-02  0.1241620E+00
         -1   -1    0    0    0  501 -0.00000000000E+00  0.00000000000E+00  0.19710995338E+03  0.19710995338E+03  0.00000000000E+00 0.  1.
          1   -1    0    0  501    0  0.00000000000E+00 -0.00000000000E+00 -0.10413848967E+03  0.10413848967E+03  0.00000000000E+00 0. -1.
         25    2    1    2    0    0 -0.65363439779E+02  0.56952354812E+02  0.85142066344E+02  0.17439272045E+03  0.12509076507E+03 0.  0.
          5    1    3    3  502    0 -0.13815040435E+01 -0.34468526304E+02  0.13300361447E+01  0.34773973818E+02  0.41800000000E+01 0.  1.
         -5    1    3    3    0  502 -0.63981935736E+02  0.91420881116E+02  0.83812030199E+02  0.13961874663E+03  0.41800000000E+01 0.  1.
        -11    1    1    2    0    0  0.37967252451E+02 -0.56394694747E+02 -0.34649889852E+02  0.76305233904E+02  0.00000000000E+00 0. -1.
         11    1    1    2    0    0  0.27396187328E+02 -0.55766006522E+00  0.42479287224E+02  0.50550488701E+02  0.00000000000E+00 0.  1.
</event>
<event>
 7    1  0.2693725E-009  0.1050969E+03  0.7561462E-02  0.1269929E+00
         -1   -1    0    0    0  501 -0.00000000000E+00  0.00000000000E+00  0.22928442033E+02  0.22928442033E+02  0.00000000000E+00 0.  1.
          1   -1    0    0  501    0  0.00000000000E+00 -0.00000000000E+00 -0.82635502483E+03  0.82635502483E+03  0.00000000000E+00 0. -1.
         25    2    1    2    0    0  0.21054910565E+02  0.50302536610E+02 -0.63252294109E+03  0.64707576042E+03  0.12509242291E+03 0.  0.
          5    1    3    3  502    0 -0.48560394847E+02  0.51738540375E+01 -0.31860453171E+03  0.32235260313E+03  0.41800000000E+01 0.  1.
         -5    1    3    3    0  502  0.69615305412E+02  0.45128682572E+02 -0.31391840937E+03  0.32472315729E+03  0.41800000000E+01 0.  1.
        -11    1    1    2    0    0 -0.24889752185E+02  0.26408602725E+01 -0.13689800681E+03  0.13916730283E+03  0.00000000000E+00 0.  1.
         11    1    1    2    0    0  0.38348416205E+01 -0.52943396882E+02 -0.34005634898E+02  0.63040403620E+02  0.00000000000E+00 0. -1.
</event>
<event>
 7    1  0.2693725E-009  0.9469935E+02  0.7561462E-02  0.1291855E+00
          1   -1    0    0  501    0  0.00000000000E+00  0.00000000000E+00  0.37153028071E+03  0.37153028071E+03  0.00000000000E+00 0. -1.
         -1   -1    0    0    0  501 -0.00000000000E+00 -0.00000000000E+00 -0.39231394674E+02  0.39231394674E+02  0.00000000000E+00 0.  1.
         25    2    1    2    0    0 -0.11145161071E+02 -0.12423713655E+02  0.98267291660E+02  0.15994511301E+03  0.12508962903E+03 0.  0.
          5    1    3    3  502    0  0.20832665262E+02  0.50849046175E+02  0.45599371661E+02  0.71529018830E+02  0.41800000000E+01 0. -1.
         -5    1    3    3    0  502 -0.31977826333E+02 -0.63272759830E+02  0.52667919999E+02  0.88416094183E+02  0.41800000000E+01 0. -1.
        -11    1    1    2    0    0 -0.11000653503E+02 -0.20691146139E+02  0.14191096024E+02  0.27395713394E+02  0.00000000000E+00 0.  1.
         11    1    1    2    0    0  0.22145814574E+02  0.33114859794E+02  0.21984049835E+03  0.22342084897E+03  0.00000000000E+00 0. -1.
</event>
<event>
 7    1  0.2693725E-009  0.8512796E+02  0.7561462E-02  0.1315098E+00
         -2   -1    0    0    0  501 -0.00000000000E+00  0.00000000000E+00  0.46105401689E+03  0.46105401689E+03  0.00000000000E+00 0.  1.
          2   -1    0    0  501    0  0.00000000000E+00 -0.00000000000E+00 -0.40520149735E+02  0.40520149735E+02  0.00000000000E+00 0. -1.
         25    2    1    2    0    0  0.30885179697E+02  0.30766887644E+02  0.36146759745E+03  0.38497666805E+03  0.12509082795E+03 0.  0.
          5    1    3    3  502    0 -0.16606274693E+02 -0.38383443922E+02  0.18253535978E+03  0.18731173774E+03  0.41800000000E+01 0. -1.
         -5    1    3    3    0  502  0.47491454390E+02  0.69150331566E+02  0.17893223767E+03  0.19766493031E+03  0.41800000000E+01 0. -1.
        -11    1    1    2    0    0 -0.10961789910E+02 -0.16169779177E+02  0.81148530051E+02  0.83466798945E+02  0.00000000000E+00 0.  1.
         11    1    1    2    0    0 -0.19923389787E+02 -0.14597108467E+02 -0.22082260343E+02  0.33130699631E+02  0.00000000000E+00 0. -1.
</event>
<event>
 7    1  0.2693725E-009  0.1184896E+03  0.7561462E-02  0.1245610E+00
          1   -1    0    0  501    0  0.00000000000E+00  0.00000000000E+00  0.22162328614E+03  0.22162328614E+03  0.00000000000E+00 0. -1.
         -1   -1    0    0    0  501 -0.00000000000E+00 -0.00000000000E+00 -0.97896604204E+02  0.97896604204E+02  0.00000000000E+00 0.  1.
         25    2    1    2    0    0 -0.10918312457E+02 -0.97324953486E+02  0.84911847786E+02  0.18013691846E+03  0.12509169189E+03 0.  0.
          5    1    3    3  502    0 -0.48365370952E+02 -0.65935285112E+02  0.99607386504E+02  0.12894097400E+03  0.41800000000E+01 0.  1.
         -5    1    3    3    0  502  0.37447058495E+02 -0.31389668374E+02 -0.14695538718E+02  0.51195944456E+02  0.41800000000E+01 0.  1.
        -11    1    1    2    0    0 -0.15574029948E+02  0.32916698984E+02  0.56784951608E+02  0.67458062601E+02  0.00000000000E+00 0. -1.
         11    1    1    2    0    0  0.26492342405E+02  0.64408254502E+02 -0.17970117459E+02  0.71924909284E+02  0.00000000000E+00 0.  1.
</event>
<event>
 7    1  0.2693725E-009  0.3147967E+03  0.7561462E-02  0.1078069E+00
         -1   -1    0    0    0  501 -0.00000000000E+00  0.00000000000E+00  0.71476481880E+02  0.71476481880E+02  0.00000000000E+00 0.  1.
          1   -1    0    0  501    0  0.00000000000E+00 -0.00000000000E+00 -0.14827782272E+04  0.14827782272E+04  0.00000000000E+00 0. -1.
         25    2    1    2    0    0  0.24265725931E+03  0.18719590316E+03 -0.67803323379E+03  0.75451996117E+03  0.12508578663E+03 0.  0.
          5    1    3    3  502    0  0.19693598060E+03  0.12356483610E+03 -0.37289338478E+03  0.43945306687E+03  0.41800000000E+01 0. -1.
         -5    1    3    3    0  502  0.45721278711E+02  0.63631067068E+02 -0.30513984902E+03  0.31506689429E+03  0.41800000000E+01 0. -1.
        -11    1    1    2    0    0 -0.17359274571E+03 -0.17849704370E+03 -0.55187924122E+03  0.60544721724E+03  0.00000000000E+00 0. -1.
         11    1    1    2    0    0 -0.69064513594E+02 -0.86988594685E+01 -0.18138927034E+03  0.19428753071E+03  0.00000000000E+00 0.  1.
</event>
<event>
 7    1  0.2693725E-009  0.1081760E+03  0.7561462E-02  0.1263985E+00
          1   -1    0    0  501    0  0.00000000000E+00  0.00000000000E+00  0.15872743279E+03  0.15872743279E+03  0.00000000000E+00 0. -1.
         -1   -1    0    0    0  501 -0.00000000000E+00 -0.00000000000E+00 -0.11360185562E+03  0.11360185562E+03  0.00000000000E+00 0.  1.
         25    2    1    2    0    0 -0.55105194569E+02 -0.33026789971E+02  0.70941581132E+02  0.15750527654E+03  0.12509137812E+03 0.  0.
          5    1    3    3  502    0 -0.29715737856E+02 -0.78485633228E+02  0.24283187261E+02  0.87465223278E+02  0.41800000000E+01 0.  1.
         -5    1    3    3    0  502 -0.25389456713E+02  0.45458843257E+02  0.46658393871E+02  0.70040053263E+02  0.41800000000E+01 0.  1.
        -11    1    1    2    0    0  0.35162946043E+02 -0.65538701505E+01 -0.52174279272E+02  0.63257737913E+02  0.00000000000E+00 0.  1.
         11    1    1    2    0    0  0.19942248526E+02  0.39580660122E+02  0.26358275310E+02  0.51566273952E+02  0.00000000000E+00 0. -1.
</event>
<event>
 7    1  0.2693725E-009  0.8707042E+02  0.7561462E-02  0.1310105E+00
         -2   -1    0    0    0  501 -0.00000000000E+00  0.00000000000E+00  0.17618997070E+03  0.17618997070E+03  0.00000000000E+00 0.  1.
          2   -1    0    0  501    0  0.00000000000E+00 -0.00000000000E+00 -0.10650421210E+03  0.10650421210E+03  0.00000000000E+00 0. -1.
         25    2    1    2    0    0 -0.12346963948E+02 -0.41174750120E+02 -0.35925682219E+02  0.13706338107E+03  0.12509159933E+03 0.  0.
          5    1    3    3  502    0  0.24187959783E+02 -0.68053022451E+01 -0.71186914728E+02  0.75607002094E+02  0.41800000000E+01 0. -1.
         -5    1    3    3    0  502 -0.36534923731E+02 -0.34369447875E+02  0.35261232509E+02  0.61456378980E+02  0.41800000000E+01 0. -1.
        -11    1    1    2    0    0  0.50383922587E+02  0.16594727625E+02  0.42608100797E+02  0.68039509800E+02  0.00000000000E+00 0. -1.
         11    1    1    2    0    0 -0.38036958639E+02  0.24580022495E+02  0.63003340028E+02  0.77591291928E+02  0.00000000000E+00 0.  1.
</event>
<event>
 7    1  0.2693725E-009  0.1284232E+03  0.7561462E-02  0.1229814E+00
          1   -1    0    0  501    0  0.00000000000E+00  0.00000000000E+00  0.12179428732E+04  0.12179428732E+04  0.00000000000E+00 0. -1.
         -1   -1    0    0    0  501 -0.00000000000E+00 -0.00000000000E+00 -0.21171909598E+02  0.21171909598E+02  0.00000000000E+00 0.  1.
         25    2    1    2    0    0 -0.91146934808E+02 -0.96728061183E+01  0.95493355303E+03  0.96744351850E+03  0.12509014301E+03 0.  0.
          5    1    3    3  502    0 -0.49719741692E+02 -0.53506259791E+02  0.75585631330E+03  0.75938870897E+03  0.41800000000E+01 0. -1.
         -5    1    3    3    0  502 -0.41427193115E+02  0.43833453673E+02  0.19907723973E+03  0.20805480953E+03  0.41800000000E+01 0. -1.
        -11    1    1    2    0    0  0.90404446336E+02  0.35695039529E+02  0.17971897707E+03  0.20431840466E+03  0.00000000000E+00 0.  1.
         11    1    1    2    0    0  0.74248847120E+00 -0.26022233411E+02  0.62118433505E+02  0.67352859642E+02  0.00000000000E+00 0. -1.
</event>
<event>
 7    1  0.2693725E-009  0.1069504E+03  0.7561462E-02  0.1266324E+00
         -1   -1    0    0    0  501 -0.00000000000E+00  0.00000000000E+00  0.27433904246E+02  0.27433904246E+02  0.00000000000E+00 0.  1.
          1   -1    0    0  501    0  0.00000000000E+00 -0.00000000000E+00 -0.61311459116E+03  0.61311459116E+03  0.00000000000E+00 0. -1.
         25    2    1    2    0    0  0.44865988468E+02  0.44283918979E+02 -0.40381936055E+03  0.42742444413E+03  0.12509019580E+03 0.  0.
          5    1    3    3  502    0 -0.23663831647E+02  0.19005902484E+02 -0.29321808558E+03  0.29481438121E+03  0.41800000000E+01 0. -1.
         -5    1    3    3    0  502  0.68529820115E+02  0.25278016496E+02 -0.11060127497E+03  0.13261006293E+03  0.41800000000E+01 0. -1.
        -11    1    1    2    0    0  0.18192225588E+02  0.14978370863E+02 -0.51761686157E+02  0.56873375312E+02  0.00000000000E+00 0. -1.
         11    1    1    2    0    0 -0.63058214056E+02 -0.59262289842E+02 -0.13009964021E+03  0.15625067597E+03  0.00000000000E+00 0.  1.
</event>
<event>
 7    1  0.2693725E-009  0.1195535E+03  0.7561462E-02  0.1243835E+00
          2   -1    0    0  501    0  0.00000000000E+00  0.00000000000E+00  0.94876547998E+03  0.94876547998E+03  0.00000000000E+00 0.  1.
         -2   -1    0    0    0  501 -0.00000000000E+00 -0.00000000000E+00 -0.17837190618E+02  0.17837190618E+02  0.00000000000E+00 0. -1.
         25    2    1    2    0    0 -0.30926166143E+02  0.50124409159E+02  0.66680349380E+03  0.68098676292E+03  0.12508871963E+03 0.  0.
          5    1    3    3  502    0  0.33160537516E+02 -0.17396070157E+02  0.30734147057E+03  0.30964253009E+03  0.41800000000E+01 0. -1.
         -5    1    3    3    0  502 -0.64086703659E+02  0.67520479316E+02  0.35946202323E+03  0.37134423283E+03  0.41800000000E+01 0. -1.
        -11    1    1    2    0    0  0.41161600462E+02  0.13868950814E+02  0.11897001203E+03  0.12665105176E+03  0.00000000000E+00 0.  1.
         11    1    1    2    0    0 -0.10235434319E+02 -0.63993359973E+02  0.14515478353E+03  0.15896485592E+03  0.00000000000E+00 0. -1.
</event>
<event>
 7    1  0.2693725E-009  0.1205182E+03  0.7561462E-02  0.1242245E+00
          2   -1    0    0  501    0  0.00000000000E+00  0.00000000000E+00  0.22602679284E+03  0.22602679284E+03  0.00000000000E+00 0.  1.
         -2   -1    0    0    0  501 -0.00000000000E+00 -0.00000000000E+00 -0.70122821103E+02  0.70122821103E+02  0.00000000000E+00 0. -1.
         25    2    1    2    0    0 -0.17761461364E+02 -0.61775342892E+02  0.65888680024E+02  0.15530613916E+03  0.12508803382E+03 0.  0.
          5    1    3    3  502    0 -0.11811962673E+02  0.34811017816E+02 -0.19563940676E+01  0.37049012150E+02  0.41800000000E+01 0. -1.
         -5    1    3    3    0  502 -0.59494986914E+01 -0.96586360708E+02  0.67845074091E+02  0.11825712701E+03  0.41800000000E+01 0. -1.
        -11    1    1    2    0    0 -0.29578913537E+02  0.50483964115E+02  0.38885016345E+02  0.70253734811E+02  0.00000000000E+00 0.  1.
         11    1    1    2    0    0  0.47340374901E+02  0.11291378777E+02  0.51130275366E+02  0.70589739973E+02  0.00000000000E+00 0. -1.
</event>
<event>
 7    1  0.2693725E-009  0.9338820E+02  0.7561462E-02  0.1294848E+00
          4   -1    0    0  501    0  0.00000000000E+00  0.00000000000E+00  0.10669755538E+03  0.10669755538E+03  0.00000000000E+00 0.  1.
         -4   -1    0    0    0  501 -0.00000000000E+00 -0.00000000000E+00 -0.19077201247E+03  0.19077201247E+03  0.00000000000E+00 0. -1.
         25    2    1    2    0    0  0.66599205801E+01 -0.34628167695E+01 -0.14154478873E+03  0.18904692766E+03  0.12508983970E+03 0.  0.
          5    1    3    3  502    0 -0.42344308297E+02 -0.17738631056E+02 -0.12803710028E+03  0.13608332347E+03  0.41800000000E+01 0. -1.
         -5    1    3    3    0  502  0.49004228877E+02  0.14275814286E+02 -0.13507688451E+02  0.52963604188E+02  0.41800000000E+01 0. -1.
        -11    1    1    2    0    0  0.32369286057E+01 -0.42411532137E+02  0.39874591303E+02  0.58302648281E+02  0.00000000000E+00 0.  1.
         11    1    1    2    0    0 -0.98968491857E+01  0.45874348906E+02  0.17595740342E+02  0.50119991915E+02  0.00000000000E+00 0. -1.
</event>
<event>
 7    1  0.2693725E-009  0.1056102E+03  0.7561462E-02  0.1268922E+00
          2   -1    0    0  501    0  0.00000000000E+00  0.00000000000E+00  0.66822069351E+03  0.66822069351E+03  0.00000000000E+00 0. -1.
         -2   -1    0    0    0  501 -0.00000000000E+00 -0.00000000000E+00 -0.19201496544E+02  0.19201496544E+02  0.00000000000E+00 0.  1.
         25    2    1    2    0    0 -0.13474857130E+02  0.27592483177E+02  0.30394505112E+03  0.33010415751E+03  0.12507295392E+03 0.  0.
          5    1    3    3  502    0 -0.53603394494E+02 -0.21873892211E+02  0.92230544453E+02  0.10897585417E+03  0.41800000000E+01 0.  1.
         -5    1    3    3    0  502  0.40128537365E+02  0.49466375389E+02  0.21171450667E+03  0.22112830334E+03  0.41800000000E+01 0.  1.
        -11    1    1    2    0    0  0.42161628595E+02 -0.39971815423E+02  0.26651428226E+03  0.27277318710E+03  0.00000000000E+00 0. -1.
         11    1    1    2    0    0 -0.28686771465E+02  0.12379332246E+02  0.78559863589E+02  0.84544845444E+02  0.00000000000E+00 0.  1.
</event>
<event>
 7    1  0.2693725E-009  0.1138917E+03  0.7561462E-02  0.1253528E+00
          2   -1    0    0  501    0  0.00000000000E+00  0.00000000000E+00  0.41917685836E+03  0.41917685836E+03  0.00000000000E+00 0. -1.
         -2   -1    0    0    0  501 -0.00000000000E+00 -0.00000000000E+00 -0.48384293635E+02  0.48384293635E+02  0.00000000000E+00 0.  1.
         25    2    1    2    0    0 -0.84982368176E+02  0.35777721461E+02  0.18689631617E+03  0.24306343458E+03  0.12509017539E+03 0.  0.
          5    1    3    3  502    0  0.15392959287E+02  0.64876052539E+00  0.11149754363E+03  0.11263453610E+03  0.41800000000E+01 0. -1.
         -5    1    3    3    0  502 -0.10037532746E+03  0.35128960936E+02  0.75398772544E+02  0.13042889849E+03  0.41800000000E+01 0. -1.
        -11    1    1    2    0    0  0.44040600648E+02  0.87523223567E+01  0.18818547708E+02  0.48685884915E+02  0.00000000000E+00 0.  1.
         11    1    1    2    0    0  0.40941767528E+02 -0.44530043818E+02  0.16507770084E+03  0.17581183250E+03  0.00000000000E+00 0. -1.
</event>
<event>
 7    1  0.2693725E-009  0.1459681E+03  0.7561462E-02  0.1205517E+00
         -1   -1    0    0    0  501 -0.00000000000E+00  0.00000000000E+00  0.19285532109E+03  0.19285532109E+03  0.00000000000E+00 0.  1.
          1   -1    0    0  501    0  0.00000000000E+00 -0.00000000000E+00 -0.52719490022E+03  0.52719490022E+03  0.00000000000E+00 0. -1.
         25    2    1    2    0    0  0.39116123947E+02  0.13231424568E+03 -0.47054024691E+03  0.50605714088E+03  0.12509426492E+03 0.  0.
          5    1    3    3  502    0 -0.16327089450E+02  0.15123092586E+02 -0.24369792945E+03  0.24474769662E+03  0.41800000000E+01 0.  1.
         -5    1    3    3    0  502  0.55443213396E+02  0.11719115309E+03 -0.22684231745E+03  0.26130944426E+03  0.41800000000E+01 0.  1.
        -11    1    1    2    0    0 -0.28383924630E+02 -0.11969456248E+03  0.61600457001E+02  0.13757562199E+03  0.00000000000E+00 0. -1.
         11    1    1    2    0    0 -0.10732199316E+02 -0.12619683197E+02  0.74600210772E+02  0.76417458434E+02  0.00000000000E+00 0.  1.
</event>
<event>
 7    1  0.2693725E-009  0.9973871E+02  0.7561462E-02  0.1280846E+00
         -2   -1    0    0    0  501 -0.00000000000E+00  0.00000000000E+00  0.29397841558E+03  0.29397841558E+03  0.00000000000E+00 0.  1.
          2   -1    0    0  501    0  0.00000000000E+00 -0.00000000000E+00 -0.80139257355E+02  0.80139257355E+02  0.00000000000E+00 0. -1.
         25    2    1    2    0    0  0.19343538517E+02  0.53209034932E+02  0.22741599729E+03  0.26565561381E+03  0.12509794342E+03 0.  0.
          5    1    3    3  502    0  0.64289243395E+02  0.54999634571E+02  0.18594821823E+03  0.20433374386E+03  0.41800000000E+01 0.  1.
         -5    1    3    3    0  502 -0.44945704877E+02 -0.17905996386E+01  0.41467779063E+02  0.61321869952E+02  0.41800000000E+01 0.  1.
        -11    1    1    2    0    0 -0.31974214679E+02 -0.41331984165E+02  0.30911901405E+02  0.60714322592E+02  0.00000000000E+00 0.  1.
         11    1    1    2    0    0  0.12630676162E+02 -0.11877050767E+02 -0.44488740468E+02  0.47747736529E+02  0.00000000000E+00 0. -1.
</event>
<event>
 7    1  0.2693725E-009  0.1312020E+03  0.7561462E-02  0.1225683E+00
         -1   -1    0    0    0  501 -0.00000000000E+00  0.00000000000E+00  0.79753264883E+02  0.79753264883E+02  0.00000000000E+00 0.  1.
          1   -1    0    0  501    0  0.00000000000E+00 -0.00000000000E+00 -0.27666238949E+03  0.27666238949E+03  0.00000000000E+00 0. -1.
         25    2    1    2    0    0  0.62796418115E+02 -0.66343824759E+02 -0.15769690461E+03  0.22104292747E+03  0.12508704510E+03 0.  0.
          5    1    3    3  502    0 -0.82602900242E+01  0.20144934151E+02  0.57438443543E+01  0.22902290523E+02  0.41800000000E+01 0.  1.
         -5    1    3    3    0  502  0.71056708140E+02 -0.86488758910E+02 -0.16344074896E+03  0.19814063695E+03  0.41800000000E+01 0.  1.
        -11    1    1    2    0    0 -0.20182225231E+02  0.80752804037E+02 -0.34639117487E+02  0.90156564017E+02  0.00000000000E+00 0.  1.
         11    1    1    2    0    0 -0.42614192884E+02 -0.14408979277E+02 -0.45731025072E+01  0.45216162880E+02  0.00000000000E+00 0. -1.
</event>
<event>
 7    1  0.2693725E-009  0.9618432E+02  0.7561462E-02  0.1288531E+00
         -2   -1    0    0    0  501 -0.00000000000E+00  0.00000000000E+00  0.18170875766E+03  0.18170875766E+03  0.00000000000E+00 0.  1.
          2   -1    0    0  501    0  0.00000000000E+00 -0.00000000000E+00 -0.83591331222E+02  0.83591331222E+02  0.00000000000E+00 0. -1.
         25    2    1    2    0    0 -0.15134302703E+02 -0.91116109518E+01 -0.58734122897E+01  0.12647068600E+03  0.12509304086E+03 0.  0.
          5    1    3    3  502    0  0.53705373228E+02 -0.11512333038E+02 -0.14406208438E+02  0.56936913923E+02  0.41800000000E+01 0. -1.
         -5    1    3    3    0  502 -0.68839675930E+02  0.24007220867E+01  0.85327961487E+01  0.69533772074E+02  0.41800000000E+01 0. -1.
        -11    1    1    2    0    0  0.29910564474E+02 -0.19756356484E+02  0.99907322542E+02  0.10614343402E+03  0.00000000000E+00 0.  1.
         11    1    1    2    0    0 -0.14776261772E+02  0.28867967435E+02  0.40835161821E+01  0.32685968858E+02  0.00000000000E+00 0. -1.
</event>
<event>
 7    1  0.2693725E-009  0.1135861E+03  0.7561462E-02  0.1254069E+00
          2   -1    0    0  501    0  0.00000000000E+00  0.00000000000E+00  0.31098948544E+03  0.31098948544E+03  0.00000000000E+00 0. -1.
         -2   -1    0    0    0  501 -0.00000000000E+00 -0.00000000000E+00 -0.66300000359E+02  0.66300000359E+02  0.00000000000E+00 0.  1.
         25    2    1    2    0    0 -0.82136788441E+02  0.40613250631E+02  0.15882248965E+03  0.22196329089E+03  0.12508889296E+03 0.  0.
          5    1    3    3  502    0 -0.55305876323E+02  0.58137654941E+02  0.24787366543E+02  0.84086936072E+02  0.41800000000E+01 0. -1.
         -5    1    3    3    0  502 -0.26830912119E+02 -0.17524404310E+02  0.13403512311E+03  0.13787635482E+03  0.41800000000E+01 0. -1.
        -11    1    1    2    0    0  0.57965964316E+02  0.96188014428E+01  0.80018991116E+02  0.99275441573E+02  0.00000000000E+00 0. -1.
         11    1    1    2    0    0  0.24170824125E+02 -0.50232052073E+02  0.58480043086E+01  0.56050753329E+02  0.00000000000E+00 0.  1.
</event>
<event>
 7    1  0.2693725E-009  0.1116157E+03  0.7561462E-02  0.1257607E+00
         -2   -1    0    0    0  501 -0.00000000000E+00  0.00000000000E+00  0.53845002250E+02  0.53845002250E+02  0.00000000000E+00 0.  1.
          2   -1    0    0  501    0  0.00000000000E+00 -0.00000000000E+00 -0.28272054139E+03  0.28272054139E+03  0.00000000000E+00 0. -1.
         25    2    1    2    0    0  0.37082537713E+02 -0.44001641512E+02 -0.13119456613E+03  0.19019037519E+03  0.12509638514E+03 0.  0.
          5    1    3    3  502    0 -0.34338172738E+02 -0.24441211283E+02 -0.34753462634E+01  0.42497451072E+02  0.41800000000E+01 0.  1.
         -5    1    3    3    0  502  0.71420710451E+02 -0.19560430230E+02 -0.12771921987E+03  0.14769292412E+03  0.41800000000E+01 0.  1.
        -11    1    1    2    0    0  0.10390317040E+02 -0.22625767411E+02 -0.36655476916E+02  0.44311488658E+02  0.00000000000E+00 0. -1.
         11    1    1    2    0    0 -0.47472854753E+02  0.66627408924E+02 -0.61025496090E+02  0.10206367979E+03  0.00000000000E+00 0.  1.
</event>
<event>
 7    1  0.2693725E-009  0.1031035E+03  0.7561462E-02  0.1273902E+00
         -4   -1    0    0    0  501 -0.00000000000E+00  0.00000000000E+00  0.21052490396E+03  0.21052490396E+03  0.00000000000E+00 0.  1.
          4   -1    0    0  501    0  0.00000000000E+00 -0.00000000000E+00 -0.55174732448E+02  0.55174732448E+02  0.00000000000E+00 0. -1.
         25    2    1    2    0    0  0.13049714735E+02  0.51577301419E+01  0.87844946042E+02  0.15350032974E+03  0.12509484182E+03 0.  0.
          5    1    3    3  502    0 -0.21142911226E+02 -0.52166419247E+02  0.55697093760E+02  0.79296889255E+02  0.41800000000E+01 0. -1.
         -5    1    3    3    0  502  0.34192625962E+02  0.57324149389E+02  0.32147852282E+02  0.74203440484E+02  0.41800000000E+01 0. -1.
        -11    1    1    2    0    0  0.33384526897E+02 -0.12938733525E+02  0.50990055998E+02  0.62305082233E+02  0.00000000000E+00 0.  1.
         11    1    1    2    0    0 -0.46434241632E+02  0.77810033833E+01  0.16515169475E+02  0.49894224439E+02  0.00000000000E+00 0. -1.
</event>
<event>
 7    1  0.2693725E-009  0.1339454E+03  0.7561462E-02  0.1221716E+00
         -2   -1    0    0    0  501 -0.00000000000E+00  0.00000000000E+00  0.20857861164E+02  0.20857861164E+02  0.00000000000E+00 0. -1.
          2   -1    0    0  501    0  0.00000000000E+00 -0.00000000000E+00 -0.16168576046E+04  0.16168576046E+04  0.00000000000E+00 0.  1.
         25    2    1    2    0    0  0.43431374111E+02  0.80981443273E+02 -0.13530547872E+04  0.13619283246E+04  0.12508887081E+03 0.  0.
          5    1    3    3  502    0 -0.25084760116E+02 -0.18463923547E+02 -0.18619197637E+03  0.18882554416E+03  0.41800000000E+01 0. -1.
         -5    1    3    3    0  502  0.68516134227E+02  0.99445366820E+02 -0.11668628109E+04  0.11731027804E+04  0.41800000000E+01 0. -1.
        -11    1    1    2    0    0  0.87197656747E+01 -0.57976594163E+02 -0.18678034156E+03  0.19576571655E+03  0.00000000000E+00 0.  1.
         11    1    1    2    0    0 -0.52151139786E+02 -0.23004849110E+02 -0.56164614645E+02  0.80021424642E+02  0.00000000000E+00 0. -1.
</event>
<event>
 7    1  0.2693725E-009  0.1335974E+03  0.7561462E-02  0.1222213E+00
          2   -1    0    0  501    0  0.00000000000E+00  0.00000000000E+00  0.10645577995E+04  0.10645577995E+04  0.00000000000E+00 0. -1.
         -2   -1    0    0    0  501 -0.00000000000E+00 -0.00000000000E+00 -0.22770397683E+02  0.22770397683E+02  0.00000000000E+00 0.  1.
         25    2    1    2    0    0  0.30581984418E+02  0.10192815157E+03  0.68166353919E+03  0.70116861422E+03  0.12509052340E+03 0.  0.
          5    1    3    3  502    0  0.73896512332E+02  0.87638948923E+02  0.54794069898E+03  0.55981940115E+03  0.41800000000E+01 0. -1.
         -5    1    3    3    0  502 -0.43314527914E+02  0.14289202646E+02  0.13372284021E+03  0.14134921307E+03  0.41800000000E+01 0. -1.
        -11    1    1    2    0    0 -0.19795518731E+02 -0.52942532720E+02  0.31049535730E+03  0.31559806913E+03  0.00000000000E+00 0. -1.
         11    1    1    2    0    0 -0.10786465687E+02 -0.48985618849E+02  0.49628505364E+02  0.70561513878E+02  0.00000000000E+00 0.  1.
</event>
<event>
 7    1  0.2693725E-009  0.9865024E+02  0.7561462E-02  0.1283160E+00
          1   -1    0    0  501    0  0.00000000000E+00  0.00000000000E+00  0.18958829815E+02  0.18958829815E+02  0.00000000000E+00 0. -1.
         -1   -1    0    0    0  501 -0.00000000000E+00 -0.00000000000E+00 -0.66547488841E+03  0.66547488841E+03  0.00000000000E+00 0.  1.
         25    2    1    2    0    0 -0.10558246090E+02 -0.26870308192E+02 -0.41494551828E+03  0.43435136383E+03  0.12509130306E+03 0.  0.
          5    1    3    3  502    0  0.15114013831E+02  0.47263631205E+02 -0.15744758199E+03  0.16513478653E+03  0.41800000000E+01 0. -1.
         -5    1    3    3    0  502 -0.25672259922E+02 -0.74133939397E+02 -0.25749793629E+03  0.26921657730E+03  0.41800000000E+01 0. -1.
        -11    1    1    2    0    0  0.34735233929E+02  0.28176759459E+02 -0.21755730656E+03  0.22210728913E+03  0.00000000000E+00 0.  1.
         11    1    1    2    0    0 -0.24176987838E+02 -0.13064512673E+01 -0.14013233761E+02  0.27975065260E+02  0.00000000000E+00 0. -1.
</event>
<event>
 7    1  0.2693725E-009  0.3505360E+03  0.7561462E-02  0.1062395E+00
          3   -1    0    0  501    0  0.00000000000E+00  0.00000000000E+00  0.14651076111E+04  0.14651076111E+04  0.00000000000E+00 0. -1.
         -3   -1    0    0    0  501 -0.00000000000E+00 -0.00000000000E+00 -0.86653246807E+02  0.86653246807E+02  0.00000000000E+00 0.  1.
         25    2    1    2    0    0  0.33669995149E+03 -0.35936188506E+02  0.64712522553E+03  0.74099745259E+03  0.12509156748E+03 0.  0.
          5    1    3    3  502    0  0.21288043300E+03  0.28903087237E+02  0.45692925771E+03  0.50493097168E+03  0.41800000000E+01 0.  1.
         -5    1    3    3    0  502  0.12381951849E+03 -0.64839275743E+02  0.19019596781E+03  0.23606648091E+03  0.41800000000E+01 0.  1.
        -11    1    1    2    0    0 -0.15268726046E+03  0.52856140899E+02  0.28358509244E+03  0.32638577756E+03  0.00000000000E+00 0.  1.
         11    1    1    2    0    0 -0.18401269103E+03 -0.16919952393E+02  0.44774404629E+03  0.48437762772E+03  0.00000000000E+00 0. -1.
</event>
<event>
 7    1  0.2693725E-009  0.1017096E+03  0.7561462E-02  0.1276741E+00
         -2   -1    0    0    0  501 -0.00000000000E+00  0.00000000000E+00  0.30874583212E+02  0.30874583212E+02  0.00000000000E+00 0.  1.
          2   -1    0    0  501    0  0.00000000000E+00 -0.00000000000E+00 -0.54308540033E+03  0.54308540033E+03  0.00000000000E+00 0. -1.
         25    2    1    2    0    0  0.19764924300E+02 -0.62656813023E+02 -0.26540964335E+03  0.30067584392E+03  0.12508859213E+03 0.  0.
          5    1    3    3  502    0  0.30680122301E+02 -0.19301872979E+01 -0.22425859353E+03  0.22639431243E+03  0.41800000000E+01 0.  1.
         -5    1    3    3    0  502 -0.10915198001E+02 -0.60726625725E+02 -0.41151049827E+02  0.74281531495E+02  0.41800000000E+01 0.  1.
        -11    1    1    2    0    0 -0.55199409670E+02  0.43454027733E+02 -0.10872687393E+03  0.12944790639E+03  0.00000000000E+00 0.  1.
         11    1    1    2    0    0  0.35434485369E+02  0.19202785290E+02 -0.13807429983E+03  0.14383623323E+03  0.00000000000E+00 0. -1.
</event>
<event>
 7    1  0.2693725E-009  0.1547525E+03  0.7561462E-02  0.1194752E+00
          2   -1    0    0  501    0  0.00000000000E+00  0.00000000000E+00  0.79636565098E+03  0.79636565098E+03  0.00000000000E+00 0. -1.
         -2   -1    0    0    0  501 -0.00000000000E+00 -0.00000000000E+00 -0.40148089783E+02  0.40148089783E+02  0.00000000000E+00 0.  1.
         25    2    1    2    0    0  0.12926846839E+03 -0.50386558133E+02  0.33520577098E+03  0.38374024528E+03  0.12507807476E+03 0.  0.
          5    1    3    3  502    0  0.58980731441E+02  0.66917897415E+01  0.32599750482E+02  0.67850739589E+02  0.41800000000E+01 0. -1.
         -5    1    3    3    0  502  0.70287736948E+02 -0.57078347875E+02  0.30260602050E+03  0.31588950569E+03  0.41800000000E+01 0. -1.
        -11    1    1    2    0    0 -0.45803627527E+02  0.59841779695E+02  0.26596240231E+03  0.27643265063E+03  0.00000000000E+00 0. -1.
         11    1    1    2    0    0 -0.83464840862E+02 -0.94552215613E+01  0.15504938790E+03  0.17634084486E+03  0.00000000000E+00 0.  1.
</event>
<event>
 7    1  0.2693725E-009  0.1441479E+03  0.7561462E-02  0.1207854E+00
         -2   -1    0    0    0  501 -0.00000000000E+00  0.00000000000E+00  0.40794364911E+02  0.40794364911E+02  0.00000000000E+00 0.  1.
          2   -1    0    0  501    0  0.00000000000E+00 -0.00000000000E+00 -0.74304549525E+03  0.74304549525E+03  0.00000000000E+00 0. -1.
         25    2    1    2    0    0 -0.58334893842E+02 -0.96348119237E+02 -0.53546361692E+03  0.56129714406E+03  0.12508908411E+03 0.  0.
          5    1    3    3  502    0  0.22953567453E+01 -0.10505355011E+03 -0.29743588458E+03  0.31547915127E+03  0.41800000000E+01 0. -1.
         -5    1    3    3    0  502 -0.60630250587E+02  0.87054308755E+01 -0.23802773234E+03  0.24581799278E+03  0.41800000000E+01 0. -1.
        -11    1    1    2    0    0  0.38734190882E+02  0.21362423871E+02 -0.12888815017E+03  0.13626755281E+03  0.00000000000E+00 0. -1.
         11    1    1    2    0    0  0.19600702960E+02  0.74985695366E+02 -0.37899363261E+02  0.86275163295E+02  0.00000000000E+00 0.  1.
</event>
<event>
 7    1  0.2693725E-009  0.6298312E+02  0.7561462E-02  0.1385723E+00
          2   -1    0    0  501    0  0.00000000000E+00  0.00000000000E+00  0.11249825916E+03  0.11249825916E+03  0.00000000000E+00 0. -1.
         -2   -1    0    0    0  501 -0.00000000000E+00 -0.00000000000E+00 -0.13332542057E+03  0.13332542057E+03  0.00000000000E+00 0.  1.
         25    2    1    2    0    0 -0.32928152672E+02  0.19676636189E+02  0.30420506599E+02  0.13432369607E+03  0.12508403117E+03 0.  0.
          5    1    3    3  502    0 -0.25829601230E+02  0.40738477873E+02  0.72132332386E+02  0.86875414557E+02  0.41800000000E+01 0.  1.
         -5    1    3    3    0  502 -0.70985514416E+01 -0.21061841685E+02 -0.41711825786E+02  0.47448281509E+02  0.41800000000E+01 0.  1.
        -11    1    1    2    0    0  0.13255761339E+02  0.11844683029E+02 -0.68330308484E+02  0.70604835403E+02  0.00000000000E+00 0.  1.
         11    1    1    2    0    0  0.19672391333E+02 -0.31521319218E+02  0.17082640467E+02  0.40895148261E+02  0.00000000000E+00 0. -1.
</event>
<event>
 7    1  0.2693725E-009  0.9704714E+02  0.7561462E-02  0.1286631E+00
         -1   -1    0    0    0  501 -0.00000000000E+00  0.00000000000E+00  0.21593396510E+02  0.21593396510E+02  0.00000000000E+00 0. -1.
          1   -1    0    0  501    0  0.00000000000E+00 -0.00000000000E+00 -0.58779993499E+03  0.58779993499E+03  0.00000000000E+00 0.  1.
         25    2    1    2    0    0 -0.13554104619E+02  0.23795920312E+02 -0.27726671674E+03  0.30540813435E+03  0.12508931505E+03 0.  0.
          5    1    3    3  502    0  0.13095452678E+02  0.60690492110E+02 -0.23519548108E+03  0.24328833395E+03  0.41800000000E+01 0. -1.
         -5    1    3    3    0  502 -0.26649557297E+02 -0.36894571798E+02 -0.42071235661E+02  0.62119800405E+02  0.41800000000E+01 0. -1.
        -11    1    1    2    0    0 -0.69186726310E+01 -0.51361669273E+02 -0.23005711063E+03  0.23582231288E+03  0.00000000000E+00 0. -1.
         11    1    1    2    0    0  0.20472777250E+02  0.27565748960E+02 -0.58882711102E+02  0.68162884261E+02  0.00000000000E+00 0.  1.
</event>
<event>
 7    1  0.2693725E-009  0.1109192E+03  0.7561462E-02  0.1258877E+00
          1   -1    0    0  501    0  0.00000000000E+00  0.00000000000E+00  0.25693718167E+03  0.25693718167E+03  0.00000000000E+00 0. -1.
         -1   -1    0    0    0  501 -0.00000000000E+00 -0.00000000000E+00 -0.80246033920E+02  0.80246033920E+02  0.00000000000E+00 0.  1.
         25    2    1    2    0    0  0.87349457783E+02  0.25657782782E+02  0.77683360571E+02  0.17312312081E+03  0.12509460762E+03 0.  0.
          5    1    3    3  502    0  0.43622772355E+02  0.54358971359E+02 -0.10401654362E+02  0.70593985924E+02  0.41800000000E+01 0. -1.
         -5    1    3    3    0  502  0.43726685428E+02 -0.28701188577E+02  0.88085014932E+02  0.10252913488E+03  0.41800000000E+01 0. -1.
        -11    1    1    2    0    0 -0.17220557123E+02 -0.23817085491E+02 -0.12807373897E+02  0.32059787508E+02  0.00000000000E+00 0.  1.
         11    1    1    2    0    0 -0.70128900661E+02 -0.18406972911E+01  0.11181516108E+03  0.13200030728E+03  0.00000000000E+00 0. -1.
</event>
<event>
 7    1  0.2693725E-009  0.1999349E+03  0.7561462E-02  0.1149794E+00
          4   -1    0    0  501    0  0.00000000000E+00  0.00000000000E+00  0.13185886136E+03  0.13185886136E+03  0.00000000000E+00 0. -1.
         -4   -1    0    0    0  501 -0.00000000000E+00 -0.00000000000E+00 -0.43563681940E+03  0.43563681940E+03  0.00000000000E+00 0.  1.
         25    2    1    2    0    0 -0.14678991776E+03  0.10323736825E+03 -0.14368164621E+02  0.21922356613E+03  0.12508914275E+03 0.  0.
          5    1    3    3  502    0 -0.79509555033E+02  0.12327248960E+03 -0.22373298310E+02  0.14844498278E+03  0.41800000000E+01 0. -1.
         -5    1    3    3    0  502 -0.67280362728E+02 -0.20035121355E+02  0.80051336885E+01  0.70778583356E+02  0.41800000000E+01 0. -1.
        -11    1    1    2    0    0  0.23429670329E+02 -0.34127901822E+02 -0.12365051909E+03  0.13039598923E+03  0.00000000000E+00 0. -1.
         11    1    1    2    0    0  0.12336024743E+03 -0.69109466425E+02 -0.16575927432E+03  0.21787612540E+03  0.00000000000E+00 0.  1.
</event>
<event>
 7    1  0.2693725E-009  0.1282568E+03  0.7561462E-02  0.1230065E+00
         -1   -1    0    0    0  501 -0.00000000000E+00  0.00000000000E+00  0.92054256306E+02  0.92054256306E+02  0.00000000000E+00 0.  1.
          1   -1    0    0  501    0  0.00000000000E+00 -0.00000000000E+00 -0.19332740023E+03  0.19332740023E+03  0.00000000000E+00 0. -1.
         25    2    1    2    0    0 -0.28158524565E+02  0.72410983014E+02 -0.59154883230E+02  0.15868573610E+03  0.12508241150E+03 0.  0.
          5    1    3    3  502    0 -0.76737201913E+02  0.52007980393E+02 -0.26293442870E+02  0.96448150423E+02  0.41800000000E+01 0.  1.
         -5    1    3    3    0  502  0.48578677348E+02  0.20403002621E+02 -0.32861440360E+02  0.62237585681E+02  0.41800000000E+01 0.  1.
        -11    1    1    2    0    0  0.22812693315E+02  0.12345426859E+02 -0.31966378455E+02  0.41166465626E+02  0.00000000000E+00 0. -1.
         11    1    1    2    0    0  0.53458312503E+01 -0.84756409873E+02 -0.10151882237E+02  0.85529454805E+02  0.00000000000E+00 0.  1.
</event>
<event>
 7    1  0.2693725E-009  0.1200224E+03  0.7561462E-02  0.1243060E+00
         -1   -1    0    0    0  501 -0.00000000000E+00  0.00000000000E+00  0.20697532238E+02  0.20697532238E+02  0.00000000000E+00 0.  1.
          1   -1    0    0  501    0  0.00000000000E+00 -0.00000000000E+00 -0.10677243617E+04  0.10677243617E+04  0.00000000000E+00 0. -1.
         25    2    1    2    0    0  0.52690854134E+02  0.88310922366E+02 -0.57885805455E+03  0.60108253675E+03  0.12509365912E+03 0.  0.
          5    1    3    3  502    0  0.32885842231E+02  0.85700488075E+02 -0.18372239736E+03  0.20542016447E+03  0.41800000000E+01 0.  1.
         -5    1    3    3    0  502  0.19805011903E+02  0.26104342911E+01 -0.39513565718E+03  0.39566237228E+03  0.41800000000E+01 0.  1.
        -11    1    1    2    0    0  0.44584566923E+01 -0.66387479393E+02 -0.16236102283E+03  0.17546588554E+03  0.00000000000E+00 0.  1.
         11    1    1    2    0    0 -0.57149310827E+02 -0.21923442972E+02 -0.30580775211E+03  0.31187347167E+03  0.00000000000E+00 0. -1.
</event>
<event>
 7    1  0.2693725E-009  0.1327927E+03  0.7561462E-02  0.1223370E+00
         -1   -1    0    0    0  501 -0.00000000000E+00  0.00000000000E+00  0.89001251857E+03  0.89001251857E+03  0.00000000000E+00 0.  1.
          1   -1    0    0  501    0  0.00000000000E+00 -0.00000000000E+00 -0.22864718749E+02  0.22864718749E+02  0.00000000000E+00 0. -1.
         25    2    1    2    0    0 -0.44634690415E+02 -0.79750091518E+02  0.43018965173E+03  0.45723391008E+03  0.12508948551E+03 0.  0.
          5    1    3    3  502    0 -0.25487296842E+02 -0.10595477087E+03  0.39226754279E+03  0.40714532208E+03  0.41800000000E+01 0.  1.
         -5    1    3    3    0  502 -0.19147393573E+02  0.26204679353E+02  0.37922108941E+02  0.50088587993E+02  0.41800000000E+01 0.  1.
        -11    1    1    2    0    0  0.69646286744E+02  0.60250645762E+02  0.25908683234E+03  0.27496678393E+03  0.00000000000E+00 0.  1.
         11    1    1    2    0    0 -0.25011596329E+02  0.19499445756E+02  0.17787131575E+03  0.18067654331E+03  0.00000000000E+00 0. -1.
</event>
<event>
 7    1  0.2693725E-009  0.1510475E+03  0.7561462E-02  0.1199192E+00
          4   -1    0    0  501    0  0.00000000000E+00  0.00000000000E+00  0.12575441915E+03  0.12575441915E+03  0.00000000000E+00 0. -1.
         -4   -1    0    0    0  501 -0.00000000000E+00 -0.00000000000E+00 -0.40125183666E+03  0.40125183666E+03  0.00000000000E+00 0.  1.
         25    2    1    2    0    0  0.12122175848E+03  0.49196308439E+02  0.29192230481E+02  0.18334677563E+03  0.12509541287E+03 0.  0.
          5    1    3    3  502    0  0.32140013186E+02  0.54468180367E+02  0.61532901585E+02  0.88337610889E+02  0.41800000000E+01 0. -1.
         -5    1    3    3    0  502  0.89081745289E+02 -0.52718719288E+01 -0.32340671104E+02  0.95009164741E+02  0.41800000000E+01 0. -1.
        -11    1    1    2    0    0 -0.48478546047E+02 -0.58573224843E+02 -0.21349393972E+03  0.22662889134E+03  0.00000000000E+00 0.  1.
         11    1    1    2    0    0 -0.72743212428E+02  0.93769164041E+01 -0.91195708271E+02  0.11703058883E+03  0.00000000000E+00 0. -1.
</event>
<event>
 7    1  0.2693725E-009  0.5055209E+02  0.7561462E-02  0.1442386E+00
         -2   -1    0    0    0  501 -0.00000000000E+00  0.00000000000E+00  0.10387323886E+03  0.10387323886E+03  0.00000000000E+00 0.  1.
          2   -1    0    0  501    0  0.00000000000E+00 -0.00000000000E+00 -0.14923274594E+03  0.14923274594E+03  0.00000000000E+00 0. -1.
         25    2    1    2    0    0 -0.74856748734E+01 -0.26840988759E+02 -0.36530096201E+02  0.13326018990E+03  0.12508939315E+03 0.  0.
          5    1    3    3  502    0 -0.71856664753E+00  0.12556427474E+02  0.42542433771E+02  0.44559076293E+02  0.41800000000E+01 0. -1.
         -5    1    3    3    0  502 -0.67671082259E+01 -0.39397416233E+02 -0.79072529972E+02  0.88701113610E+02  0.41800000000E+01 0. -1.
        -11    1    1    2    0    0 -0.14430769721E+02  0.20612033536E+01  0.50148164926E+02  0.52223884568E+02  0.00000000000E+00 0.  1.
         11    1    1    2    0    0  0.21916444594E+02  0.24779785406E+02 -0.58977575811E+02  0.67621910332E+02  0.00000000000E+00 0. -1.
</event>
<event>
 7    1  0.2693725E-009  0.1645574E+03  0.7561462E-02  0.1183645E+00
         -3   -1    0    0    0  501 -0.00000000000E+00  0.00000000000E+00  0.20136423568E+03  0.20136423568E+03  0.00000000000E+00 0. -1.
          3   -1    0    0  501    0  0.00000000000E+00 -0.00000000000E+00 -0.16122156973E+03  0.16122156973E+03  0.00000000000E+00 0.  1.
         25    2    1    2    0    0  0.45135212145E+02  0.11605324348E+03  0.92845074525E+02  0.19943064775E+03  0.12508730032E+03 0.  0.
          5    1    3    3  502    0 -0.23113042821E+02  0.10337482053E+03  0.45858434889E+02  0.11550339700E+03  0.41800000000E+01 0.  1.
         -5    1    3    3    0  502  0.68248254966E+02  0.12678422948E+02  0.46986639636E+02  0.83927250752E+02  0.41800000000E+01 0.  1.
        -11    1    1    2    0    0 -0.56798748610E+02 -0.12601558489E+03 -0.52368940764E+02  0.14781248742E+03  0.00000000000E+00 0.  1.
         11    1    1    2    0    0  0.11663536465E+02  0.99623414103E+01 -0.33346780589E+00  0.15342670238E+02  0.00000000000E+00 0. -1.
</event>
<event>
 7    1  0.2693725E-009  0.9827620E+02  0.7561462E-02  0.1283963E+00
         -4   -1    0    0    0  501 -0.00000000000E+00  0.00000000000E+00  0.98090153951E+02  0.98090153951E+02  0.00000000000E+00 0. -1.
          4   -1    0    0  501    0  0.00000000000E+00 -0.00000000000E+00 -0.12585153724E+03  0.12585153724E+03  0.00000000000E+00 0.  1.
         25    2    1    2    0    0 -0.15160931128E+02  0.11606783585E+02 -0.38170357623E+02  0.13216548953E+03  0.12508464800E+03 0.  0.
          5    1    3    3  502    0 -0.33706131040E+02 -0.46701589565E+02 -0.40920042162E+02  0.70774741173E+02  0.41800000000E+01 0. -1.
         -5    1    3    3    0  502  0.18545199911E+02  0.58308373150E+02  0.27496845391E+01  0.61390748361E+02  0.41800000000E+01 0. -1.
        -11    1    1    2    0    0  0.94145641170E+01 -0.43787118403E+02  0.29774093728E+02  0.53781431859E+02  0.00000000000E+00 0. -1.
         11    1    1    2    0    0  0.57463670112E+01  0.32180334817E+02 -0.19365119390E+02  0.37994769795E+02  0.00000000000E+00 0.  1.
</event>
<event>
 7    1  0.2693725E-009  0.9108341E+02  0.7561462E-02  0.1300249E+00
         -2   -1    0    0    0  501 -0.00000000000E+00  0.00000000000E+00  0.42826355601E+02  0.42826355601E+02  0.00000000000E+00 0.  1.
          2   -1    0    0  501    0  0.00000000000E+00 -0.00000000000E+00 -0.45444406112E+03  0.45444406112E+03  0.00000000000E+00 0. -1.
         25    2    1    2    0    0  0.55370767391E+02 -0.35094066221E+02 -0.32778419438E+03  0.35691445745E+03  0.12509171232E+03 0.  0.
          5    1    3    3  502    0 -0.39068834006E+01 -0.40990063621E+02 -0.25117502644E+02  0.48412915556E+02  0.41800000000E+01 0.  1.
         -5    1    3    3    0  502  0.59277650792E+02  0.58959974004E+01 -0.30266669173E+03  0.30850154190E+03  0.41800000000E+01 0.  1.
        -11    1    1    2    0    0 -0.42935747575E+02 -0.93727226878E+00 -0.91860034260E+02  0.10140326816E+03  0.00000000000E+00 0. -1.
         11    1    1    2    0    0 -0.12435019816E+02  0.36031338489E+02  0.80265231173E+01  0.38952691108E+02  0.00000000000E+00 0.  1.
</event>
<event>
 7    1  0.2693725E-009  0.7945341E+02  0.7561462E-02  0.1330610E+00
         -1   -1    0    0    0  501 -0.00000000000E+00  0.00000000000E+00  0.18472721637E+02  0.18472721637E+02  0.00000000000E+00 0.  1.
          1   -1    0    0  501    0  0.00000000000E+00 -0.00000000000E+00 -0.72002984697E+03  0.72002984697E+03  0.00000000000E+00 0. -1.
         25    2    1    2    0    0 -0.23963647348E+02  0.49147334668E+02 -0.49309360175E+03  0.51164308810E+03  0.12509049770E+03 0.  0.
          5    1    3    3  502    0  0.12716144758E+02  0.22463173934E+02 -0.12655571265E+02  0.29050480284E+02  0.41800000000E+01 0. -1.
         -5    1    3    3    0  502 -0.36679792107E+02  0.26684160734E+02 -0.48043803049E+03  0.48259260782E+03  0.41800000000E+01 0. -1.
        -11    1    1    2    0    0  0.45431384049E+02 -0.47417727774E+02 -0.17646537115E+03  0.18828828636E+03  0.00000000000E+00 0. -1.
         11    1    1    2    0    0 -0.21467736701E+02 -0.17296068942E+01 -0.31998152435E+02  0.38571194152E+02  0.00000000000E+00 0.  1.
</event>
<event>
 7    1  0.2693725E-009  0.1104078E+03  0.7561462E-02  0.1259817E+00
          4   -1    0    0  501    0  0.00000000000E+00  0.00000000000E+00  0.66164188362E+02  0.66164188362E+02  0.00000000000E+00 0. -1.
         -4   -1    0    0    0  501 -0.00000000000E+00 -0.00000000000E+00 -0.21399292028E+03  0.21399292028E+03  0.00000000000E+00 0.  1.
         25    2    1    2    0    0 -0.27481093482E+02  0.11307564169E+01 -0.38627976952E+02  0.13377661018E+03  0.12509025429E+03 0.  0.
          5    1    3    3  502    0 -0.40673269395E+02 -0.53473798263E+02 -0.38294390079E+02  0.77444784560E+02  0.41800000000E+01 0.  1.
         -5    1    3    3    0  502  0.13192175914E+02  0.54604554680E+02 -0.33358687309E+00  0.56331825617E+02  0.41800000000E+01 0.  1.
        -11    1    1    2    0    0 -0.29934291944E+02 -0.20831122691E+02 -0.35419749394E+02  0.50838530210E+02  0.00000000000E+00 0.  1.
         11    1    1    2    0    0  0.57415385426E+02  0.19700366274E+02 -0.73781005572E+02  0.95541968255E+02  0.00000000000E+00 0. -1.
</event>
<event>
 7    1  0.2693725E-009  0.1900232E+03  0.7561462E-02  0.1158440E+00
          2   -1    0    0  501    0  0.00000000000E+00  0.00000000000E+00  0.95845516361E+03  0.95845516361E+03  0.00000000000E+00 0.  1.
         -2   -1    0    0    0  501 -0.00000000000E+00 -0.00000000000E+00 -0.40195951103E+02  0.40195951103E+02  0.00000000000E+00 0. -1.
         25    2    1    2    0    0 -0.77010757758E+02 -0.14289546630E+03  0.38982198858E+03  0.44040810331E+03  0.12509333948E+03 0.  0.
          5    1    3    3  502    0 -0.91899891185E+02 -0.15768704143E+03  0.36070879909E+03  0.40427602350E+03  0.41800000000E+01 0. -1.
         -5    1    3    3    0  502  0.14889133427E+02  0.14791575134E+02  0.29113189496E+02  0.36132079815E+02  0.41800000000E+01 0. -1.
        -11    1    1    2    0    0 -0.12803514027E+02  0.13836670045E+02  0.10231444433E+03  0.10403667107E+03  0.00000000000E+00 0.  1.
         11    1    1    2    0    0  0.89814271785E+02  0.12905879625E+03  0.42612277960E+03  0.45420634033E+03  0.00000000000E+00 0. -1.
</event>
<event>
 7    1  0.2693725E-009  0.1064261E+03  0.7561462E-02  0.1267335E+00
          1   -1    0    0  501    0  0.00000000000E+00  0.00000000000E+00  0.43817740385E+03  0.43817740385E+03  0.00000000000E+00 0. -1.
         -1   -1    0    0    0  501 -0.00000000000E+00 -0.00000000000E+00 -0.28061643235E+02  0.28061643235E+02  0.00000000000E+00 0.  1.
         25    2    1    2    0    0 -0.51664236086E+01 -0.27055993529E+02  0.25840793666E+03  0.28841155147E+03  0.12509133692E+03 0.  0.
          5    1    3    3  502    0  0.56403962348E+02 -0.23935438944E+02  0.16827338137E+03  0.17913044264E+03  0.41800000000E+01 0.  1.
         -5    1    3    3    0  502 -0.61570385957E+02 -0.31205545858E+01  0.90134555297E+02  0.10928110883E+03  0.41800000000E+01 0.  1.
        -11    1    1    2    0    0  0.34867978864E+02  0.43457978642E+02  0.70808280253E+02  0.90100967864E+02  0.00000000000E+00 0.  1.
         11    1    1    2    0    0 -0.29701555255E+02 -0.16401985112E+02  0.80899543701E+02  0.87726527751E+02  0.00000000000E+00 0. -1.
</event>
<event>
 7    1  0.2693725E-009  0.1709612E+03  0.7561462E-02  0.1176849E+00
         -2   -1    0    0    0  501 -0.00000000000E+00  0.00000000000E+00  0.27719854954E+02  0.27719854954E+02  0.00000000000E+00 0. -1.
          2   -1    0    0  501    0  0.00000000000E+00 -0.00000000000E+00 -0.14524706972E+04  0.14524706972E+04  0.00000000000E+00 0.  1.
         25    2    1    2    0    0  0.26329818187E+02  0.14740106846E+03 -0.10362394498E+04  0.10544478537E+04  0.12509094511E+03 0.  0.
          5    1    3    3  502    0  0.38780330256E+02  0.15625568953E+03 -0.10163059278E+04  0.10289873497E+04  0.41800000000E+01 0. -1.
         -5    1    3    3    0  502 -0.12450512069E+02 -0.88546210737E+01 -0.19933521952E+02  0.25460503972E+02  0.41800000000E+01 0. -1.
        -11    1    1    2    0    0 -0.49972929630E+02 -0.10945715216E+03 -0.21310217432E+03  0.24472576193E+03  0.00000000000E+00 0. -1.
         11    1    1    2    0    0  0.23643111443E+02 -0.37943916291E+02 -0.17540921818E+03  0.18101693657E+03  0.00000000000E+00 0.  1.
</event>
<event>
 7    1  0.2897057E-009  0.4161195E+02  0.7561462E-02  0.1496674E+00
         -1   -1    0    0    0  501 -0.00000000000E+00  0.00000000000E+00  0.19493598203E+03  0.19493598203E+03  0.00000000000E+00 0.  1.
          1   -1    0    0  501    0  0.00000000000E+00 -0.00000000000E+00 -0.78487537811E+02  0.78487537811E+02  0.00000000000E+00 0. -1.
         25    2    1    2    0    0 -0.34642391068E+02  0.78587274315E+01  0.11760989891E+03  0.17533271384E+03  0.12509043675E+03 0.  0.
          5    1    3    3  502    0 -0.76125572092E+00 -0.79530217618E+01  0.13399463454E+03  0.13429767142E+03  0.41800000000E+01 0.  1.
         -5    1    3    3    0  502 -0.33881135347E+02  0.15811749193E+02 -0.16384735623E+02  0.41035042420E+02  0.41800000000E+01 0.  1.
        -11    1    1    2    0    0  0.11495443857E+02 -0.69232534849E+01 -0.45839876732E+02  0.47763699261E+02  0.00000000000E+00 0. -1.
         11    1    1    2    0    0  0.23146947211E+02 -0.93547394659E+00  0.44678422041E+02  0.50327106740E+02  0.00000000000E+00 0.  1.
</event>
<event>
 7    1  0.2693725E-009  0.1187866E+03  0.7561462E-02  0.1245112E+00
          1   -1    0    0  501    0  0.00000000000E+00  0.00000000000E+00  0.47171035399E+03  0.47171035399E+03  0.00000000000E+00 0. -1.
         -1   -1    0    0    0  501 -0.00000000000E+00 -0.00000000000E+00 -0.43183065254E+02  0.43183065254E+02  0.00000000000E+00 0.  1.
         25    2    1    2    0    0 -0.43520310759E+02 -0.40070403243E+02  0.36211481425E+03  0.38765253987E+03  0.12509076028E+03 0.  0.
          5    1    3    3  502    0 -0.56217537926E+02 -0.78243802601E+02  0.27948180744E+03  0.29565191917E+03  0.41800000000E+01 0.  1.
         -5    1    3    3    0  502  0.12697227167E+02  0.38173399359E+02  0.82633006803E+02  0.92000620703E+02  0.41800000000E+01 0.  1.
        -11    1    1    2    0    0  0.17933379949E+02 -0.25001875256E+02 -0.54212913953E-01  0.30768536230E+02  0.00000000000E+00 0.  1.
         11    1    1    2    0    0  0.25586930810E+02  0.65072278498E+02  0.66466687404E+02  0.96472343144E+02  0.00000000000E+00 0. -1.
</event>
<event>
 7    1  0.2693725E-009  0.1510260E+03  0.7561462E-02  0.1199218E+00
         -1   -1    0    0    0  501 -0.00000000000E+00  0.00000000000E+00  0.18000012355E+02  0.18000012355E+02  0.00000000000E+00 0.  1.
          1   -1    0    0  501    0  0.00000000000E+00 -0.00000000000E+00 -0.18678206854E+04  0.18678206854E+04  0.00000000000E+00 0. -1.
         25    2    1    2    0    0 -0.14534206222E+02  0.10681046567E+03 -0.14927892230E+04  0.15018942114E+04  0.12508732714E+03 0.  0.
          5    1    3    3  502    0  0.44075230456E+02  0.89456551248E+02 -0.75570873363E+03  0.76227177764E+03  0.41800000000E+01 0.  1.
         -5    1    3    3    0  502 -0.58609436678E+02  0.17353914422E+02 -0.73708048933E+03  0.73962243379E+03  0.41800000000E+01 0.  1.
        -11    1    1    2    0    0  0.36322540280E+02 -0.47738575600E+01 -0.84168706411E+02  0.91795902889E+02  0.00000000000E+00 0.  1.
         11    1    1    2    0    0 -0.21788334058E+02 -0.10203660811E+03 -0.27286274372E+03  0.29213058349E+03  0.00000000000E+00 0. -1.
</event>
<event>
 7    1  0.3130553E-009  0.1020888E+03  0.7561462E-02  0.1275964E+00
          1   -1    0    0  501    0  0.00000000000E+00  0.00000000000E+00  0.14194673682E+03  0.14194673682E+03  0.00000000000E+00 0. -1.
         -1   -1    0    0    0  501 -0.00000000000E+00 -0.00000000000E+00 -0.19597301952E+03  0.19597301952E+03  0.00000000000E+00 0.  1.
         25    2    1    2    0    0 -0.75647369918E+01 -0.66286045872E+02 -0.13720804875E+03  0.19729325952E+03  0.12509003352E+03 0.  0.
          5    1    3    3  502    0  0.49130202469E+01  0.34259704299E+02 -0.13617421112E+02  0.37426884245E+02  0.41800000000E+01 0.  1.
         -5    1    3    3    0  502 -0.12477757239E+02 -0.10054575017E+03 -0.12359062764E+03  0.15986637527E+03  0.41800000000E+01 0.  1.
        -11    1    1    2    0    0  0.11163303105E+02  0.48897860145E+02 -0.52496743527E+01  0.50429942929E+02  0.00000000000E+00 0.  1.
         11    1    1    2    0    0 -0.35985661130E+01  0.17388185727E+02  0.88431440409E+02  0.90196553890E+02  0.00000000000E+00 0. -1.
</event>
<event>
 7    1  0.2693725E-009  0.8226231E+02  0.7561462E-02  0.1322751E+00
         -1   -1    0    0    0  501 -0.00000000000E+00  0.00000000000E+00  0.22422519759E+03  0.22422519759E+03  0.00000000000E+00 0.  1.
          1   -1    0    0  501    0  0.00000000000E+00 -0.00000000000E+00 -0.68346506333E+02  0.68346506333E+02  0.00000000000E+00 0. -1.
         25    2    1    2    0    0 -0.16481754299E+02 -0.56446960854E+02  0.12176252303E+03  0.18420666095E+03  0.12509226319E+03 0.  0.
          5    1    3    3  502    0 -0.10675471033E+02 -0.54832806337E+02  0.14732345819E+03  0.15761432697E+03  0.41800000000E+01 0. -1.
         -5    1    3    3    0  502 -0.58062832663E+01 -0.16141545162E+01 -0.25560935164E+02  0.26592333982E+02  0.41800000000E+01 0. -1.
        -11    1    1    2    0    0 -0.30038869332E+02  0.28081604165E+01  0.14383113620E+01  0.30204108582E+02  0.00000000000E+00 0. -1.
         11    1    1    2    0    0  0.46520623631E+02  0.53638800437E+02  0.32677856871E+02  0.78160934392E+02  0.00000000000E+00 0.  1.
</event>
<event>
 7    1  0.2693725E-009  0.1525780E+03  0.7561462E-02  0.1197341E+00
         -1   -1    0    0    0  501 -0.00000000000E+00  0.00000000000E+00  0.82809158456E+02  0.82809158456E+02  0.00000000000E+00 0.  1.
          1   -1    0    0  501    0  0.00000000000E+00 -0.00000000000E+00 -0.32412250327E+03  0.32412250327E+03  0.00000000000E+00 0. -1.
         25    2    1    2    0    0 -0.44842757509E+01  0.12154918023E+03 -0.11635520126E+03  0.20971532602E+03  0.12509065977E+03 0.  0.
          5    1    3    3  502    0 -0.55427007855E+02  0.10343169289E+03 -0.96424695288E+02  0.15193900933E+03  0.41800000000E+01 0.  1.
         -5    1    3    3    0  502  0.50942732104E+02  0.18117487338E+02 -0.19930505976E+02  0.57776316689E+02  0.41800000000E+01 0.  1.
        -11    1    1    2    0    0  0.27154139276E+02 -0.93914688040E+02 -0.41083616306E+02  0.10604329040E+03  0.00000000000E+00 0.  1.
         11    1    1    2    0    0 -0.22669863525E+02 -0.27634492191E+02 -0.83874527243E+02  0.91173045310E+02  0.00000000000E+00 0. -1.
</event>
<event>
 7    1  0.2693725E-009  0.9891202E+02  0.7561462E-02  0.1282601E+00
         -2   -1    0    0    0  501 -0.00000000000E+00  0.00000000000E+00  0.30055388998E+03  0.30055388998E+03  0.00000000000E+00 0.  1.
          2   -1    0    0  501    0  0.00000000000E+00 -0.00000000000E+00 -0.43981147122E+02  0.43981147122E+02  0.00000000000E+00 0. -1.
         25    2    1    2    0    0  0.16649216743E+02  0.28908977106E+02  0.11411040271E+03  0.17257432989E+03  0.12509112660E+03 0.  0.
          5    1    3    3  502    0 -0.29701525069E+02 -0.23225535308E+02 -0.95729746519E+00  0.37947264726E+02  0.41800000000E+01 0. -1.
         -5    1    3    3    0  502  0.46350741812E+02  0.52134512414E+02  0.11506770017E+03  0.13462706516E+03  0.41800000000E+01 0. -1.
        -11    1    1    2    0    0  0.34223685797E+02 -0.14150564973E+02  0.90386260002E+02  0.97678939161E+02  0.00000000000E+00 0.  1.
         11    1    1    2    0    0 -0.50872902540E+02 -0.14758412133E+02  0.52076080153E+02  0.74281768057E+02  0.00000000000E+00 0. -1.
</event>
<event>
 7    1  0.2693725E-009  0.1484512E+03  0.7561462E-02  0.1202389E+00
         -1   -1    0    0    0  501 -0.00000000000E+00  0.00000000000E+00  0.41035660270E+02  0.41035660270E+02  0.00000000000E+00 0.  1.
          1   -1    0    0  501    0  0.00000000000E+00 -0.00000000000E+00 -0.65781281550E+03  0.65781281550E+03  0.00000000000E+00 0. -1.
         25    2    1    2    0    0 -0.67280160718E+02  0.10193930013E+03 -0.28779167873E+03  0.33673384048E+03  0.12508952011E+03 0.  0.
          5    1    3    3  502    0 -0.10068510293E+03  0.97501818360E+02 -0.21947672938E+03  0.26044500700E+03  0.41800000000E+01 0. -1.
         -5    1    3    3    0  502  0.33404942209E+02  0.44374817743E+01 -0.68314949355E+02  0.76288833481E+02  0.41800000000E+01 0. -1.
        -11    1    1    2    0    0  0.51114154305E+02 -0.85873384751E+02 -0.32362191022E+03  0.33870051041E+03  0.00000000000E+00 0. -1.
         11    1    1    2    0    0  0.16166006414E+02 -0.16065915384E+02 -0.53635662810E+01  0.23414124877E+02  0.00000000000E+00 0.  1.
</event>
<event>
 7    1  0.2693725E-009  0.1069452E+03  0.7561462E-02  0.1266334E+00
         -3   -1    0    0    0  501 -0.00000000000E+00  0.00000000000E+00  0.67371027609E+02  0.67371027609E+02  0.00000000000E+00 0.  1.
          3   -1    0    0  501    0  0.00000000000E+00 -0.00000000000E+00 -0.21150391717E+03  0.21150391717E+03  0.00000000000E+00 0. -1.
         25    2    1    2    0    0 -0.54210184419E+01 -0.43765267115E+02 -0.11041554422E+03  0.17257881891E+03  0.12508824999E+03 0.  0.
          5    1    3    3  502    0 -0.31725811796E+02 -0.69295993437E+02 -0.11213108277E+03  0.13564407088E+03  0.41800000000E+01 0.  1.
         -5    1    3    3    0  502  0.26304793355E+02  0.25530726322E+02  0.17155385539E+01  0.36934748036E+02  0.41800000000E+01 0.  1.
        -11    1    1    2    0    0  0.30355527135E+02  0.62498296403E+02 -0.25836304696E+02  0.74128332783E+02  0.00000000000E+00 0.  1.
         11    1    1    2    0    0 -0.24934508693E+02 -0.18733029288E+02 -0.78810406458E+01  0.32167793082E+02  0.00000000000E+00 0. -1.
</event>
<event>
 7    1  0.2693725E-009  0.8310946E+02  0.7561462E-02  0.1320452E+00
         -2   -1    0    0    0  501 -0.00000000000E+00  0.00000000000E+00  0.62756481579E+02  0.62756481579E+02  0.00000000000E+00 0.  1.
          2   -1    0    0  501    0  0.00000000000E+00 -0.00000000000E+00 -0.19957049550E+03  0.19957049550E+03  0.00000000000E+00 0. -1.
         25    2    1    2    0    0 -0.34494543773E+01  0.61035334793E+01 -0.11362544509E+03  0.16913587732E+03  0.12508817438E+03 0.  0.
          5    1    3    3  502    0 -0.16481963105E+02 -0.56537357456E+02 -0.39044665582E+02  0.70781962437E+02  0.41800000000E+01 0. -1.
         -5    1    3    3    0  502  0.13032508728E+02  0.62640890936E+02 -0.74580779512E+02  0.98353914887E+02  0.41800000000E+01 0. -1.
        -11    1    1    2    0    0  0.18140506065E+02  0.10444937959E+02  0.29426360326E+02  0.36112122221E+02  0.00000000000E+00 0.  1.
         11    1    1    2    0    0 -0.14691051688E+02 -0.16548471438E+02 -0.52614929153E+02  0.57078977535E+02  0.00000000000E+00 0. -1.
</event>
<event>
 7    1  0.2693725E-009  0.1089933E+03  0.7561462E-02  0.1262446E+00
         -3   -1    0    0    0  501 -0.00000000000E+00  0.00000000000E+00  0.27241114018E+02  0.27241114018E+02  0.00000000000E+00 0.  1.
          3   -1    0    0  501    0  0.00000000000E+00 -0.00000000000E+00 -0.59400363281E+03  0.59400363281E+03  0.00000000000E+00 0. -1.
         25    2    1    2    0    0  0.50047161184E+02  0.13464565440E+02 -0.42042530252E+03  0.44169095601E+03  0.12508977879E+03 0.  0.
          5    1    3    3  502    0  0.53348799699E+01  0.53411996077E+02 -0.82853913013E+02  0.98810655148E+02  0.41800000000E+01 0. -1.
         -5    1    3    3    0  502  0.44712281214E+02 -0.39947430637E+02 -0.33757138951E+03  0.34288030086E+03  0.41800000000E+01 0. -1.
        -11    1    1    2    0    0 -0.76461058977E+02 -0.65647650170E+01 -0.10820991593E+03  0.13266037684E+03  0.00000000000E+00 0. -1.
         11    1    1    2    0    0  0.26413897793E+02 -0.68998004228E+01 -0.38127300350E+02  0.46893413977E+02  0.00000000000E+00 0.  1.
</event>
<event>
 7    1  0.2693725E-009  0.1033517E+03  0.7561462E-02  0.1273402E+00
          1   -1    0    0  501    0  0.00000000000E+00  0.00000000000E+00  0.83714422648E+02  0.83714422648E+02  0.00000000000E+00 0. -1.
         -1   -1    0    0    0  501 -0.00000000000E+00 -0.00000000000E+00 -0.20854427015E+03  0.20854427015E+03  0.00000000000E+00 0.  1.
         25    2    1    2    0    0  0.24405784173E+02  0.26817647645E+02  0.44966435283E+01  0.13032063616E+03  0.12509364444E+03 0.  0.
          5    1    3    3  502    0 -0.48207204479E+02 -0.53562928992E+01  0.12851552432E+02  0.50351357848E+02  0.41800000000E+01 0.  1.
         -5    1    3    3    0  502  0.72612988651E+02  0.32173940544E+02 -0.83549089040E+01  0.79969278312E+02  0.41800000000E+01 0.  1.
        -11    1    1    2    0    0  0.16166022123E+02 -0.33662497295E+02 -0.11059558988E+03  0.11672998113E+03  0.00000000000E+00 0.  1.
         11    1    1    2    0    0 -0.40571806295E+02  0.68448496493E+01 -0.18730901154E+02  0.45208075505E+02  0.00000000000E+00 0. -1.
</event>
<event>
 7    1  0.2693725E-009  0.9375331E+02  0.7561462E-02  0.1294009E+00
         -2   -1    0    0    0  501 -0.00000000000E+00  0.00000000000E+00  0.50607448318E+02  0.50607448318E+02  0.00000000000E+00 0.  1.
          2   -1    0    0  501    0  0.00000000000E+00 -0.00000000000E+00 -0.28678483076E+03  0.28678483076E+03  0.00000000000E+00 0. -1.
         25    2    1    2    0    0  0.47209326080E+02  0.40194444191E+01 -0.17775862554E+03  0.22246538897E+03  0.12509134235E+03 0.  0.
          5    1    3    3  502    0  0.38086938274E+02  0.39858001984E+02 -0.17679263721E+03  0.18523602285E+03  0.41800000000E+01 0. -1.
         -5    1    3    3    0  502  0.91223878062E+01 -0.35838557565E+02 -0.96598832859E+00  0.37229366112E+02  0.41800000000E+01 0. -1.
        -11    1    1    2    0    0  0.14752963594E+02 -0.25467936797E+02 -0.39726210026E+01  0.29699283781E+02  0.00000000000E+00 0.  1.
         11    1    1    2    0    0 -0.61962289674E+02  0.21448492377E+02 -0.54446135893E+02  0.85227606328E+02  0.00000000000E+00 0. -1.
</event>
<event>
 7    1  0.2693725E-009  0.9679112E+02  0.7561462E-02  0.1287192E+00
          1   -1    0    0  501    0  0.00000000000E+00  0.00000000000E+00  0.59246631078E+03  0.59246631078E+03  0.00000000000E+00 0. -1.
         -1   -1    0    0    0  501 -0.00000000000E+00 -0.00000000000E+00 -0.30405039584E+02  0.30405039584E+02  0.00000000000E+00 0.  1.
         25    2    1    2    0    0 -0.54367461262E+02  0.46387933751E+02  0.35595747394E+03  0.38400251659E+03  0.12507816856E+03 0.  0.
          5    1    3    3  502    0 -0.53261475147E+02  0.42876259562E+02  0.36608777153E+03  0.37244179039E+03  0.41800000000E+01 0.  1.
         -5    1    3    3    0  502 -0.11059861151E+01  0.35116741892E+01 -0.10130297588E+02  0.11560726194E+02  0.41800000000E+01 0.  1.
        -11    1    1    2    0    0  0.49285716080E+01 -0.66101441206E+02  0.13103354171E+03  0.14684508981E+03  0.00000000000E+00 0. -1.
         11    1    1    2    0    0  0.49438889654E+02  0.19713507454E+02  0.75070255545E+02  0.92023743968E+02  0.00000000000E+00 0.  1.
</event>
<event>
 7    1  0.2693725E-009  0.2221829E+03  0.7561462E-02  0.1132266E+00
          1   -1    0    0  501    0  0.00000000000E+00  0.00000000000E+00  0.24801250042E+03  0.24801250042E+03  0.00000000000E+00 0. -1.
         -1   -1    0    0    0  501 -0.00000000000E+00 -0.00000000000E+00 -0.33029649540E+03  0.33029649540E+03  0.00000000000E+00 0.  1.
         25    2    1    2    0    0 -0.19299566190E+03 -0.69699937081E+02 -0.21182626139E+03  0.32034849497E+03  0.12508951385E+03 0.  0.
          5    1    3    3  502    0 -0.17742591380E+03 -0.13056187565E+02 -0.13406905829E+03  0.22280575331E+03  0.41800000000E+01 0.  1.
         -5    1    3    3    0  502 -0.15569748101E+02 -0.56643749516E+02 -0.77757203109E+02  0.97542741660E+02  0.41800000000E+01 0.  1.
        -11    1    1    2    0    0  0.23584581387E+02 -0.17641718808E+01  0.54423277691E+02  0.59340019686E+02  0.00000000000E+00 0. -1.
         11    1    1    2    0    0  0.16941108051E+03  0.71464108962E+02  0.75118988721E+02  0.19862048116E+03  0.00000000000E+00 0.  1.
</event>
<event>
 7    1  0.2693725E-009  0.9614892E+02  0.7561462E-02  0.1288609E+00
         -2   -1    0    0    0  501 -0.00000000000E+00  0.00000000000E+00  0.42766050279E+02  0.42766050279E+02  0.00000000000E+00 0.  1.
          2   -1    0    0  501    0  0.00000000000E+00 -0.00000000000E+00 -0.37384675021E+03  0.37384675021E+03  0.00000000000E+00 0. -1.
         25    2    1    2    0    0  0.24358465816E+01  0.58238235340E+02 -0.22850718379E+03  0.26694354862E+03  0.12508277141E+03 0.  0.
          5    1    3    3  502    0  0.45144561504E+02  0.53080814437E+02 -0.20742074001E+03  0.21885255329E+03  0.41800000000E+01 0. -1.
         -5    1    3    3    0  502 -0.42708714922E+02  0.51574209038E+01 -0.21086443773E+02  0.48090995328E+02  0.41800000000E+01 0. -1.
        -11    1    1    2    0    0  0.13607351527E+02 -0.61423326604E+02 -0.11365987789E+03  0.12990978758E+03  0.00000000000E+00 0. -1.
         11    1    1    2    0    0 -0.16043198108E+02  0.31850912637E+01  0.11086361752E+02  0.19759464284E+02  0.00000000000E+00 0.  1.
</event>
<event>
 7    1  0.2693725E-009  0.1097201E+03  0.7561462E-02  0.1261089E+00
         -2   -1    0    0    0  501 -0.00000000000E+00  0.00000000000E+00  0.54593136849E+02  0.54593136849E+02  0.00000000000E+00 0.  1.
          2   -1    0    0  501    0  0.00000000000E+00 -0.00000000000E+00 -0.40346535782E+03  0.40346535782E+03  0.00000000000E+00 0. -1.
         25    2    1    2    0    0 -0.37521823533E+02 -0.70881995607E+02 -0.28313669372E+03  0.31976037513E+03  0.12509262821E+03 0.  0.
          5    1    3    3  502    0  0.39732986371E+02 -0.11380831869E+02 -0.14351720097E+03  0.14940847671E+03  0.41800000000E+01 0.  1.
         -5    1    3    3    0  502 -0.77254809904E+02 -0.59501163738E+02 -0.13961949275E+03  0.17035189842E+03  0.41800000000E+01 0.  1.
        -11    1    1    2    0    0  0.25930739005E+02  0.44980391357E+02  0.13908162059E+02  0.53750123757E+02  0.00000000000E+00 0.  1.
         11    1    1    2    0    0  0.11591084528E+02  0.25901604250E+02 -0.79643689314E+02  0.84547995782E+02  0.00000000000E+00 0. -1.
</event>
<event>
 7    1  0.2693725E-009  0.9856033E+02  0.7561462E-02  0.1283353E+00
          3   -1    0    0  501    0  0.00000000000E+00  0.00000000000E+00  0.82447971198E+02  0.82447971198E+02  0.00000000000E+00 0. -1.
         -3   -1    0    0    0  501 -0.00000000000E+00 -0.00000000000E+00 -0.17917229032E+03  0.17917229032E+03  0.00000000000E+00 0.  1.
         25    2    1    2    0    0  0.44095228265E+01  0.20980342372E+02  0.29510506510E+01  0.12694661014E+03  0.12508842660E+03 0.  0.
          5    1    3    3  502    0 -0.41038521309E+02  0.41975963273E+02 -0.30799537378E+02  0.66424586010E+02  0.41800000000E+01 0.  1.
         -5    1    3    3    0  502  0.45448044135E+02 -0.20995620901E+02  0.33750588029E+02  0.60522024132E+02  0.41800000000E+01 0.  1.
        -11    1    1    2    0    0  0.40302345845E+00 -0.54332020158E+02 -0.45477360626E+02  0.70854224799E+02  0.00000000000E+00 0.  1.
         11    1    1    2    0    0 -0.48125462849E+01  0.33351677786E+02 -0.54198009145E+02  0.63819426574E+02  0.00000000000E+00 0. -1.
</event>
<event>
 7    1  0.2693725E-009  0.1074873E+03  0.7561462E-02  0.1265295E+00
          4   -1    0    0  501    0  0.00000000000E+00  0.00000000000E+00  0.24226223095E+02  0.24226223095E+02  0.00000000000E+00 0.  1.
         -4   -1    0    0    0  501 -0.00000000000E+00 -0.00000000000E+00 -0.49933316482E+03  0.49933316482E+03  0.00000000000E+00 0. -1.
         25    2    1    2    0    0  0.12955023766E+02 -0.77781186974E+01 -0.27855898810E+03  0.30572966301E+03  0.12508870941E+03 0.  0.
          5    1    3    3  502    0  0.28111752436E+02 -0.62593760534E+02 -0.16136732131E+03  0.17539992666E+03  0.41800000000E+01 0.  1.
         -5    1    3    3    0  502 -0.15156728669E+02  0.54815641837E+02 -0.11719166678E+03  0.13032973635E+03  0.41800000000E+01 0.  1.
        -11    1    1    2    0    0  0.37881776910E+02  0.79047424063E+00 -0.11861480430E+03  0.12451957947E+03  0.00000000000E+00 0. -1.
         11    1    1    2    0    0 -0.50836800676E+02  0.69876444568E+01 -0.77933149325E+02  0.93310145438E+02  0.00000000000E+00 0.  1.
</event>
<event>
 7    1  0.2693725E-009  0.1085145E+03  0.7561462E-02  0.1263346E+00
          2   -1    0    0  501    0  0.00000000000E+00  0.00000000000E+00  0.12646526009E+03  0.12646526009E+03  0.00000000000E+00 0. -1.
         -2   -1    0    0    0  501 -0.00000000000E+00 -0.00000000000E+00 -0.16437283369E+03  0.16437283369E+03  0.00000000000E+00 0.  1.
         25    2    1    2    0    0 -0.61701292778E+02 -0.60847431061E+02  0.20006409463E+02  0.15348429299E+03  0.12509081652E+03 0.  0.
          5    1    3    3  502    0 -0.31165098664E+02 -0.52743045820E+02  0.70676529485E+02  0.93625511893E+02  0.41800000000E+01 0. -1.
         -5    1    3    3    0  502 -0.30536194114E+02 -0.81043852408E+01 -0.50670120022E+02  0.59858781095E+02  0.41800000000E+01 0. -1.
        -11    1    1    2    0    0  0.73216380794E+02  0.75466003087E+02 -0.43388105032E+02  0.11374657664E+03  0.00000000000E+00 0. -1.
         11    1    1    2    0    0 -0.11515088016E+02 -0.14618572026E+02 -0.14525878029E+02  0.23607224161E+02  0.00000000000E+00 0.  1.
</event>
<event>
 7    1  0.2693725E-009  0.7558105E+02  0.7561462E-02  0.1342081E+00
         -1   -1    0    0    0  501 -0.00000000000E+00  0.00000000000E+00  0.25283360056E+02  0.25283360056E+02  0.00000000000E+00 0.  1.
          1   -1    0    0  501    0  0.00000000000E+00 -0.00000000000E+00 -0.55722283495E+03  0.55722283495E+03  0.00000000000E+00 0. -1.
         25    2    1    2    0    0  0.30726996073E+02 -0.57808842628E+01 -0.21005584478E+03  0.24646578621E+03  0.12507741177E+03 0.  0.
          5    1    3    3  502    0  0.16961707097E+02 -0.33203289203E+02 -0.35890945027E+01  0.37689679236E+02  0.41800000000E+01 0. -1.
         -5    1    3    3    0  502  0.13765288976E+02  0.27422404941E+02 -0.20646675028E+03  0.20877610698E+03  0.41800000000E+01 0. -1.
        -11    1    1    2    0    0  0.25455160367E+02 -0.36276980595E+01 -0.34289597201E+02  0.42859093070E+02  0.00000000000E+00 0.  1.
         11    1    1    2    0    0 -0.56182156440E+02  0.94085823224E+01 -0.28759403291E+03  0.29318131572E+03  0.00000000000E+00 0. -1.
</event>
<event>
 7    1  0.2693725E-009  0.1251063E+03  0.7561462E-02  0.1234903E+00
         -4   -1    0    0    0  501 -0.00000000000E+00  0.00000000000E+00  0.14764596921E+03  0.14764596921E+03  0.00000000000E+00 0.  1.
          4   -1    0    0  501    0  0.00000000000E+00 -0.00000000000E+00 -0.30331145173E+03  0.30331145173E+03  0.00000000000E+00 0. -1.
         25    2    1    2    0    0 -0.39593527359E+01 -0.81974264200E+02 -0.25381418852E+03  0.29462594008E+03  0.12508935130E+03 0.  0.
          5    1    3    3  502    0  0.59171504588E+02 -0.52616899568E+02 -0.12217239285E+03  0.14564810692E+03  0.41800000000E+01 0.  1.
         -5    1    3    3    0  502 -0.63130857324E+02 -0.29357364632E+02 -0.13164179568E+03  0.14897783316E+03  0.41800000000E+01 0.  1.
        -11    1    1    2    0    0 -0.27080611805E+02  0.48303430097E+02  0.89932205896E+01  0.56102218418E+02  0.00000000000E+00 0. -1.
         11    1    1    2    0    0  0.31039964541E+02  0.33670834102E+02  0.89155485423E+02  0.10022926244E+03  0.00000000000E+00 0.  1.
</event>
<event>
 7    1  0.2693725E-009  0.9267084E+02  0.7561462E-02  0.1296510E+00
          2   -1    0    0  501    0  0.00000000000E+00  0.00000000000E+00  0.33820208491E+02  0.33820208491E+02  0.00000000000E+00 0. -1.
         -2   -1    0    0    0  501 -0.00000000000E+00 -0.00000000000E+00 -0.46232491971E+03  0.46232491971E+03  0.00000000000E+00 0.  1.
         25    2    1    2    0    0  0.28225130815E+02  0.44808243087E+02 -0.32535697251E+03  0.35257698533E+03  0.12509570083E+03 0.  0.
          5    1    3    3  502    0  0.43067304175E+02  0.71021299511E+02 -0.12637427740E+03  0.15128366753E+03  0.41800000000E+01 0.  1.
         -5    1    3    3    0  502 -0.14842173360E+02 -0.26213056424E+02 -0.19898269512E+03  0.20129331781E+03  0.41800000000E+01 0.  1.
        -11    1    1    2    0    0 -0.36069922103E+02 -0.11971513170E+02 -0.10302059832E+03  0.10980710398E+03  0.00000000000E+00 0.  1.
         11    1    1    2    0    0  0.78447912877E+01 -0.32836729917E+02 -0.12714039271E+00  0.33761038886E+02  0.00000000000E+00 0. -1.
</event>
<event>
 7    1  0.2693725E-009  0.8720843E+02  0.7561462E-02  0.1309756E+00
          2   -1    0    0  501    0  0.00000000000E+00  0.00000000000E+00  0.35212928480E+03  0.35212928480E+03  0.00000000000E+00 0.  1.
         -2   -1    0    0    0  501 -0.00000000000E+00 -0.00000000000E+00 -0.54876501131E+02  0.54876501131E+02  0.00000000000E+00 0. -1.
         25    2    1    2    0    0  0.12964647173E+02 -0.75826793823E+01  0.28253117032E+03  0.30934626002E+03  0.12508264181E+03 0.  0.
          5    1    3    3  502    0  0.44991662590E+02  0.31725129755E+02  0.22873343757E+03  0.23530234045E+03  0.41800000000E+01 0. -1.
         -5    1    3    3    0  502 -0.32027015417E+02 -0.39307809137E+02  0.53797732751E+02  0.74043919567E+02  0.41800000000E+01 0. -1.
        -11    1    1    2    0    0  0.89265143669E+00 -0.29102279471E+02 -0.27490220543E+02  0.40043123287E+02  0.00000000000E+00 0. -1.
         11    1    1    2    0    0 -0.13857298609E+02  0.36684958854E+02  0.42211833897E+02  0.57616402628E+02  0.00000000000E+00 0.  1.
</event>
<event>
 7    1  0.2693725E-009  0.1175888E+03  0.7561462E-02  0.1247129E+00
         -2   -1    0    0    0  501 -0.00000000000E+00  0.00000000000E+00  0.63209312111E+02  0.63209312111E+02  0.00000000000E+00 0.  1.
          2   -1    0    0  501    0  0.00000000000E+00 -0.00000000000E+00 -0.60034343020E+03  0.60034343020E+03  0.00000000000E+00 0. -1.
         25    2    1    2    0    0 -0.40465228173E+02  0.93007203709E+02 -0.65992592632E+02  0.17404259345E+03  0.12509207577E+03 0.  0.
          5    1    3    3  502    0 -0.27105293245E+02  0.45378654581E+02  0.33593630153E+02  0.62768810729E+02  0.41800000000E+01 0.  1.
         -5    1    3    3    0  502 -0.13359934928E+02  0.47628549127E+02 -0.99586222785E+02  0.11127378272E+03  0.41800000000E+01 0.  1.
        -11    1    1    2    0    0 -0.22633697355E+02 -0.53434693107E+02 -0.18946908307E+03  0.19815671607E+03  0.00000000000E+00 0.  1.
         11    1    1    2    0    0  0.63098925528E+02 -0.39572510602E+02 -0.28167244239E+03  0.29135343279E+03  0.00000000000E+00 0. -1.
</event>
<event>
 7    1  0.2693725E-009  0.2130492E+03  0.7561462E-02  0.1139174E+00
          1   -1    0    0  501    0  0.00000000000E+00  0.00000000000E+00  0.27124861937E+03  0.27124861937E+03  0.00000000000E+00 0. -1.
         -1   -1    0    0    0  501 -0.00000000000E+00 -0.00000000000E+00 -0.19632160664E+03  0.19632160664E+03  0.00000000000E+00 0.  1.
         25    2    1    2    0    0  0.10065681616E+03 -0.15744459339E+03 -0.42789132447E+02  0.22890907346E+03  0.12509140430E+03 0.  0.
          5    1    3    3  502    0  0.49115581480E+02 -0.16505782388E+03 -0.38155285897E+02  0.17643617489E+03  0.41800000000E+01 0.  1.
         -5    1    3    3    0  502  0.51541234681E+02  0.76132304882E+01 -0.46338465503E+01  0.52472898574E+02  0.41800000000E+01 0.  1.
        -11    1    1    2    0    0 -0.82592471823E+02  0.59050294126E+02  0.87844796007E+02  0.13425781848E+03  0.00000000000E+00 0. -1.
         11    1    1    2    0    0 -0.18064344337E+02  0.98394299261E+02  0.29871349172E+02  0.10440333407E+03  0.00000000000E+00 0.  1.
</event>
<event>
 7    1  0.2693725E-009  0.1166614E+03  0.7561462E-02  0.1248709E+00
          1   -1    0    0  501    0  0.00000000000E+00  0.00000000000E+00  0.16235561862E+03  0.16235561862E+03  0.00000000000E+00 0. -1.
         -1   -1    0    0    0  501 -0.00000000000E+00 -0.00000000000E+00 -0.15230057059E+03  0.15230057059E+03  0.00000000000E+00 0.  1.
         25    2    1    2    0    0  0.61051402577E+02  0.68472180279E+02  0.70857109614E+02  0.17054287821E+03  0.12509368527E+03 0.  0.
          5    1    3    3  502    0  0.20131025009E+02 -0.14157684707E+02  0.74091922847E+02  0.78184292766E+02  0.41800000000E+01 0. -1.
         -5    1    3    3    0  502  0.40920377568E+02  0.82629864986E+02 -0.32348132332E+01  0.92358585441E+02  0.41800000000E+01 0. -1.
        -11    1    1    2    0    0 -0.71555135423E+02 -0.75025365742E+02 -0.72948727251E+02  0.12676931694E+03  0.00000000000E+00 0.  1.
         11    1    1    2    0    0  0.10503732846E+02  0.65531854628E+01  0.12146665668E+02  0.17343994069E+02  0.00000000000E+00 0. -1.
</event>
<event>
 7    1  0.2693725E-009  0.9389179E+02  0.7561462E-02  0.1293692E+00
         -1   -1    0    0    0  501 -0.00000000000E+00  0.00000000000E+00  0.14125027178E+02  0.14125027178E+02  0.00000000000E+00 0.  1.
          1   -1    0    0  501    0  0.00000000000E+00 -0.00000000000E+00 -0.13273321406E+04  0.13273321406E+04  0.00000000000E+00 0. -1.
         25    2    1    2    0    0  0.36544514453E+02  0.11733031724E+02 -0.10704850302E+04  0.10784521521E+04  0.12509068248E+03 0.  0.
          5    1    3    3  502    0 -0.15179734657E+02  0.54199132391E+02 -0.67189175521E+03  0.67425809110E+03  0.41800000000E+01 0. -1.
         -5    1    3    3    0  502  0.51724249110E+02 -0.42466100667E+02 -0.39859327500E+03  0.40419406098E+03  0.41800000000E+01 0. -1.
        -11    1    1    2    0    0  0.42680473276E+01  0.14937669283E+02 -0.10298720464E+00  0.15535790870E+02  0.00000000000E+00 0.  1.
         11    1    1    2    0    0 -0.40812561781E+02 -0.26670701007E+02 -0.24261909598E+03  0.24746922481E+03  0.00000000000E+00 0. -1.
</event>
<event>
 7    1  0.2693725E-009  0.1062614E+03  0.7561462E-02  0.1267654E+00
         -2   -1    0    0    0  501 -0.00000000000E+00  0.00000000000E+00  0.20707746909E+03  0.20707746909E+03  0.00000000000E+00 0.  1.
          2   -1    0    0  501    0  0.00000000000E+00 -0.00000000000E+00 -0.66517669479E+02  0.66517669479E+02  0.00000000000E+00 0. -1.
         25    2    1    2    0    0  0.66056685255E+01 -0.40929009160E+02  0.95512012107E+02  0.16275251016E+03  0.12508803484E+03 0.  0.
          5    1    3    3  502    0  0.36052677846E+02  0.24302224090E+02  0.44243452133E+00  0.43681367010E+02  0.41800000000E+01 0.  1.
         -5    1    3    3    0  502 -0.29447009320E+02 -0.65231233250E+02  0.95069577586E+02  0.11907114315E+03  0.41800000000E+01 0.  1.
        -11    1    1    2    0    0  0.36923449867E+02 -0.68717508997E+00  0.23201530262E+01  0.37002654901E+02  0.00000000000E+00 0. -1.
         11    1    1    2    0    0 -0.43529118392E+02  0.41616184250E+02  0.42727634481E+02  0.73839973509E+02  0.00000000000E+00 0.  1.
</event>
<event>
 7    1  0.2693725E-009  0.1130226E+03  0.7561462E-02  0.1255073E+00
         -1   -1    0    0    0  501 -0.00000000000E+00  0.00000000000E+00  0.32131690247E+02  0.32131690247E+02  0.00000000000E+00 0.  1.
          1   -1    0    0  501    0  0.00000000000E+00 -0.00000000000E+00 -0.52274789689E+03  0.52274789689E+03  0.00000000000E+00 0. -1.
         25    2    1    2    0    0  0.58800500121E+02 -0.30843355082E+02 -0.32170352627E+03  0.35149555923E+03  0.12508860050E+03 0.  0.
          5    1    3    3  502    0  0.52882765764E+02 -0.63665591858E+02 -0.30058563120E+03  0.31179975719E+03  0.41800000000E+01 0.  1.
         -5    1    3    3    0  502  0.59177343565E+01  0.32822236777E+02 -0.21117895064E+02  0.39695802031E+02  0.41800000000E+01 0.  1.
        -11    1    1    2    0    0 -0.62395996771E+02  0.56187121514E+02 -0.14869842402E+03  0.17076731052E+03  0.00000000000E+00 0.  1.
         11    1    1    2    0    0  0.35954966504E+01 -0.25343766433E+02 -0.20214256359E+02  0.32616717390E+02  0.00000000000E+00 0. -1.
</event>
<event>
 7    1  0.2693725E-009  0.1183390E+03  0.7561462E-02  0.1245863E+00
         -2   -1    0    0    0  501 -0.00000000000E+00  0.00000000000E+00  0.89798644981E+02  0.89798644981E+02  0.00000000000E+00 0.  1.
          2   -1    0    0  501    0  0.00000000000E+00 -0.00000000000E+00 -0.21155644573E+03  0.21155644573E+03  0.00000000000E+00 0. -1.
         25    2    1    2    0    0 -0.64205666120E+02  0.45361948708E+02 -0.95417009572E+02  0.17587426971E+03  0.12508908457E+03 0.  0.
          5    1    3    3  502    0 -0.30656705105E+02  0.67949612720E+02 -0.10977049251E+03  0.13275547771E+03  0.41800000000E+01 0.  1.
         -5    1    3    3    0  502 -0.33548961015E+02 -0.22587664012E+02  0.14353482940E+02  0.43118791996E+02  0.41800000000E+01 0.  1.
        -11    1    1    2    0    0  0.74456772721E+02  0.40226510681E+00 -0.25070724511E+02  0.78565348907E+02  0.00000000000E+00 0. -1.
         11    1    1    2    0    0 -0.10251106601E+02 -0.45764213815E+02 -0.12700666675E+01  0.46915472096E+02  0.00000000000E+00 0.  1.
</event>
<event>
 7    1  0.2693725E-009  0.2113918E+03  0.7561462E-02  0.1140469E+00
          1   -1    0    0  501    0  0.00000000000E+00  0.00000000000E+00  0.12027304432E+03  0.12027304432E+03  0.00000000000E+00 0. -1.
         -1   -1    0    0    0  501 -0.00000000000E+00 -0.00000000000E+00 -0.41253827405E+03  0.41253827405E+03  0.00000000000E+00 0.  1.
         25    2    1    2    0    0 -0.10396183814E+03 -0.14886614401E+03 -0.14330527823E+03  0.26296950293E+03  0.12508942434E+03 0.  0.
          5    1    3    3  502    0 -0.91042670657E+02 -0.59252347218E+02 -0.13296294176E+03  0.17174465003E+03  0.41800000000E+01 0.  1.
         -5    1    3    3    0  502 -0.12919167481E+02 -0.89613796789E+02 -0.10342336465E+02  0.91224852901E+02  0.41800000000E+01 0.  1.
        -11    1    1    2    0    0  0.71043578651E+02  0.66873262763E-01 -0.62527313765E+02  0.94640686315E+02  0.00000000000E+00 0.  1.
         11    1    1    2    0    0  0.32918259486E+02  0.14879927074E+03 -0.86432637743E+02  0.17520112913E+03  0.00000000000E+00 0. -1.
</event>
<event>
 7    1  0.2693725E-009  0.1273217E+03  0.7561462E-02  0.1231485E+00
          1   -1    0    0  501    0  0.00000000000E+00  0.00000000000E+00  0.63610262494E+03  0.63610262494E+03  0.00000000000E+00 0. -1.
         -1   -1    0    0    0  501 -0.00000000000E+00 -0.00000000000E+00 -0.27447852355E+02  0.27447852355E+02  0.00000000000E+00 0.  1.
         25    2    1    2    0    0 -0.40762335113E+02 -0.56866268838E+02  0.26953722316E+03  0.30527541675E+03  0.12508966747E+03 0.  0.
          5    1    3    3  502    0 -0.37116993020E+02 -0.94309050229E+02  0.16062246251E+03  0.18997082931E+03  0.41800000000E+01 0.  1.
         -5    1    3    3    0  502 -0.36453420933E+01  0.37442781392E+02  0.10891476064E+03  0.11530458743E+03  0.41800000000E+01 0.  1.
        -11    1    1    2    0    0  0.66777747774E+02  0.59193584513E+02  0.27144614645E+03  0.28573791920E+03  0.00000000000E+00 0. -1.
         11    1    1    2    0    0 -0.26015412661E+02 -0.23273156753E+01  0.67671402969E+02  0.72537141342E+02  0.00000000000E+00 0.  1.
</event>
<event>
 7    1  0.2693725E-009  0.1235169E+03  0.7561462E-02  0.1237405E+00
         -2   -1    0    0    0  501 -0.00000000000E+00  0.00000000000E+00  0.63846113170E+02  0.63846113170E+02  0.00000000000E+00 0.  1.
          2   -1    0    0  501    0  0.00000000000E+00 -0.00000000000E+00 -0.40725666864E+03  0.40725666864E+03  0.00000000000E+00 0. -1.
         25    2    1    2    0    0  0.91704037533E+02  0.50219016778E+02 -0.98074859845E+02  0.19026237601E+03  0.12509801536E+03 0.  0.
          5    1    3    3  502    0  0.10087163309E+02  0.53962118649E+02  0.87113508086E+01  0.55740659717E+02  0.41800000000E+01 0.  1.
         -5    1    3    3    0  502  0.81616874224E+02 -0.37431018715E+01 -0.10678621065E+03  0.13452171630E+03  0.41800000000E+01 0.  1.
        -11    1    1    2    0    0 -0.36244636574E+02 -0.39634517858E+02 -0.37581904437E+02  0.65551264117E+02  0.00000000000E+00 0.  1.
         11    1    1    2    0    0 -0.55459400959E+02 -0.10584498920E+02 -0.20775379119E+03  0.21528914168E+03  0.00000000000E+00 0. -1.
</event>
<event>
 7    1  0.2693725E-009  0.1641382E+03  0.7561462E-02  0.1184102E+00
          3   -1    0    0  501    0  0.00000000000E+00  0.00000000000E+00  0.94802356335E+03  0.94802356335E+03  0.00000000000E+00 0. -1.
         -3   -1    0    0    0  501 -0.00000000000E+00 -0.00000000000E+00 -0.39653768242E+02  0.39653768242E+02  0.00000000000E+00 0.  1.
         25    2    1    2    0    0 -0.98144488970E+02  0.91424195664E+02  0.69911436241E+03  0.72277158500E+03  0.12508856096E+03 0.  0.
          5    1    3    3  502    0 -0.11892651961E+03  0.10411292173E+03  0.58321893125E+03  0.60427213381E+03  0.41800000000E+01 0.  1.
         -5    1    3    3    0  502  0.20782030641E+02 -0.12688726062E+02  0.11589543116E+03  0.11849945118E+03  0.41800000000E+01 0.  1.
        -11    1    1    2    0    0  0.81884918338E+02 -0.39249275220E+02  0.18296885392E+03  0.20426269106E+03  0.00000000000E+00 0. -1.
         11    1    1    2    0    0  0.16259570632E+02 -0.52174920444E+02  0.26286578786E+02  0.60643055536E+02  0.00000000000E+00 0.  1.
</event>
<event>
 7    1  0.2693725E-009  0.1040973E+03  0.7561462E-02  0.1271909E+00
         -1   -1    0    0    0  501 -0.00000000000E+00  0.00000000000E+00  0.11746358028E+02  0.11746358028E+02  0.00000000000E+00 0.  1.
          1   -1    0    0  501    0  0.00000000000E+00 -0.00000000000E+00 -0.20337022501E+04  0.20337022501E+04  0.00000000000E+00 0. -1.
         25    2    1    2    0    0 -0.73473725806E+01 -0.44514891816E+02 -0.17472323814E+04  0.17522856961E+04  0.12509439142E+03 0.  0.
          5    1    3    3  502    0  0.52190558959E+02 -0.47360325608E+02 -0.77066785844E+03  0.77389487356E+03  0.41800000000E+01 0.  1.
         -5    1    3    3    0  502 -0.59537931539E+02  0.28454337927E+01 -0.97656452297E+03  0.97839082258E+03  0.41800000000E+01 0.  1.
        -11    1    1    2    0    0  0.16670971371E+02  0.58614400226E+02 -0.26821356538E+03  0.27504924260E+03  0.00000000000E+00 0. -1.
         11    1    1    2    0    0 -0.93235987903E+01 -0.14099508410E+02 -0.65099453062E+01  0.18113669415E+02  0.00000000000E+00 0.  1.
</event>
<event>
 7    1  0.2979585E-009  0.1236720E+03  0.7561462E-02  0.1237159E+00
          2   -1    0    0  501    0  0.00000000000E+00  0.00000000000E+00  0.91733875058E+03  0.91733875058E+03  0.00000000000E+00 0. -1.
         -2   -1    0    0    0  501 -0.00000000000E+00 -0.00000000000E+00 -0.27235829512E+02  0.27235829512E+02  0.00000000000E+00 0.  1.
         25    2    1    2    0    0  0.44747758006E+02  0.69952257912E+02  0.71041158843E+03  0.72610399396E+03  0.12508678922E+03 0.  0.
          5    1    3    3  502    0  0.77831685238E+02  0.79896253575E+02  0.60149010357E+03  0.61175893917E+03  0.41800000000E+01 0.  1.
         -5    1    3    3    0  502 -0.33083927232E+02 -0.99439956630E+01  0.10892148486E+03  0.11434505479E+03  0.41800000000E+01 0.  1.
        -11    1    1    2    0    0 -0.53295470709E+02 -0.32304222792E+02  0.41224043134E+02  0.74722096736E+02  0.00000000000E+00 0.  1.
         11    1    1    2    0    0  0.85477127036E+01 -0.37648035120E+02  0.13846728951E+03  0.14374848940E+03  0.00000000000E+00 0. -1.
</event>
<event>
 7    1  0.2693725E-009  0.1170147E+03  0.7561462E-02  0.1248105E+00
          1   -1    0    0  501    0  0.00000000000E+00  0.00000000000E+00  0.16252861205E+03  0.16252861205E+03  0.00000000000E+00 0. -1.
         -1   -1    0    0    0  501 -0.00000000000E+00 -0.00000000000E+00 -0.17291846604E+03  0.17291846604E+03  0.00000000000E+00 0.  1.
         25    2    1    2    0    0  0.33605255117E+02 -0.68444820480E+02  0.96933482859E+02  0.17566397798E+03  0.12509087273E+03 0.  0.
          5    1    3    3  502    0 -0.35486767489E+02  0.28655799698E+01 -0.13776787596E+01  0.35873285522E+02  0.41800000000E+01 0.  1.
         -5    1    3    3    0  502  0.69092022606E+02 -0.71310400450E+02  0.98311161618E+02  0.13979069246E+03  0.41800000000E+01 0.  1.
        -11    1    1    2    0    0 -0.50553840571E+02  0.35561630847E+02 -0.10607381168E+03  0.12276796776E+03  0.00000000000E+00 0.  1.
         11    1    1    2    0    0  0.16948585454E+02  0.32883189633E+02 -0.12495251765E+01  0.37015132345E+02  0.00000000000E+00 0. -1.
</event>
<event>
 7    1  0.2693725E-009  0.1251036E+03  0.7561462E-02  0.1234908E+00
          2   -1    0    0  501    0  0.00000000000E+00  0.00000000000E+00  0.15493242977E+03  0.15493242977E+03  0.00000000000E+00 0. -1.
         -2   -1    0    0    0  501 -0.00000000000E+00 -0.00000000000E+00 -0.12476320845E+03  0.12476320845E+03  0.00000000000E+00 0.  1.
         25    2    1    2    0    0  0.26753408267E+02  0.81318438630E+02  0.22118861865E+02  0.15318561139E+03  0.12509258241E+03 0.  0.
          5    1    3    3  502    0  0.69340356511E+01 -0.19860403453E+02 -0.30556145457E+02  0.37331848346E+02  0.41800000000E+01 0.  1.
         -5    1    3    3    0  502  0.19819372616E+02  0.10117884208E+03  0.52675007321E+02  0.11585376305E+03  0.41800000000E+01 0.  1.
        -11    1    1    2    0    0 -0.41341154300E+02 -0.96216841697E+02  0.11586207872E+02  0.10536133958E+03  0.00000000000E+00 0. -1.
         11    1    1    2    0    0  0.14587746032E+02  0.14898403067E+02 -0.35358484250E+01  0.21148687248E+02  0.00000000000E+00 0.  1.
</event>
<event>
 7    1  0.2693725E-009  0.1205399E+03  0.7561462E-02  0.1242209E+00
         -2   -1    0    0    0  501 -0.00000000000E+00  0.00000000000E+00  0.76875566151E+02  0.76875566151E+02  0.00000000000E+00 0. -1.
          2   -1    0    0  501    0  0.00000000000E+00 -0.00000000000E+00 -0.34287771557E+03  0.34287771557E+03  0.00000000000E+00 0.  1.
         25    2    1    2    0    0  0.31694682119E+02 -0.79311275122E+02 -0.25110926425E+03  0.29325483010E+03  0.12509077324E+03 0.  0.
          5    1    3    3  502    0 -0.45598232671E+02 -0.24679603952E+02 -0.12603819080E+03  0.13635020944E+03  0.41800000000E+01 0. -1.
         -5    1    3    3    0  502  0.77292914790E+02 -0.54631671170E+02 -0.12507107346E+03  0.15690462067E+03  0.41800000000E+01 0. -1.
        -11    1    1    2    0    0 -0.37417568828E+02  0.40698252576E+02  0.33254286165E+02  0.64515655217E+02  0.00000000000E+00 0. -1.
         11    1    1    2    0    0  0.57228867092E+01  0.38613022546E+02 -0.48147171334E+02  0.61982796403E+02  0.00000000000E+00 0.  1.
</event>
<event>
 7    1  0.2693725E-009  0.7640280E+02  0.7561462E-02  0.1339581E+00
          2   -1    0    0  501    0  0.00000000000E+00  0.00000000000E+00  0.14865292078E+03  0.14865292078E+03  0.00000000000E+00 0. -1.
         -2   -1    0    0    0  501 -0.00000000000E+00 -0.00000000000E+00 -0.12810824135E+03  0.12810824135E+03  0.00000000000E+00 0.  1.
         25    2    1    2    0    0 -0.23619448533E+02  0.42950045323E+02  0.80872088092E+02  0.15681240912E+03  0.12508897746E+03 0.  0.
          5    1    3    3  502    0  0.60105352545E+01  0.27806368948E+02 -0.29656757613E+02  0.41307582358E+02  0.41800000000E+01 0. -1.
         -5    1    3    3    0  502 -0.29629983788E+02  0.15143676375E+02  0.11052884571E+03  0.11550482677E+03  0.41800000000E+01 0. -1.
        -11    1    1    2    0    0  0.30334096772E+02  0.13830495546E+02  0.43514555733E+01  0.33621052923E+02  0.00000000000E+00 0. -1.
         11    1    1    2    0    0 -0.67146482387E+01 -0.56780540869E+02 -0.64678864236E+02  0.86327700080E+02  0.00000000000E+00 0.  1.
</event>
<event>
 7    1  0.2693725E-009  0.1932571E+03  0.7561462E-02  0.1155556E+00
          2   -1    0    0  501    0  0.00000000000E+00  0.00000000000E+00  0.46771745251E+03  0.46771745251E+03  0.00000000000E+00 0. -1.
         -2   -1    0    0    0  501 -0.00000000000E+00 -0.00000000000E+00 -0.86137329997E+02  0.86137329997E+02  0.00000000000E+00 0.  1.
         25    2    1    2    0    0 -0.74574486437E+02 -0.14918335691E+03  0.17291500092E+03  0.27085790026E+03  0.12508947430E+03 0.  0.
          5    1    3    3  502    0 -0.65006174906E+02 -0.18669817699E+02  0.22410977306E+02  0.71372888219E+02  0.41800000000E+01 0. -1.
         -5    1    3    3    0  502 -0.95683115311E+01 -0.13051353921E+03  0.15050402362E+03  0.19948501204E+03  0.41800000000E+01 0. -1.
        -11    1    1    2    0    0  0.29018328192E+01  0.10193317609E+03  0.13925920678E+03  0.17260335945E+03  0.00000000000E+00 0.  1.
         11    1    1    2    0    0  0.71672653618E+02  0.47250180827E+02  0.69405914810E+02  0.11039352280E+03  0.00000000000E+00 0. -1.
</event>
<event>
 7    1  0.2693725E-009  0.1137458E+03  0.7561462E-02  0.1253786E+00
         -3   -1    0    0    0  501 -0.00000000000E+00  0.00000000000E+00  0.42813272204E+02  0.42813272204E+02  0.00000000000E+00 0.  1.
          3   -1    0    0  501    0  0.00000000000E+00 -0.00000000000E+00 -0.39843043571E+03  0.39843043571E+03  0.00000000000E+00 0. -1.
         25    2    1    2    0    0  0.64139438574E+02 -0.23933451803E+02 -0.23090831691E+03  0.27139021916E+03  0.12508925830E+03 0.  0.
          5    1    3    3  502    0  0.70154835033E+02 -0.49261904298E+02 -0.77200933228E+02  0.11543782996E+03  0.41800000000E+01 0. -1.
         -5    1    3    3    0  502 -0.60153964592E+01  0.25328452494E+02 -0.15370738368E+03  0.15595238920E+03  0.41800000000E+01 0. -1.
        -11    1    1    2    0    0 -0.77430990916E+02  0.45615583531E+02 -0.96010025425E+02  0.13150766060E+03  0.00000000000E+00 0.  1.
         11    1    1    2    0    0  0.13291552342E+02 -0.21682131728E+02 -0.28698821173E+02  0.38345828151E+02  0.00000000000E+00 0. -1.
</event>
<event>
 7    1  0.2693725E-009  0.9480738E+02  0.7561462E-02  0.1291611E+00
          2   -1    0    0  501    0  0.00000000000E+00  0.00000000000E+00  0.56174347601E+03  0.56174347601E+03  0.00000000000E+00 0. -1.
         -2   -1    0    0    0  501 -0.00000000000E+00 -0.00000000000E+00 -0.29980085130E+02  0.29980085130E+02  0.00000000000E+00 0.  1.
         25    2    1    2    0    0  0.44714694782E+02 -0.11821756702E+02  0.41621571310E+03  0.43705919426E+03  0.12508421801E+03 0.  0.
          5    1    3    3  502    0  0.61068860414E+00 -0.46259517775E+02  0.57205248728E+02  0.73690086222E+02  0.41800000000E+01 0. -1.
         -5    1    3    3    0  502  0.44104006177E+02  0.34437761073E+02  0.35901046437E+03  0.36336910804E+03  0.41800000000E+01 0. -1.
        -11    1    1    2    0    0 -0.93883289229E+01 -0.30505972351E+02  0.66464166395E+01  0.32602606080E+02  0.00000000000E+00 0.  1.
         11    1    1    2    0    0 -0.35326365859E+02  0.42327729053E+02  0.10890126114E+03  0.12206176080E+03  0.00000000000E+00 0. -1.
</event>
<event>
 7    1  0.2693725E-009  0.9727819E+02  0.7561462E-02  0.1286126E+00
         -2   -1    0    0    0  501 -0.00000000000E+00  0.00000000000E+00  0.57664581236E+03  0.57664581236E+03  0.00000000000E+00 0.  1.
          2   -1    0    0  501    0  0.00000000000E+00 -0.00000000000E+00 -0.62488202865E+02  0.62488202865E+02  0.00000000000E+00 0. -1.
         25    2    1    2    0    0  0.88479079392E+02  0.12166902186E+02  0.49050499401E+03  0.51402044492E+03  0.12508112424E+03 0.  0.
          5    1    3    3  502    0  0.70589218938E+02 -0.14723239363E+02  0.47004009025E+03  0.47555732614E+03  0.41800000000E+01 0. -1.
         -5    1    3    3    0  502  0.17889860455E+02  0.26890141549E+02  0.20464903765E+02  0.38463118773E+02  0.41800000000E+01 0. -1.
        -11    1    1    2    0    0 -0.54066306859E+02 -0.11831557380E+02 -0.28791022129E+02  0.62386490866E+02  0.00000000000E+00 0. -1.
         11    1    1    2    0    0 -0.34412772534E+02 -0.33534480609E+00  0.52443637613E+02  0.62727079445E+02  0.00000000000E+00 0.  1.
</event>
<event>
 7    1  0.2693725E-009  0.1131010E+03  0.7561462E-02  0.1254933E+00
         -1   -1    0    0    0  501 -0.00000000000E+00  0.00000000000E+00  0.48844833920E+02  0.48844833920E+02  0.00000000000E+00 0.  1.
          1   -1    0    0  501    0  0.00000000000E+00 -0.00000000000E+00 -0.28374769808E+03  0.28374769808E+03  0.00000000000E+00 0. -1.
         25    2    1    2    0    0 -0.26308155870E+02 -0.20647594280E+02 -0.17860518995E+03  0.22060215863E+03  0.12508819408E+03 0.  0.
          5    1    3    3  502    0 -0.48346735062E+02 -0.64207178660E+02 -0.11175784283E+03  0.13772166284E+03  0.41800000000E+01 0. -1.
         -5    1    3    3    0  502  0.22038579192E+02  0.43559584380E+02 -0.66847347122E+02  0.82880495784E+02  0.41800000000E+01 0. -1.
        -11    1    1    2    0    0  0.44127666242E+02  0.47283883488E+02 -0.35383549076E+02  0.73722534621E+02  0.00000000000E+00 0.  1.
         11    1    1    2    0    0 -0.17819510373E+02 -0.26636289208E+02 -0.20914125134E+02  0.38267838753E+02  0.00000000000E+00 0. -1.
</event>
<event>
 7    1  0.2693725E-009  0.9419207E+02  0.7561462E-02  0.1293006E+00
          1   -1    0    0  501    0  0.00000000000E+00  0.00000000000E+00  0.28666037163E+02  0.28666037163E+02  0.00000000000E+00 0. -1.
         -1   -1    0    0    0  501 -0.00000000000E+00 -0.00000000000E+00 -0.59184877961E+03  0.59184877961E+03  0.00000000000E+00 0.  1.
         25    2    1    2    0    0 -0.43371900387E+01 -0.71591319415E+02 -0.26463892735E+03  0.30137249123E+03  0.12508992114E+03 0.  0.
          5    1    3    3  502    0  0.45130765082E+01 -0.62702950660E+02 -0.36424290547E+02  0.72775196481E+02  0.41800000000E+01 0. -1.
         -5    1    3    3    0  502 -0.88502665470E+01 -0.88883687553E+01 -0.22821463680E+03  0.22859729475E+03  0.41800000000E+01 0. -1.
        -11    1    1    2    0    0 -0.40867675647E+02  0.29612176739E+02 -0.11762489452E+03  0.12799478011E+03  0.00000000000E+00 0. -1.
         11    1    1    2    0    0  0.45204865686E+02  0.41979142677E+02 -0.18091892058E+03  0.19114754543E+03  0.00000000000E+00 0.  1.
</event>
<event>
 7    1  0.2693725E-009  0.2588546E+03  0.7561462E-02  0.1107833E+00
          1   -1    0    0  501    0  0.00000000000E+00  0.00000000000E+00  0.55433467601E+03  0.55433467601E+03  0.00000000000E+00 0. -1.
         -1   -1    0    0    0  501 -0.00000000000E+00 -0.00000000000E+00 -0.13522686682E+03  0.13522686682E+03  0.00000000000E+00 0.  1.
         25    2    1    2    0    0 -0.24414469222E+03  0.20358987707E+02  0.14627328347E+03  0.31155126985E+03  0.12508877316E+03 0.  0.
          5    1    3    3  502    0 -0.19926090745E+03 -0.33673703284E+02  0.89148404434E+02  0.22091568062E+03  0.41800000000E+01 0. -1.
         -5    1    3    3    0  502 -0.44883784770E+02  0.54032690991E+02  0.57124879031E+02  0.90635589232E+02  0.41800000000E+01 0. -1.
        -11    1    1    2    0    0  0.16575170202E+03 -0.18686756191E+02  0.11757845822E+03  0.20407722905E+03  0.00000000000E+00 0.  1.
         11    1    1    2    0    0  0.78392990200E+02 -0.16722315160E+01  0.15525606751E+03  0.17393304392E+03  0.00000000000E+00 0. -1.
</event>
<event>
 7    1  0.2693725E-009  0.1266947E+03  0.7561462E-02  0.1232444E+00
         -1   -1    0    0    0  501 -0.00000000000E+00  0.00000000000E+00  0.35912076096E+03  0.35912076096E+03  0.00000000000E+00 0.  1.
          1   -1    0    0  501    0  0.00000000000E+00 -0.00000000000E+00 -0.52047891993E+02  0.52047891993E+02  0.00000000000E+00 0. -1.
         25    2    1    2    0    0 -0.79323436726E+02  0.81030609795E+01  0.21223726782E+03  0.25894084656E+03  0.12509131446E+03 0.  0.
          5    1    3    3  502    0  0.27456377607E+02 -0.66200890566E+01  0.10964392139E+02  0.30583795471E+02  0.41800000000E+01 0.  1.
         -5    1    3    3    0  502 -0.10677981433E+03  0.14723150036E+02  0.20127287568E+03  0.22835705109E+03  0.41800000000E+01 0.  1.
        -11    1    1    2    0    0  0.27327163016E+02  0.38453142143E+02  0.24564368497E+02  0.53186710547E+02  0.00000000000E+00 0. -1.
         11    1    1    2    0    0  0.51996273710E+02 -0.46556203122E+02  0.70271232648E+02  0.99041095848E+02  0.00000000000E+00 0.  1.
</event>
<event>
 7    1  0.2693725E-009  0.1342638E+03  0.7561462E-02  0.1221263E+00
          1   -1    0    0  501    0  0.00000000000E+00  0.00000000000E+00  0.38505678732E+03  0.38505678732E+03  0.00000000000E+00 0. -1.
         -1   -1    0    0    0  501 -0.00000000000E+00 -0.00000000000E+00 -0.60268078549E+02  0.60268078549E+02  0.00000000000E+00 0.  1.
         25    2    1    2    0    0  0.16488186437E+02  0.79577078682E+02  0.27330453237E+03  0.31136471816E+03  0.12509295966E+03 0.  0.
          5    1    3    3  502    0 -0.16707392087E+02 -0.28843262854E+02  0.42464190726E+02  0.54145643006E+02  0.41800000000E+01 0. -1.
         -5    1    3    3    0  502  0.33195578524E+02  0.10842034154E+03  0.23084034165E+03  0.25721907516E+03  0.41800000000E+01 0. -1.
        -11    1    1    2    0    0 -0.99081657913E+01  0.19658856956E+02  0.96515016509E-01  0.22014806865E+02  0.00000000000E+00 0.  1.
         11    1    1    2    0    0 -0.65800206455E+01 -0.99235935638E+02  0.51387661377E+02  0.11194534084E+03  0.00000000000E+00 0. -1.
</event>
<event>
 7    1  0.2693725E-009  0.1351226E+03  0.7561462E-02  0.1220047E+00
         -2   -1    0    0    0  501 -0.00000000000E+00  0.00000000000E+00  0.19480982148E+02  0.19480982148E+02  0.00000000000E+00 0. -1.
          2   -1    0    0  501    0  0.00000000000E+00 -0.00000000000E+00 -0.12045794868E+04  0.12045794868E+04  0.00000000000E+00 0.  1.
         25    2    1    2    0    0  0.42707319482E+02 -0.10059398338E+03 -0.59824709431E+03  0.62088035614E+03  0.12509902539E+03 0.  0.
          5    1    3    3  502    0 -0.28290814407E+02 -0.18916364315E+02 -0.42149126437E+02  0.54334337928E+02  0.41800000000E+01 0. -1.
         -5    1    3    3    0  502  0.70998133889E+02 -0.81677619063E+02 -0.55609796788E+03  0.56654601821E+03  0.41800000000E+01 0. -1.
        -11    1    1    2    0    0  0.16183306667E+02  0.40037331686E+02 -0.98120353090E+02  0.10720303649E+03  0.00000000000E+00 0. -1.
         11    1    1    2    0    0 -0.58890626149E+02  0.60556651692E+02 -0.48873105729E+03  0.49597707636E+03  0.00000000000E+00 0.  1.
</event>
<event>
 7    1  0.2693725E-009  0.1179863E+03  0.7561462E-02  0.1246456E+00
         -1   -1    0    0    0  501 -0.00000000000E+00  0.00000000000E+00  0.75577759226E+02  0.75577759226E+02  0.00000000000E+00 0.  1.
          1   -1    0    0  501    0  0.00000000000E+00 -0.00000000000E+00 -0.26867571158E+03  0.26867571158E+03  0.00000000000E+00 0. -1.
         25    2    1    2    0    0  0.86871125502E+02  0.25881361769E+02 -0.82282297643E+02  0.17502697240E+03  0.12509047617E+03 0.  0.
          5    1    3    3  502    0  0.31278296185E+02 -0.44272012781E+02 -0.63278182070E+02  0.83426276760E+02  0.41800000000E+01 0.  1.
         -5    1    3    3    0  502  0.55592829316E+02  0.70153374550E+02 -0.19004115573E+02  0.91600695635E+02  0.41800000000E+01 0.  1.
        -11    1    1    2    0    0 -0.42446368479E+02 -0.20843863660E+02  0.25563549805E+01  0.47357109288E+02  0.00000000000E+00 0.  1.
         11    1    1    2    0    0 -0.44424757022E+02 -0.50374981085E+01 -0.11337200969E+03  0.12186938913E+03  0.00000000000E+00 0. -1.
</event>
<event>
 7    1  0.2693725E-009  0.1163686E+03  0.7561462E-02  0.1249211E+00
          1   -1    0    0  501    0  0.00000000000E+00  0.00000000000E+00  0.45228352566E+03  0.45228352566E+03  0.00000000000E+00 0. -1.
         -1   -1    0    0    0  501 -0.00000000000E+00 -0.00000000000E+00 -0.46981758253E+02  0.46981758253E+02  0.00000000000E+00 0.  1.
         25    2    1    2    0    0  0.88733382805E+02  0.13074363289E+02  0.28106347845E+03  0.32045456920E+03  0.12509955957E+03 0.  0.
          5    1    3    3  502    0  0.71372773581E+02  0.34354644459E+02  0.64829362572E+02  0.10244331631E+03  0.41800000000E+01 0. -1.
         -5    1    3    3    0  502  0.17360609224E+02 -0.21280281171E+02  0.21623411587E+03  0.21801125289E+03  0.41800000000E+01 0. -1.
        -11    1    1    2    0    0 -0.44847858368E+02  0.37654599404E+02  0.77141775835E+02  0.96850672870E+02  0.00000000000E+00 0.  1.
         11    1    1    2    0    0 -0.43885524437E+02 -0.50728962692E+02  0.47096513130E+02  0.81960041849E+02  0.00000000000E+00 0. -1.
</event>
<event>
 7    1  0.2693725E-009  0.6286259E+03  0.7561462E-02  0.9847734E-01
          3   -1    0    0  501    0  0.00000000000E+00  0.00000000000E+00  0.16886186082E+04  0.16886186082E+04  0.00000000000E+00 0. -1.
         -3   -1    0    0    0  501 -0.00000000000E+00 -0.00000000000E+00 -0.25612829972E+03  0.25612829972E+03  0.00000000000E+00 0.  1.
         25    2    1    2    0    0  0.56180186067E+03  0.27974692948E+03  0.94891132813E+03  0.11445349611E+04  0.12509154012E+03 0.  0.
          5    1    3    3  502    0  0.31753708825E+03  0.18569908191E+03  0.65265291596E+03  0.74919106545E+03  0.41800000000E+01 0. -1.
         -5    1    3    3    0  502  0.24426477242E+03  0.94047847567E+02  0.29625841217E+03  0.39534389569E+03  0.41800000000E+01 0. -1.
        -11    1    1    2    0    0 -0.13915478313E+03 -0.68702594987E+02  0.18449588302E+03  0.24108677085E+03  0.00000000000E+00 0. -1.
         11    1    1    2    0    0 -0.42264707754E+03 -0.21104433449E+03  0.29908309737E+03  0.55912517598E+03  0.00000000000E+00 0.  1.
</event>
<event>
 7    1  0.3237346E-009  0.1307492E+03  0.7561462E-02  0.1226348E+00
          2   -1    0    0  501    0  0.00000000000E+00  0.00000000000E+00  0.80535578066E+03  0.80535578066E+03  0.00000000000E+00 0. -1.
         -2   -1    0    0    0  501 -0.00000000000E+00 -0.00000000000E+00 -0.26719070500E+02  0.26719070500E+02  0.00000000000E+00 0.  1.
         25    2    1    2    0    0  0.43562990371E+02 -0.78185262913E+02  0.30641376671E+03  0.34285072306E+03  0.12508617991E+03 0.  0.
          5    1    3    3  502    0  0.18709194832E+02 -0.10302920509E+03  0.15327797155E+03  0.18567891650E+03  0.41800000000E+01 0. -1.
         -5    1    3    3    0  502  0.24853795539E+02  0.24843942174E+02  0.15313579516E+03  0.15717180656E+03  0.41800000000E+01 0. -1.
        -11    1    1    2    0    0 -0.60980249423E+02  0.25991665754E+02  0.33277925783E+03  0.33931724382E+03  0.00000000000E+00 0. -1.
         11    1    1    2    0    0  0.17417259052E+02  0.52193597159E+02  0.13944368562E+03  0.14990688428E+03  0.00000000000E+00 0.  1.
</event>
<event>
 7    1  0.2693725E-009  0.2253972E+03  0.7561462E-02  0.1129922E+00
         -1   -1    0    0    0  501 -0.00000000000E+00  0.00000000000E+00  0.10122112689E+04  0.10122112689E+04  0.00000000000E+00 0.  1.
          1   -1    0    0  501    0  0.00000000000E+00 -0.00000000000E+00 -0.61600531207E+02  0.61600531207E+02  0.00000000000E+00 0. -1.
         25    2    1    2    0    0 -0.19922470418E+03 -0.10169261807E+03  0.52376564376E+03  0.58310324785E+03  0.12508827580E+03 0.  0.
          5    1    3    3  502    0 -0.10656662231E+03 -0.40971325919E+02  0.40426597979E+03  0.42009945174E+03  0.41800000000E+01 0. -1.
         -5    1    3    3    0  502 -0.92658081869E+02 -0.60721292152E+02  0.11949966397E+03  0.16300379611E+03  0.41800000000E+01 0. -1.
        -11    1    1    2    0    0  0.14364052459E+02  0.17262904374E+02  0.58184209271E+01  0.23198876968E+02  0.00000000000E+00 0. -1.
         11    1    1    2    0    0  0.18486065172E+03  0.84429713697E+02  0.42102667300E+03  0.46750967529E+03  0.00000000000E+00 0.  1.
</event>
<event>
 7    1  0.2693725E-009  0.1283121E+03  0.7561462E-02  0.1229982E+00
          2   -1    0    0  501    0  0.00000000000E+00  0.00000000000E+00  0.21262636676E+03  0.21262636676E+03  0.00000000000E+00 0. -1.
         -2   -1    0    0    0  501 -0.00000000000E+00 -0.00000000000E+00 -0.10097240842E+03  0.10097240842E+03  0.00000000000E+00 0.  1.
         25    2    1    2    0    0  0.94379356023E+02  0.83641450847E+01  0.82025593156E+02  0.17705941457E+03  0.12507764224E+03 0.  0.
          5    1    3    3  502    0  0.52717717759E+02  0.65056169780E+02  0.60428050898E+02  0.10334643065E+03  0.41800000000E+01 0.  1.
         -5    1    3    3    0  502  0.41661638264E+02 -0.56692024695E+02  0.21597542258E+02  0.73712983921E+02  0.41800000000E+01 0.  1.
        -11    1    1    2    0    0 -0.39236061335E+01 -0.11138366957E+02  0.43419051043E+02  0.44996354264E+02  0.00000000000E+00 0.  1.
         11    1    1    2    0    0 -0.90455749890E+02  0.27742218720E+01 -0.13790685851E+02  0.91543006349E+02  0.00000000000E+00 0. -1.
</event>
<event>
 7    1  0.2693725E-009  0.8471133E+02  0.7561462E-02  0.1316189E+00
          1   -1    0    0  501    0  0.00000000000E+00  0.00000000000E+00  0.45567827767E+03  0.45567827767E+03  0.00000000000E+00 0. -1.
         -1   -1    0    0    0  501 -0.00000000000E+00 -0.00000000000E+00 -0.55047252842E+02  0.55047252842E+02  0.00000000000E+00 0.  1.
         25    2    1    2    0    0  0.47354729194E+02  0.15744986025E+02  0.49580534441E+02  0.14351367287E+03  0.12509024719E+03 0.  0.
          5    1    3    3  502    0  0.57124001220E+02  0.46080409234E+01  0.86310429514E+02  0.10368870816E+03  0.41800000000E+01 0. -1.
         -5    1    3    3    0  502 -0.97692720263E+01  0.11136945101E+02 -0.36729895073E+02  0.39824964710E+02  0.41800000000E+01 0. -1.
        -11    1    1    2    0    0 -0.59222458588E+01 -0.45292966095E+02  0.86591022703E+02  0.97900617906E+02  0.00000000000E+00 0.  1.
         11    1    1    2    0    0 -0.41432483335E+02  0.29547980070E+02  0.26445946769E+03  0.26931123974E+03  0.00000000000E+00 0. -1.
</event>
<event>
 7    1  0.2693725E-009  0.1553060E+03  0.7561462E-02  0.1194100E+00
          1   -1    0    0  501    0  0.00000000000E+00  0.00000000000E+00  0.95619596359E+02  0.95619596359E+02  0.00000000000E+00 0. -1.
         -1   -1    0    0    0  501 -0.00000000000E+00 -0.00000000000E+00 -0.33697699368E+03  0.33697699368E+03  0.00000000000E+00 0.  1.
         25    2    1    2    0    0 -0.39994622027E+02  0.13203867074E+03 -0.17151043145E+03  0.25317200731E+03  0.12508579786E+03 0.  0.
          5    1    3    3  502    0  0.25530953326E+02  0.81364435701E+02 -0.32611214004E+02  0.91394554835E+02  0.41800000000E+01 0.  1.
         -5    1    3    3    0  502 -0.65525575353E+02  0.50674235041E+02 -0.13889921744E+03  0.16177745247E+03  0.41800000000E+01 0.  1.
        -11    1    1    2    0    0  0.89209794110E+01 -0.87691074569E+02  0.35484901506E+01  0.88215079295E+02  0.00000000000E+00 0. -1.
         11    1    1    2    0    0  0.31073642616E+02 -0.44347596173E+02 -0.73395456025E+02  0.91209503435E+02  0.00000000000E+00 0.  1.
</event>
<event>
 7    1  0.2693725E-009  0.2552249E+03  0.7561462E-02  0.1110047E+00
          2   -1    0    0  501    0  0.00000000000E+00  0.00000000000E+00  0.18428597197E+04  0.18428597197E+04  0.00000000000E+00 0. -1.
         -2   -1    0    0    0  501 -0.00000000000E+00 -0.00000000000E+00 -0.13372133813E+03  0.13372133813E+03  0.00000000000E+00 0.  1.
         25    2    1    2    0    0  0.15620879804E+03  0.19956872879E+03  0.16844981789E+04  0.17080430264E+04  0.12509196283E+03 0.  0.
          5    1    3    3  502    0  0.11594637449E+03  0.17383369795E+03  0.15707761682E+04  0.15846188688E+04  0.41800000000E+01 0.  1.
         -5    1    3    3    0  502  0.40262423555E+02  0.25735030842E+02  0.11372201068E+03  0.12342415758E+03  0.41800000000E+01 0.  1.
        -11    1    1    2    0    0 -0.13432485760E+03 -0.17445437749E+03 -0.10100269324E+02  0.22040760566E+03  0.00000000000E+00 0.  1.
         11    1    1    2    0    0 -0.21883940444E+02 -0.25114351305E+02  0.34740471981E+02  0.48130425764E+02  0.00000000000E+00 0. -1.
</event>
<event>
 7    1  0.2693725E-009  0.9525647E+02  0.7561462E-02  0.1290599E+00
          2   -1    0    0  501    0  0.00000000000E+00  0.00000000000E+00  0.18313127029E+03  0.18313127029E+03  0.00000000000E+00 0.  1.
         -2   -1    0    0    0  501 -0.00000000000E+00 -0.00000000000E+00 -0.10473532881E+03  0.10473532881E+03  0.00000000000E+00 0. -1.
         25    2    1    2    0    0  0.56036261611E+02 -0.10591133366E+02 -0.25629177796E+02  0.13984657157E+03  0.12509186266E+03 0.  0.
          5    1    3    3  502    0 -0.28410077510E+02 -0.23783938469E+02 -0.38170305744E+02  0.53359655863E+02  0.41800000000E+01 0. -1.
         -5    1    3    3    0  502  0.84446339121E+02  0.13192805103E+02  0.12541127948E+02  0.86486915702E+02  0.41800000000E+01 0. -1.
        -11    1    1    2    0    0 -0.46284198115E+02  0.23151829385E+02  0.11671592518E+03  0.12767474844E+03  0.00000000000E+00 0.  1.
         11    1    1    2    0    0 -0.97520634958E+01 -0.12560696020E+02 -0.12690805907E+02  0.20345279096E+02  0.00000000000E+00 0. -1.
</event>
<event>
 7    1  0.2693725E-009  0.5238717E+02  0.7561462E-02  0.1432875E+00
         -1   -1    0    0    0  501 -0.00000000000E+00  0.00000000000E+00  0.66204930038E+02  0.66204930038E+02  0.00000000000E+00 0.  1.
          1   -1    0    0  501    0  0.00000000000E+00 -0.00000000000E+00 -0.18874940665E+03  0.18874940665E+03  0.00000000000E+00 0. -1.
         25    2    1    2    0    0  0.17061852119E+02  0.19859074000E+02 -0.85427048898E+02  0.15372162710E+03  0.12508824221E+03 0.  0.
          5    1    3    3  502    0 -0.59094919621E+01 -0.13783865607E+02 -0.10652388665E+03  0.10765559843E+03  0.41800000000E+01 0.  1.
         -5    1    3    3    0  502  0.22971344081E+02  0.33642939607E+02  0.21096837755E+02  0.46066028671E+02  0.41800000000E+01 0.  1.
        -11    1    1    2    0    0 -0.29960905505E+01 -0.30481314583E+02 -0.62923385143E+02  0.69981708290E+02  0.00000000000E+00 0. -1.
         11    1    1    2    0    0 -0.14065761568E+02  0.10622240583E+02  0.25805957425E+02  0.31251001298E+02  0.00000000000E+00 0.  1.
</event>
<event>
 7    1  0.2693725E-009  0.1082770E+03  0.7561462E-02  0.1263794E+00
          2   -1    0    0  501    0  0.00000000000E+00  0.00000000000E+00  0.44585132499E+03  0.44585132499E+03  0.00000000000E+00 0. -1.
         -2   -1    0    0    0  501 -0.00000000000E+00 -0.00000000000E+00 -0.30167749652E+02  0.30167749652E+02  0.00000000000E+00 0.  1.
         25    2    1    2    0    0  0.11388880174E+01 -0.29967498707E+02  0.29714566276E+03  0.32379150236E+03  0.12508414792E+03 0.  0.
          5    1    3    3  502    0  0.56914508423E+02  0.74679307036E+01  0.98841442875E+02  0.11437715894E+03  0.41800000000E+01 0.  1.
         -5    1    3    3    0  502 -0.55775620406E+02 -0.37435429410E+02  0.19830421989E+03  0.20941434342E+03  0.41800000000E+01 0.  1.
        -11    1    1    2    0    0 -0.43534618547E+02  0.21117966051E+02  0.83556265166E+02  0.96555066935E+02  0.00000000000E+00 0. -1.
         11    1    1    2    0    0  0.42395730530E+02  0.88495326555E+01  0.34981647407E+02  0.55672505339E+02  0.00000000000E+00 0.  1.
</event>
<event>
 7    1  0.2693725E-009  0.9799628E+02  0.7561462E-02  0.1284567E+00
         -4   -1    0    0    0  501 -0.00000000000E+00  0.00000000000E+00  0.10414663749E+04  0.10414663749E+04  0.00000000000E+00 0.  1.
          4   -1    0    0  501    0  0.00000000000E+00 -0.00000000000E+00 -0.15893074218E+02  0.15893074218E+02  0.00000000000E+00 0. -1.
         25    2    1    2    0    0 -0.64077863472E+02  0.10790560404E+02  0.56536518107E+03  0.58267439643E+03  0.12509698440E+03 0.  0.
          5    1    3    3  502    0 -0.56009174713E+02 -0.13321187570E+02  0.54926701619E+03  0.55229177901E+03  0.41800000000E+01 0. -1.
         -5    1    3    3    0  502 -0.80686887587E+01  0.24111747974E+02  0.16098164882E+02  0.30382617419E+02  0.41800000000E+01 0. -1.
        -11    1    1    2    0    0  0.67379210692E+02 -0.43125902268E+02  0.26577579410E+03  0.27755463284E+03  0.00000000000E+00 0.  1.
         11    1    1    2    0    0 -0.33013472200E+01  0.32335341863E+02  0.19443232553E+03  0.19713041987E+03  0.00000000000E+00 0. -1.
</event>
<event>
 7    1  0.2693725E-009  0.6817907E+02  0.7561462E-02  0.1366397E+00
         -1   -1    0    0    0  501 -0.00000000000E+00  0.00000000000E+00  0.13122967394E+03  0.13122967394E+03  0.00000000000E+00 0.  1.
          1   -1    0    0  501    0  0.00000000000E+00 -0.00000000000E+00 -0.12127751116E+03  0.12127751116E+03  0.00000000000E+00 0. -1.
         25    2    1    2    0    0 -0.22855104167E+02  0.45663574535E+01 -0.48620813547E+02  0.13621249949E+03  0.12508658641E+03 0.  0.
          5    1    3    3  502    0 -0.26415658732E+02 -0.40183457338E+01  0.39298198939E+02  0.47704873635E+02  0.41800000000E+01 0. -1.
         -5    1    3    3    0  502  0.35605545649E+01  0.85847031873E+01 -0.87919012486E+02  0.88507625853E+02  0.41800000000E+01 0. -1.
        -11    1    1    2    0    0 -0.24432638049E+02 -0.35149750778E+02  0.16007702849E+02  0.45702355872E+02  0.00000000000E+00 0. -1.
         11    1    1    2    0    0  0.47287742216E+02  0.30583393324E+02  0.42565273477E+02  0.70592329734E+02  0.00000000000E+00 0.  1.
</event>
<event>
 7    1  0.2693725E-009  0.5531862E+02  0.7561462E-02  0.1418598E+00
         -2   -1    0    0    0  501 -0.00000000000E+00  0.00000000000E+00  0.15616557086E+03  0.15616557086E+03  0.00000000000E+00 0.  1.
          2   -1    0    0  501    0  0.00000000000E+00 -0.00000000000E+00 -0.80886414105E+02  0.80886414105E+02  0.00000000000E+00 0. -1.
         25    2    1    2    0    0 -0.15608600777E+02 -0.18068698280E+02  0.25347097284E+02  0.12984521668E+03  0.12508876320E+03 0.  0.
          5    1    3    3  502    0 -0.30805609951E+02  0.66042470965E+01  0.69755372268E+02  0.76654328282E+02  0.41800000000E+01 0.  1.
         -5    1    3    3    0  502  0.15197009174E+02 -0.24672945377E+02 -0.44408274984E+02  0.53190888397E+02  0.41800000000E+01 0.  1.
        -11    1    1    2    0    0  0.16683293941E+02 -0.11325422767E+02 -0.21789506192E+02  0.29688046040E+02  0.00000000000E+00 0. -1.
         11    1    1    2    0    0 -0.10746931640E+01  0.29394121048E+02  0.71721565663E+02  0.77518722246E+02  0.00000000000E+00 0.  1.
</event>
<event>
 7    1  0.2693725E-009  0.1655958E+03  0.7561462E-02  0.1182520E+00
          1   -1    0    0  501    0  0.00000000000E+00  0.00000000000E+00  0.16850248135E+03  0.16850248135E+03  0.00000000000E+00 0. -1.
         -1   -1    0    0    0  501 -0.00000000000E+00 -0.00000000000E+00 -0.16916253442E+03  0.16916253442E+03  0.00000000000E+00 0.  1.
         25    2    1    2    0    0 -0.11066188751E+03 -0.60066645876E+02 -0.28435283113E+02  0.17974239866E+03  0.12507881218E+03 0.  0.
          5    1    3    3  502    0 -0.92448550721E+02  0.19107026728E+02 -0.27398254649E+02  0.98386735684E+02  0.41800000000E+01 0.  1.
         -5    1    3    3    0  502 -0.18213336786E+02 -0.79173672603E+02 -0.10370284637E+01  0.81355662977E+02  0.41800000000E+01 0.  1.
        -11    1    1    2    0    0  0.98909919359E+02  0.49949063513E+01  0.14804026369E+02  0.10013630927E+03  0.00000000000E+00 0. -1.
         11    1    1    2    0    0  0.11751968149E+02  0.55071739525E+02  0.12971203668E+02  0.57786307844E+02  0.00000000000E+00 0.  1.
</event>
<event>
 7    1  0.2693725E-009  0.9411892E+02  0.7561462E-02  0.1293173E+00
          1   -1    0    0  501    0  0.00000000000E+00  0.00000000000E+00  0.11276263126E+03  0.11276263126E+03  0.00000000000E+00 0. -1.
         -1   -1    0    0    0  501 -0.00000000000E+00 -0.00000000000E+00 -0.13822552614E+03  0.13822552614E+03  0.00000000000E+00 0.  1.
         25    2    1    2    0    0 -0.29323351077E+02  0.33413037734E+02 -0.56068240746E+02  0.14410975116E+03  0.12509069810E+03 0.  0.
          5    1    3    3  502    0  0.40500301152E+02  0.24493960543E+02 -0.56200256316E+02  0.73594630962E+02  0.41800000000E+01 0. -1.
         -5    1    3    3    0  502 -0.69823652229E+02  0.89190771914E+01  0.13201556980E+00  0.70515120199E+02  0.41800000000E+01 0. -1.
        -11    1    1    2    0    0  0.43063356342E+01 -0.43148609072E+02 -0.21397936353E+02  0.48355130768E+02  0.00000000000E+00 0.  1.
         11    1    1    2    0    0  0.25017015442E+02  0.97355713374E+01  0.52003282212E+02  0.58523275470E+02  0.00000000000E+00 0. -1.
</event>
<event>
 7    1  0.2693725E-009  0.8163880E+02  0.7561462E-02  0.1324464E+00
          1   -1    0    0  501    0  0.00000000000E+00  0.00000000000E+00  0.77060029688E+02  0.77060029688E+02  0.00000000000E+00 0. -1.
         -1   -1    0    0    0  501 -0.00000000000E+00 -0.00000000000E+00 -0.22945748316E+03  0.22945748316E+03  0.00000000000E+00 0.  1.
         25    2    1    2    0    0  0.44045627952E+02  0.23203096407E+02 -0.15981117132E+02  0.13557708121E+03  0.12508935934E+03 0.  0.
          5    1    3    3  502    0 -0.23066794521E+02  0.18173452305E+02 -0.51449497796E+02  0.59387495331E+02  0.41800000000E+01 0.  1.
         -5    1    3    3    0  502  0.67112422473E+02  0.50296441029E+01  0.35468380665E+02  0.76189585883E+02  0.41800000000E+01 0.  1.
        -11    1    1    2    0    0 -0.32536209661E+02 -0.36301828233E+02 -0.14392420012E+03  0.15195592471E+03  0.00000000000E+00 0.  1.
         11    1    1    2    0    0 -0.11509418291E+02  0.13098731825E+02  0.75078637816E+01  0.18984506930E+02  0.00000000000E+00 0. -1.
</event>
<event>
 7    1  0.2693725E-009  0.1187702E+03  0.7561462E-02  0.1245140E+00
          3   -1    0    0  501    0  0.00000000000E+00  0.00000000000E+00  0.71426080899E+02  0.71426080899E+02  0.00000000000E+00 0. -1.
         -3   -1    0    0    0  501 -0.00000000000E+00 -0.00000000000E+00 -0.21685354165E+03  0.21685354165E+03  0.00000000000E+00 0.  1.
         25    2    1    2    0    0 -0.39621328855E+02 -0.42665149612E+02 -0.10220835294E+03  0.17170919430E+03  0.12508930931E+03 0.  0.
          5    1    3    3  502    0  0.44866921643E+02 -0.17102112879E+02 -0.48086220038E+02  0.68082889776E+02  0.41800000000E+01 0.  1.
         -5    1    3    3    0  502 -0.84488250498E+02 -0.25563036733E+02 -0.54122132902E+02  0.10362630452E+03  0.41800000000E+01 0.  1.
        -11    1    1    2    0    0  0.65362095884E+02  0.34848488323E+02 -0.49315658457E+02  0.88986824226E+02  0.00000000000E+00 0.  1.
         11    1    1    2    0    0 -0.25740767029E+02  0.78166612893E+01  0.60965506497E+01  0.27583604021E+02  0.00000000000E+00 0. -1.
</event>
<event>
 7    1  0.2693725E-009  0.1150843E+03  0.7561462E-02  0.1251434E+00
         -1   -1    0    0    0  501 -0.00000000000E+00  0.00000000000E+00  0.29870406430E+02  0.29870406430E+02  0.00000000000E+00 0.  1.
          1   -1    0    0  501    0  0.00000000000E+00 -0.00000000000E+00 -0.64541126097E+03  0.64541126097E+03  0.00000000000E+00 0. -1.
         25    2    1    2    0    0 -0.65113296552E+02 -0.44608175651E+02 -0.25430464933E+03  0.29419033043E+03  0.12508982822E+03 0.  0.
          5    1    3    3  502    0 -0.77143180099E+02 -0.12467651351E+02 -0.64928158408E+02  0.10168407309E+03  0.41800000000E+01 0.  1.
         -5    1    3    3    0  502  0.12029883547E+02 -0.32140524300E+02 -0.18937649093E+03  0.19250625734E+03  0.41800000000E+01 0.  1.
        -11    1    1    2    0    0 -0.19237469875E+02 -0.44720433240E+01 -0.31173820943E+02  0.36903746840E+02  0.00000000000E+00 0.  1.
         11    1    1    2    0    0  0.84350766427E+02  0.49080218975E+02 -0.33006238426E+03  0.34418759013E+03  0.00000000000E+00 0. -1.
</event>
<event>
 7    1  0.2693725E-009  0.7604170E+02  0.7561462E-02  0.1340675E+00
          2   -1    0    0  501    0  0.00000000000E+00  0.00000000000E+00  0.59344873924E+02  0.59344873924E+02  0.00000000000E+00 0. -1.
         -2   -1    0    0    0  501 -0.00000000000E+00 -0.00000000000E+00 -0.29489566645E+03  0.29489566645E+03  0.00000000000E+00 0.  1.
         25    2    1    2    0    0  0.22861114612E+02  0.41088754763E+02 -0.51262916709E+02  0.14312949040E+03  0.12508896059E+03 0.  0.
          5    1    3    3  502    0  0.36508293968E+02  0.39450393743E+02 -0.88269543754E+02  0.10343197692E+03  0.41800000000E+01 0.  1.
         -5    1    3    3    0  502 -0.13647179356E+02  0.16383610205E+01  0.37006627044E+02  0.39697513479E+02  0.41800000000E+01 0.  1.
        -11    1    1    2    0    0  0.15800126189E+02 -0.42267411352E+02 -0.15806737013E+03  0.16438209011E+03  0.00000000000E+00 0.  1.
         11    1    1    2    0    0 -0.38661240801E+02  0.11786565885E+01 -0.26220505692E+02  0.46728959868E+02  0.00000000000E+00 0. -1.
</event>
<event>
 7    1  0.2693725E-009  0.1254559E+03  0.7561462E-02  0.1234358E+00
          2   -1    0    0  501    0  0.00000000000E+00  0.00000000000E+00  0.65347495119E+02  0.65347495119E+02  0.00000000000E+00 0. -1.
         -2   -1    0    0    0  501 -0.00000000000E+00 -0.00000000000E+00 -0.27546782228E+03  0.27546782228E+03  0.00000000000E+00 0.  1.
         25    2    1    2    0    0  0.56904945652E+02 -0.54497661383E+02 -0.13134282208E+03  0.19775557988E+03  0.12509262379E+03 0.  0.
          5    1    3    3  502    0  0.69891267187E+02 -0.78129244421E+02 -0.58834288526E+02  0.12028264201E+03  0.41800000000E+01 0.  1.
         -5    1    3    3    0  502 -0.12986321536E+02  0.23631583039E+02 -0.72508533557E+02  0.77472937872E+02  0.41800000000E+01 0.  1.
        -11    1    1    2    0    0 -0.22539015643E+02 -0.24059833511E+02 -0.15132576091E+02  0.36275028241E+02  0.00000000000E+00 0. -1.
         11    1    1    2    0    0 -0.34365930008E+02  0.78557494893E+02 -0.63644928987E+02  0.10678470928E+03  0.00000000000E+00 0.  1.
</event>
<event>
 7    1  0.2693725E-009  0.1135810E+03  0.7561462E-02  0.1254079E+00
         -2   -1    0    0    0  501 -0.00000000000E+00  0.00000000000E+00  0.25109433751E+02  0.25109433751E+02  0.00000000000E+00 0.  1.
          2   -1    0    0  501    0  0.00000000000E+00 -0.00000000000E+00 -0.55742712906E+03  0.55742712906E+03  0.00000000000E+00 0. -1.
         25    2    1    2    0    0 -0.28422191705E+02 -0.32471473220E+02 -0.26445689414E+03  0.29571570061E+03  0.12509240255E+03 0.  0.
          5    1    3    3  502    0  0.45479442413E+02 -0.30885478614E+02 -0.82020940717E+02  0.98829143412E+02  0.41800000000E+01 0.  1.
         -5    1    3    3    0  502 -0.73901634118E+02 -0.15859946060E+01 -0.18243595342E+03  0.19688655720E+03  0.41800000000E+01 0.  1.
        -11    1    1    2    0    0 -0.29632886904E+02  0.26279008943E+02 -0.68922509954E+02  0.79492179965E+02  0.00000000000E+00 0.  1.
         11    1    1    2    0    0  0.58055078609E+02  0.61924642772E+01 -0.19893829122E+03  0.20732868224E+03  0.00000000000E+00 0. -1.
</event>
<event>
 7    1  0.2693725E-009  0.1221054E+03  0.7561462E-02  0.1239664E+00
          2   -1    0    0  501    0  0.00000000000E+00  0.00000000000E+00  0.10171618930E+03  0.10171618930E+03  0.00000000000E+00 0. -1.
         -2   -1    0    0    0  501 -0.00000000000E+00 -0.00000000000E+00 -0.17345923787E+03  0.17345923787E+03  0.00000000000E+00 0.  1.
         25    2    1    2    0    0  0.53509798434E+02  0.52873886031E+02 -0.22723741329E+02  0.14772464098E+03  0.12508898745E+03 0.  0.
          5    1    3    3  502    0 -0.28176965163E+02 -0.50086234838E+01 -0.36510334950E+02  0.46577941487E+02  0.41800000000E+01 0.  1.
         -5    1    3    3    0  502  0.81686763597E+02  0.57882509515E+02  0.13786593621E+02  0.10114669949E+03  0.41800000000E+01 0.  1.
        -11    1    1    2    0    0 -0.31068984203E+02 -0.76459099640E+02 -0.46666417002E+02  0.94810496112E+02  0.00000000000E+00 0.  1.
         11    1    1    2    0    0 -0.22440814231E+02  0.23585213609E+02 -0.23528902360E+01  0.32640290084E+02  0.00000000000E+00 0. -1.
</event>
<event>
 7    1  0.2693725E-009  0.8586049E+02  0.7561462E-02  0.1313197E+00
         -2   -1    0    0    0  501 -0.00000000000E+00  0.00000000000E+00  0.58587426525E+02  0.58587426525E+02  0.00000000000E+00 0.  1.
          2   -1    0    0  501    0  0.00000000000E+00 -0.00000000000E+00 -0.23099472367E+03  0.23099472367E+03  0.00000000000E+00 0. -1.
         25    2    1    2    0    0 -0.42021866263E+02 -0.56133503260E+01 -0.97203910047E+02  0.16399139289E+03  0.12508888786E+03 0.  0.
          5    1    3    3  502    0 -0.19255498416E+02 -0.45951749744E+02  0.64207246710E+01  0.50408686048E+02  0.41800000000E+01 0.  1.
         -5    1    3    3    0  502 -0.22766367847E+02  0.40338399418E+02 -0.10362463472E+03  0.11358270684E+03  0.41800000000E+01 0.  1.
        -11    1    1    2    0    0 -0.14426494356E+02 -0.88741399917E+01  0.11963701294E+02  0.20736543797E+02  0.00000000000E+00 0.  1.
         11    1    1    2    0    0  0.56448360618E+02  0.14487490318E+02 -0.87167088390E+02  0.10485421351E+03  0.00000000000E+00 0. -1.
</event>
<event>
 7    1  0.2693725E-009  0.1765042E+03  0.7561462E-02  0.1171230E+00
          2   -1    0    0  501    0  0.00000000000E+00  0.00000000000E+00  0.96659762551E+03  0.96659762551E+03  0.00000000000E+00 0. -1.
         -2   -1    0    0    0  501 -0.00000000000E+00 -0.00000000000E+00 -0.41499247468E+02  0.41499247468E+02  0.00000000000E+00 0.  1.
         25    2    1    2    0    0  0.12720077041E+03  0.10396160487E+03  0.57078527923E+03  0.60698822240E+03  0.12510322082E+03 0.  0.
          5    1    3    3  502    0  0.47277880319E+02  0.30832596593E+02  0.40478741397E+03  0.40872505415E+03  0.41800000000E+01 0. -1.
         -5    1    3    3    0  502  0.79922890086E+02  0.73129008279E+02  0.16599786526E+03  0.19826316824E+03  0.41800000000E+01 0. -1.
        -11    1    1    2    0    0 -0.13392520479E+03 -0.65739122890E+02  0.28337812722E+03  0.32025108234E+03  0.00000000000E+00 0.  1.
         11    1    1    2    0    0  0.67244343860E+01 -0.38222481982E+02  0.70934971591E+02  0.80857568237E+02  0.00000000000E+00 0. -1.
</event>
<event>
 7    1  0.2693725E-009  0.1056372E+03  0.7561462E-02  0.1268869E+00
         -1   -1    0    0    0  501 -0.00000000000E+00  0.00000000000E+00  0.11960004706E+03  0.11960004706E+03  0.00000000000E+00 0.  1.
          1   -1    0    0  501    0  0.00000000000E+00 -0.00000000000E+00 -0.12800300264E+03  0.12800300264E+03  0.00000000000E+00 0. -1.
         25    2    1    2    0    0 -0.25551844143E+02 -0.28902509651E+02 -0.48798912493E+02  0.13970283499E+03  0.12508915396E+03 0.  0.
          5    1    3    3  502    0  0.36703758551E+02 -0.35546270071E+02 -0.56721826065E+02  0.76456138798E+02  0.41800000000E+01 0. -1.
         -5    1    3    3    0  502 -0.62255602694E+02  0.66437604201E+01  0.79229135717E+01  0.63246696189E+02  0.41800000000E+01 0. -1.
        -11    1    1    2    0    0  0.19133613277E+02 -0.31317099362E+02  0.27808356619E+02  0.46045201350E+02  0.00000000000E+00 0.  1.
         11    1    1    2    0    0  0.64182308657E+01  0.60219609013E+02  0.12587600293E+02  0.61855013364E+02  0.00000000000E+00 0. -1.
</event>
<event>
 7    1  0.2693725E-009  0.1177652E+03  0.7561462E-02  0.1246830E+00
         -1   -1    0    0    0  501 -0.00000000000E+00  0.00000000000E+00  0.42776449589E+03  0.42776449589E+03  0.00000000000E+00 0.  1.
          1   -1    0    0  501    0  0.00000000000E+00 -0.00000000000E+00 -0.44815696470E+02  0.44815696470E+02  0.00000000000E+00 0. -1.
         25    2    1    2    0    0 -0.45566065350E+02  0.22571163506E+02  0.32876667640E+03  0.35541802428E+03  0.12509484695E+03 0.  0.
          5    1    3    3  502    0  0.40308221377E+02  0.26520224923E+02  0.13396291991E+03  0.14244862706E+03  0.41800000000E+01 0.  1.
         -5    1    3    3    0  502 -0.85874286726E+02 -0.39490614177E+01  0.19480375650E+03  0.21296939722E+03  0.41800000000E+01 0.  1.
        -11    1    1    2    0    0 -0.24851979863E+02 -0.17573782541E+02  0.29469888981E+02  0.42366650711E+02  0.00000000000E+00 0.  1.
         11    1    1    2    0    0  0.70418045212E+02 -0.49973809642E+01  0.24712234036E+02  0.74795517373E+02  0.00000000000E+00 0. -1.
</event>
<event>
 7    1  0.2693725E-009  0.1614161E+03  0.7561462E-02  0.1187107E+00
         -2   -1    0    0    0  501 -0.00000000000E+00  0.00000000000E+00  0.44243665800E+03  0.44243665800E+03  0.00000000000E+00 0. -1.
          2   -1    0    0  501    0  0.00000000000E+00 -0.00000000000E+00 -0.88032141876E+02  0.88032141876E+02  0.00000000000E+00 0.  1.
         25    2    1    2    0    0  0.62033958103E+02 -0.10230587068E+03  0.34616876672E+02  0.17652632985E+03  0.12509402002E+03 0.  0.
          5    1    3    3  502    0 -0.33980616795E+02 -0.34393299946E+01  0.13847505230E+02  0.37090930289E+02  0.41800000000E+01 0.  1.
         -5    1    3    3    0  502  0.96014574898E+02 -0.98866540683E+02  0.20769371442E+02  0.13943539956E+03  0.41800000000E+01 0.  1.
        -11    1    1    2    0    0 -0.79739953030E+02  0.47198923001E+02  0.17509709091E+03  0.19810398705E+03  0.00000000000E+00 0.  1.
         11    1    1    2    0    0  0.17705994927E+02  0.55106947677E+02  0.14469054854E+03  0.15583848298E+03  0.00000000000E+00 0. -1.
</event>
<event>
 7    1  0.2693725E-009  0.1419975E+03  0.7561462E-02  0.1210666E+00
          1   -1    0    0  501    0  0.00000000000E+00  0.00000000000E+00  0.16354472585E+03  0.16354472585E+03  0.00000000000E+00 0. -1.
         -1   -1    0    0    0  501 -0.00000000000E+00 -0.00000000000E+00 -0.13698246386E+03  0.13698246386E+03  0.00000000000E+00 0.  1.
         25    2    1    2    0    0 -0.10730541219E+03  0.28150496917E+02  0.24556866976E+02  0.16898837246E+03  0.12508848208E+03 0.  0.
          5    1    3    3  502    0 -0.12818502337E+03 -0.19958334410E+01  0.29866723086E+02  0.13169995108E+03  0.41800000000E+01 0.  1.
         -5    1    3    3    0  502  0.20879611176E+02  0.30146330358E+02 -0.53098561095E+01  0.37288421378E+02  0.41800000000E+01 0.  1.
        -11    1    1    2    0    0  0.79015308780E+02 -0.39497164341E+02  0.26728292517E+02  0.92292180782E+02  0.00000000000E+00 0.  1.
         11    1    1    2    0    0  0.28290103413E+02  0.11346667423E+02 -0.24722897506E+02  0.39246636465E+02  0.00000000000E+00 0. -1.
</event>
<event>
 7    1  0.2693725E-009  0.1160743E+03  0.7561462E-02  0.1249717E+00
          2   -1    0    0  501    0  0.00000000000E+00  0.00000000000E+00  0.20666826737E+03  0.20666826737E+03  0.00000000000E+00 0. -1.
         -2   -1    0    0    0  501 -0.00000000000E+00 -0.00000000000E+00 -0.10089119035E+03  0.10089119035E+03  0.00000000000E+00 0.  1.
         25    2    1    2    0    0  0.66711714303E+02  0.64440673818E+02  0.76573820823E+02  0.17353421691E+03  0.12509005210E+03 0.  0.
          5    1    3    3  502    0 -0.63804487402E+01 -0.15398875964E+02  0.61874489229E+02  0.64216511307E+02  0.41800000000E+01 0. -1.
         -5    1    3    3    0  502  0.73092163043E+02  0.79839549783E+02  0.14699331594E+02  0.10931770560E+03  0.41800000000E+01 0. -1.
        -11    1    1    2    0    0 -0.34222852357E+02 -0.65750626022E+02  0.55179875444E+02  0.92407613862E+02  0.00000000000E+00 0. -1.
         11    1    1    2    0    0 -0.32488861947E+02  0.13099522035E+01 -0.25976619246E+02  0.41617626948E+02  0.00000000000E+00 0.  1.
</event>
<event>
 7    1  0.2693725E-009  0.1166152E+03  0.7561462E-02  0.1248788E+00
          2   -1    0    0  501    0  0.00000000000E+00  0.00000000000E+00  0.33878843274E+03  0.33878843274E+03  0.00000000000E+00 0. -1.
         -2   -1    0    0    0  501 -0.00000000000E+00 -0.00000000000E+00 -0.69653056740E+02  0.69653056740E+02  0.00000000000E+00 0.  1.
         25    2    1    2    0    0 -0.80614700225E+02  0.60894583127E+02  0.94587574983E+02  0.18655199130E+03  0.12509179019E+03 0.  0.
          5    1    3    3  502    0 -0.30574889024E+02  0.29586959062E+02  0.11599636494E+03  0.12362378843E+03  0.41800000000E+01 0. -1.
         -5    1    3    3    0  502 -0.50039811201E+02  0.31307624064E+02 -0.21408789960E+02  0.62928202876E+02  0.41800000000E+01 0. -1.
        -11    1    1    2    0    0  0.81015736367E+02 -0.11406543388E+02  0.76257214361E+02  0.11184284292E+03  0.00000000000E+00 0.  1.
         11    1    1    2    0    0 -0.40103614159E+00 -0.49488039739E+02  0.98290586656E+02  0.11004665525E+03  0.00000000000E+00 0. -1.
</event>
<event>
 7    1  0.2693725E-009  0.2048640E+03  0.7561462E-02  0.1145699E+00
          2   -1    0    0  501    0  0.00000000000E+00  0.00000000000E+00  0.76456852622E+03  0.76456852622E+03  0.00000000000E+00 0. -1.
         -2   -1    0    0    0  501 -0.00000000000E+00 -0.00000000000E+00 -0.72129443110E+02  0.72129443110E+02  0.00000000000E+00 0.  1.
         25    2    1    2    0    0  0.86330538495E+02 -0.16710967548E+03  0.19895260794E+03  0.30101211054E+03  0.12509014737E+03 0.  0.
          5    1    3    3  502    0 -0.15042932060E+02 -0.47317192249E+02  0.29801602645E+01  0.49915531075E+02  0.41800000000E+01 0. -1.
         -5    1    3    3    0  502  0.10137347055E+03 -0.11979248323E+03  0.19597244767E+03  0.25109657947E+03  0.41800000000E+01 0. -1.
        -11    1    1    2    0    0 -0.52544910697E+02  0.27557370990E+02  0.20544099588E+03  0.21383727254E+03  0.00000000000E+00 0.  1.
         11    1    1    2    0    0 -0.33785627798E+02  0.13955230449E+03  0.28804547929E+03  0.32184858626E+03  0.00000000000E+00 0. -1.
</event>
<event>
 7    1  0.2693725E-009  0.1306940E+03  0.7561462E-02  0.1226430E+00
         -2   -1    0    0    0  501 -0.00000000000E+00  0.00000000000E+00  0.89717203846E+02  0.89717203846E+02  0.00000000000E+00 0.  1.
          2   -1    0    0  501    0  0.00000000000E+00 -0.00000000000E+00 -0.20352201224E+03  0.20352201224E+03  0.00000000000E+00 0. -1.
         25    2    1    2    0    0  0.63261107260E+02  0.48906326898E+02 -0.63108423673E+02  0.16132676892E+03  0.12509938741E+03 0.  0.
          5    1    3    3  502    0  0.34549527537E+02 -0.40106619984E+02 -0.34916630570E+02  0.63551981164E+02  0.41800000000E+01 0.  1.
         -5    1    3    3    0  502  0.28711579723E+02  0.89012946881E+02 -0.28191793103E+02  0.97774787758E+02  0.41800000000E+01 0.  1.
        -11    1    1    2    0    0 -0.60198238073E+02 -0.70586259085E+02 -0.57304805867E+02  0.10904168292E+03  0.00000000000E+00 0. -1.
         11    1    1    2    0    0 -0.30628691870E+01  0.21679932188E+02  0.66084211407E+01  0.22870764248E+02  0.00000000000E+00 0.  1.
</event>
<event>
 7    1  0.2693725E-009  0.2058990E+03  0.7561462E-02  0.1144855E+00
         -1   -1    0    0    0  501 -0.00000000000E+00  0.00000000000E+00  0.34135263405E+03  0.34135263405E+03  0.00000000000E+00 0.  1.
          1   -1    0    0  501    0  0.00000000000E+00 -0.00000000000E+00 -0.15383933825E+03  0.15383933825E+03  0.00000000000E+00 0. -1.
         25    2    1    2    0    0  0.18077995765E+03 -0.82787845568E+02  0.67801121894E+02  0.24449966007E+03  0.12509145128E+03 0.  0.
          5    1    3    3  502    0  0.37832522663E+02 -0.42938484260E-01 -0.33491690006E+02  0.50699776274E+02  0.41800000000E+01 0.  1.
         -5    1    3    3    0  502  0.14294743499E+03 -0.82744907083E+02  0.10129281190E+03  0.19379988380E+03  0.41800000000E+01 0.  1.
        -11    1    1    2    0    0 -0.14285783172E+03  0.34228447778E+02  0.11903706170E+03  0.18907609257E+03  0.00000000000E+00 0.  1.
         11    1    1    2    0    0 -0.37922125925E+02  0.48559397789E+02  0.67511221081E+00  0.61616219657E+02  0.00000000000E+00 0. -1.
</event>
<event>
 7    1  0.2693725E-009  0.1015270E+03  0.7561462E-02  0.1277117E+00
          1   -1    0    0  501    0  0.00000000000E+00  0.00000000000E+00  0.28283083969E+03  0.28283083969E+03  0.00000000000E+00 0. -1.
         -1   -1    0    0    0  501 -0.00000000000E+00 -0.00000000000E+00 -0.63505229097E+02  0.63505229097E+02  0.00000000000E+00 0.  1.
         25    2    1    2    0    0  0.38890551601E+02 -0.42344893134E+02  0.56099258102E+02  0.14866153088E+03  0.12509020356E+03 0.  0.
          5    1    3    3  502    0  0.47618016991E+02 -0.59070005564E+02  0.84925256156E+02  0.11395838114E+03  0.41800000000E+01 0.  1.
         -5    1    3    3    0  502 -0.87274653894E+01  0.16725112430E+02 -0.28825998054E+02  0.34703149738E+02  0.41800000000E+01 0.  1.
        -11    1    1    2    0    0 -0.27411902017E+02 -0.26393370090E+02  0.83633653405E+02  0.91883678305E+02  0.00000000000E+00 0. -1.
         11    1    1    2    0    0 -0.11478649585E+02  0.68738263224E+02  0.79592699082E+02  0.10579085960E+03  0.00000000000E+00 0.  1.
</event>
<event>
 7    1  0.2693725E-009  0.1221739E+03  0.7561462E-02  0.1239553E+00
         -2   -1    0    0    0  501 -0.00000000000E+00  0.00000000000E+00  0.53489486214E+02  0.53489486214E+02  0.00000000000E+00 0.  1.
          2   -1    0    0  501    0  0.00000000000E+00 -0.00000000000E+00 -0.37411609855E+03  0.37411609855E+03  0.00000000000E+00 0. -1.
         25    2    1    2    0    0  0.55891685269E+02 -0.45242878935E+02 -0.94298811105E+02  0.17236554663E+03  0.12508723881E+03 0.  0.
          5    1    3    3  502    0  0.75725678051E+02 -0.63881321189E+02 -0.10349766634E+03  0.14333332079E+03  0.41800000000E+01 0. -1.
         -5    1    3    3    0  502 -0.19833992782E+02  0.18638442254E+02  0.91988552305E+01  0.29032225834E+02  0.41800000000E+01 0. -1.
        -11    1    1    2    0    0  0.12941665326E+02  0.47047116720E+02 -0.84369798639E+02  0.97463741030E+02  0.00000000000E+00 0. -1.
         11    1    1    2    0    0 -0.68833350595E+02 -0.18042377856E+01 -0.14195800259E+03  0.15777629710E+03  0.00000000000E+00 0.  1.
</event>
<event>
 7    1  0.2693725E-009  0.9895830E+02  0.7561462E-02  0.1282502E+00
         -2   -1    0    0    0  501 -0.00000000000E+00  0.00000000000E+00  0.42500237086E+03  0.42500237086E+03  0.00000000000E+00 0.  1.
          2   -1    0    0  501    0  0.00000000000E+00 -0.00000000000E+00 -0.40435730609E+02  0.40435730609E+02  0.00000000000E+00 0. -1.
         25    2    1    2    0    0  0.20744872944E+02  0.92636663850E+01  0.34339180061E+03  0.36617248137E+03  0.12509273405E+03 0.  0.
          5    1    3    3  502    0  0.18228959514E+02  0.60377428853E+02  0.10705278052E+03  0.12432014759E+03  0.41800000000E+01 0.  1.
         -5    1    3    3    0  502  0.25159134299E+01 -0.51113762468E+02  0.23633902009E+03  0.24185233378E+03  0.41800000000E+01 0.  1.
        -11    1    1    2    0    0 -0.37925964891E+02  0.24728405697E+02  0.41144853259E+02  0.61178197186E+02  0.00000000000E+00 0.  1.
         11    1    1    2    0    0  0.17181091947E+02 -0.33992072082E+02  0.29986374578E-01  0.38087422913E+02  0.00000000000E+00 0. -1.
</event>
<event>
 7    1  0.2693725E-009  0.1676427E+03  0.7561462E-02  0.1180329E+00
         -1   -1    0    0    0  501 -0.00000000000E+00  0.00000000000E+00  0.99581983528E+02  0.99581983528E+02  0.00000000000E+00 0.  1.
          1   -1    0    0  501    0  0.00000000000E+00 -0.00000000000E+00 -0.35539592612E+03  0.35539592612E+03  0.00000000000E+00 0. -1.
         25    2    1    2    0    0  0.34221037746E+02  0.14784267214E+03 -0.16670389209E+03  0.25780956440E+03  0.12508816381E+03 0.  0.
          5    1    3    3  502    0 -0.31382800380E+02  0.55007182356E+02 -0.10121935156E+02  0.64269714810E+02  0.41800000000E+01 0.  1.
         -5    1    3    3    0  502  0.65603838126E+02  0.92835489787E+02 -0.15658195694E+03  0.19353984959E+03  0.41800000000E+01 0.  1.
        -11    1    1    2    0    0  0.10250582243E+02 -0.42515636077E+02  0.11118050109E+02  0.45124990699E+02  0.00000000000E+00 0.  1.
         11    1    1    2    0    0 -0.44471619989E+02 -0.10532703607E+03 -0.10022810061E+03  0.15204335455E+03  0.00000000000E+00 0. -1.
</event>
<event>
 7    1  0.2693725E-009  0.1847855E+03  0.7561462E-02  0.1163250E+00
          2   -1    0    0  501    0  0.00000000000E+00  0.00000000000E+00  0.17740666883E+04  0.17740666883E+04  0.00000000000E+00 0. -1.
         -2   -1    0    0    0  501 -0.00000000000E+00 -0.00000000000E+00 -0.29361912883E+02  0.29361912883E+02  0.00000000000E+00 0.  1.
         25    2    1    2    0    0 -0.12024037150E+03 -0.11566855811E+03  0.13456792128E+04  0.13617402807E+04  0.12508831358E+03 0.  0.
          5    1    3    3  502    0 -0.15517595087E+02 -0.92035854981E+02  0.44683851062E+03  0.45650139248E+03  0.41800000000E+01 0.  1.
         -5    1    3    3    0  502 -0.10472277641E+03 -0.23632703131E+02  0.89884070214E+03  0.90523888824E+03  0.41800000000E+01 0.  1.
        -11    1    1    2    0    0  0.96575215230E+02  0.10526282274E+03  0.38822062564E+03  0.41366929813E+03  0.00000000000E+00 0. -1.
         11    1    1    2    0    0  0.23665156267E+02  0.10405735374E+02  0.10804937055E+02  0.28019022370E+02  0.00000000000E+00 0.  1.
</event>
<event>
 7    1  0.2693725E-009  0.4107469E+03  0.7561462E-02  0.1040121E+00
         -1   -1    0    0    0  501 -0.00000000000E+00  0.00000000000E+00  0.18097150562E+03  0.18097150562E+03  0.00000000000E+00 0.  1.
          1   -1    0    0  501    0  0.00000000000E+00 -0.00000000000E+00 -0.96452201187E+03  0.96452201187E+03  0.00000000000E+00 0. -1.
         25    2    1    2    0    0 -0.53794061685E+02 -0.39753878659E+03 -0.33950021921E+03  0.54022031254E+03  0.12508676713E+03 0.  0.
          5    1    3    3  502    0 -0.82735284066E+02 -0.15415317687E+03 -0.14639250557E+03  0.22815908322E+03  0.41800000000E+01 0. -1.
         -5    1    3    3    0  502  0.28941222381E+02 -0.24338560973E+03 -0.19310771365E+03  0.31206122932E+03  0.41800000000E+01 0. -1.
        -11    1    1    2    0    0  0.15753667434E+02  0.79159709575E+02 -0.14939288048E+03  0.16980185628E+03  0.00000000000E+00 0.  1.
         11    1    1    2    0    0  0.38040394251E+02  0.31837907702E+03 -0.29465740655E+03  0.43547134867E+03  0.00000000000E+00 0. -1.
</event>
<event>
 7    1  0.2693725E-009  0.1523041E+03  0.7561462E-02  0.1197670E+00
         -2   -1    0    0    0  501 -0.00000000000E+00  0.00000000000E+00  0.24527367468E+03  0.24527367468E+03  0.00000000000E+00 0.  1.
          2   -1    0    0  501    0  0.00000000000E+00 -0.00000000000E+00 -0.11661503204E+03  0.11661503204E+03  0.00000000000E+00 0. -1.
         25    2    1    2    0    0 -0.62363461079E+02  0.86925909884E+02  0.13244684449E+03  0.21127071261E+03  0.12509129588E+03 0.  0.
          5    1    3    3  502    0  0.34761392408E+02  0.48302890155E+01  0.43373767159E+02  0.55950354526E+02  0.41800000000E+01 0.  1.
         -5    1    3    3    0  502 -0.97124853487E+02  0.82095620869E+02  0.89073077332E+02  0.15532035809E+03  0.41800000000E+01 0.  1.
        -11    1    1    2    0    0 -0.20502592701E+02 -0.44349306208E+02 -0.25273130494E+02  0.55008621084E+02  0.00000000000E+00 0.  1.
         11    1    1    2    0    0  0.82866053781E+02 -0.42576603676E+02  0.21484928647E+02  0.95609373017E+02  0.00000000000E+00 0. -1.
</event>
<event>
 7    1  0.2693725E-009  0.2430938E+03  0.7561462E-02  0.1117749E+00
         -1   -1    0    0    0  501 -0.00000000000E+00  0.00000000000E+00  0.42700514053E+02  0.42700514053E+02  0.00000000000E+00 0.  1.
          1   -1    0    0  501    0  0.00000000000E+00 -0.00000000000E+00 -0.15737254655E+04  0.15737254655E+04  0.00000000000E+00 0. -1.
         25    2    1    2    0    0  0.57576423163E+02  0.22357871903E+03 -0.92616829767E+03  0.96267216086E+03  0.12508991004E+03 0.  0.
          5    1    3    3  502    0  0.41726408593E+02  0.23108044461E+03 -0.90446290586E+03  0.93445700036E+03  0.41800000000E+01 0.  1.
         -5    1    3    3    0  502  0.15850014570E+02 -0.75017255796E+01 -0.21705391810E+02  0.28215160502E+02  0.41800000000E+01 0.  1.
        -11    1    1    2    0    0 -0.47623210353E+02 -0.11783252391E+03 -0.43708243399E+03  0.45518515788E+03  0.00000000000E+00 0. -1.
         11    1    1    2    0    0 -0.99532128095E+01 -0.10574619511E+03 -0.16777421977E+03  0.19856866078E+03  0.00000000000E+00 0.  1.
</event>
<event>
 7    1  0.2693725E-009  0.8562251E+02  0.7561462E-02  0.1313813E+00
          1   -1    0    0  501    0  0.00000000000E+00  0.00000000000E+00  0.62216993657E+03  0.62216993657E+03  0.00000000000E+00 0. -1.
         -1   -1    0    0    0  501 -0.00000000000E+00 -0.00000000000E+00 -0.25147230072E+02  0.25147230072E+02  0.00000000000E+00 0.  1.
         25    2    1    2    0    0 -0.42415500602E+02 -0.10975376785E+02  0.43793029882E+03  0.45754886561E+03  0.12509390154E+03 0.  0.
          5    1    3    3  502    0 -0.43961579322E+02  0.38724742937E+02  0.36170807242E+03  0.36644566886E+03  0.41800000000E+01 0.  1.
         -5    1    3    3    0  502  0.15460787200E+01 -0.49700119722E+02  0.76222226407E+02  0.91103196750E+02  0.41800000000E+01 0.  1.
        -11    1    1    2    0    0 -0.90779774173E+01  0.59921605478E+01 -0.88597304682E+01  0.14028916066E+02  0.00000000000E+00 0.  1.
         11    1    1    2    0    0  0.51493478019E+02  0.49832162367E+01  0.16795213815E+03  0.17573938497E+03  0.00000000000E+00 0. -1.
</event>
<event>
 7    1  0.2693725E-009  0.1382095E+03  0.7561462E-02  0.1215759E+00
         -2   -1    0    0    0  501 -0.00000000000E+00  0.00000000000E+00  0.14335421185E+03  0.14335421185E+03  0.00000000000E+00 0.  1.
          2   -1    0    0  501    0  0.00000000000E+00 -0.00000000000E+00 -0.18395246801E+03  0.18395246801E+03  0.00000000000E+00 0. -1.
         25    2    1    2    0    0 -0.31817518521E+02  0.84654340241E+02  0.58401280155E+02  0.16503796619E+03  0.12509240167E+03 0.  0.
          5    1    3    3  502    0  0.15102683773E+02  0.10245960188E+03  0.44468641316E+02  0.11278738198E+03  0.41800000000E+01 0. -1.
         -5    1    3    3    0  502 -0.46920202294E+02 -0.17805261637E+02  0.13932638840E+02  0.52250584210E+02  0.41800000000E+01 0. -1.
        -11    1    1    2    0    0  0.30324800736E+02  0.66889914429E+01 -0.54804268603E+01  0.31533652259E+02  0.00000000000E+00 0.  1.
         11    1    1    2    0    0  0.14927177853E+01 -0.91343331684E+02 -0.93519109449E+02  0.13073506141E+03  0.00000000000E+00 0. -1.
</event>
<event>
 7    1  0.2693725E-009  0.2559763E+03  0.7561462E-02  0.1109585E+00
          2   -1    0    0  501    0  0.00000000000E+00  0.00000000000E+00  0.49088285478E+03  0.49088285478E+03  0.00000000000E+00 0. -1.
         -2   -1    0    0    0  501 -0.00000000000E+00 -0.00000000000E+00 -0.15484660641E+03  0.15484660641E+03  0.00000000000E+00 0.  1.
         25    2    1    2    0    0  0.16752298011E+03 -0.18839240591E+03  0.20304634763E+03  0.34703148118E+03  0.12508949665E+03 0.  0.
          5    1    3    3  502    0  0.11986719721E+03 -0.14634932052E+03  0.21034230753E+03  0.28292689395E+03  0.41800000000E+01 0. -1.
         -5    1    3    3    0  502  0.47655782903E+02 -0.42043085383E+02 -0.72959598937E+01  0.64104587226E+02  0.41800000000E+01 0. -1.
        -11    1    1    2    0    0 -0.14026305575E+03  0.18410880433E+03  0.13964074561E+03  0.27031336347E+03  0.00000000000E+00 0. -1.
         11    1    1    2    0    0 -0.27259924362E+02  0.42836015790E+01 -0.66508448688E+01  0.28384616541E+02  0.00000000000E+00 0.  1.
</event>
<event>
 7    1  0.2693725E-009  0.8552445E+02  0.7561462E-02  0.1314067E+00
         -2   -1    0    0    0  501 -0.00000000000E+00  0.00000000000E+00  0.17502606620E+02  0.17502606620E+02  0.00000000000E+00 0.  1.
          2   -1    0    0  501    0  0.00000000000E+00 -0.00000000000E+00 -0.68872145656E+03  0.68872145656E+03  0.00000000000E+00 0. -1.
         25    2    1    2    0    0 -0.50608664290E+01  0.14542073377E+02 -0.35246808594E+03  0.37432450035E+03  0.12509194893E+03 0.  0.
          5    1    3    3  502    0 -0.21327913564E+02 -0.27425702591E+02 -0.31105921354E+03  0.31302133439E+03  0.41800000000E+01 0.  1.
         -5    1    3    3    0  502  0.16267047135E+02  0.41967775968E+02 -0.41408872405E+02  0.61303165955E+02  0.41800000000E+01 0.  1.
        -11    1    1    2    0    0 -0.34656903998E+02  0.18411061961E+02 -0.10759071683E+03  0.11452436660E+03  0.00000000000E+00 0. -1.
         11    1    1    2    0    0  0.39717770427E+02 -0.32953135338E+02 -0.21116004717E+03  0.21737519623E+03  0.00000000000E+00 0.  1.
</event>
<event>
 7    1  0.2693725E-009  0.1047414E+03  0.7561462E-02  0.1270630E+00
         -2   -1    0    0    0  501 -0.00000000000E+00  0.00000000000E+00  0.67453942973E+02  0.67453942973E+02  0.00000000000E+00 0.  1.
          2   -1    0    0  501    0  0.00000000000E+00 -0.00000000000E+00 -0.24568733009E+03  0.24568733009E+03  0.00000000000E+00 0. -1.
         25    2    1    2    0    0 -0.14667085798E+02  0.64748131983E+02 -0.87244252856E+02  0.16633208918E+03  0.12508940895E+03 0.  0.
          5    1    3    3  502    0  0.36994607279E+02  0.63043368470E+02 -0.87991026270E+02  0.11446816317E+03  0.41800000000E+01 0.  1.
         -5    1    3    3    0  502 -0.51661693077E+02  0.17047635132E+01  0.74677341435E+00  0.51863926006E+02  0.41800000000E+01 0.  1.
        -11    1    1    2    0    0 -0.19698879933E+02 -0.25927488504E+02 -0.89171625821E+02  0.94930813660E+02  0.00000000000E+00 0. -1.
         11    1    1    2    0    0  0.34365965730E+02 -0.38820643480E+02 -0.18175084443E+01  0.51878370230E+02  0.00000000000E+00 0.  1.
</event>
<event>
 7    1  0.2693725E-009  0.1336786E+03  0.7561462E-02  0.1222097E+00
          3   -1    0    0  501    0  0.00000000000E+00  0.00000000000E+00  0.11579576475E+03  0.11579576475E+03  0.00000000000E+00 0. -1.
         -3   -1    0    0    0  501 -0.00000000000E+00 -0.00000000000E+00 -0.26538172396E+03  0.26538172396E+03  0.00000000000E+00 0.  1.
         25    2    1    2    0    0  0.11045928103E+03  0.63691153138E+02 -0.23582848695E+02  0.18016917350E+03  0.12508782744E+03 0.  0.
          5    1    3    3  502    0  0.45735212419E+02  0.58900647461E+02  0.43747599500E+02  0.86558193075E+02  0.41800000000E+01 0. -1.
         -5    1    3    3    0  502  0.64724068610E+02  0.47905056765E+01 -0.67330448196E+02  0.93610980426E+02  0.41800000000E+01 0. -1.
        -11    1    1    2    0    0 -0.90342407384E+02 -0.49506919530E+02 -0.38284718560E+02  0.10990179857E+03  0.00000000000E+00 0. -1.
         11    1    1    2    0    0 -0.20116873644E+02 -0.14184233608E+02 -0.87718391952E+02  0.91106516643E+02  0.00000000000E+00 0.  1.
</event>
<event>
 7    1  0.2693725E-009  0.1066716E+03  0.7561462E-02  0.1266861E+00
          2   -1    0    0  501    0  0.00000000000E+00  0.00000000000E+00  0.89896597948E+03  0.89896597948E+03  0.00000000000E+00 0. -1.
         -2   -1    0    0    0  501 -0.00000000000E+00 -0.00000000000E+00 -0.28998318270E+02  0.28998318270E+02  0.00000000000E+00 0.  1.
         25    2    1    2    0    0 -0.50780198109E+02 -0.21921905865E+02  0.77000973865E+03  0.78206206382E+03  0.12508747170E+03 0.  0.
          5    1    3    3  502    0 -0.27039597892E+02  0.49709754279E+02  0.43168571201E+03  0.43539892728E+03  0.41800000000E+01 0. -1.
         -5    1    3    3    0  502 -0.23740600217E+02 -0.71631660144E+02  0.33832402664E+03  0.34666313654E+03  0.41800000000E+01 0. -1.
        -11    1    1    2    0    0  0.44875113834E+02 -0.12110983576E+02  0.73447654673E+01  0.47057383529E+02  0.00000000000E+00 0.  1.
         11    1    1    2    0    0  0.59050842748E+01  0.34032889441E+02  0.92613157092E+02  0.98844850400E+02  0.00000000000E+00 0. -1.
</event>
<event>
 7    1  0.2693725E-009  0.1406939E+03  0.7561462E-02  0.1212398E+00
         -1   -1    0    0    0  501 -0.00000000000E+00  0.00000000000E+00  0.81939499862E+02  0.81939499862E+02  0.00000000000E+00 0.  1.
          1   -1    0    0  501    0  0.00000000000E+00 -0.00000000000E+00 -0.32912426108E+03  0.32912426108E+03  0.00000000000E+00 0. -1.
         25    2    1    2    0    0  0.10376048052E+03 -0.65485019409E+02 -0.12434466444E+03  0.21485776518E+03  0.12509092133E+03 0.  0.
          5    1    3    3  502    0  0.11165311974E+03 -0.22622550418E+02 -0.12741327651E+03  0.17096729034E+03  0.41800000000E+01 0.  1.
         -5    1    3    3    0  502 -0.78926392143E+01 -0.42862468991E+02  0.30686120722E+01  0.43890474841E+02  0.41800000000E+01 0.  1.
        -11    1    1    2    0    0 -0.78707035490E+02  0.56908063124E+02 -0.33053229176E+02  0.10259552155E+03  0.00000000000E+00 0.  1.
         11    1    1    2    0    0 -0.25053445035E+02  0.85769562847E+01 -0.89786867599E+02  0.93610474203E+02  0.00000000000E+00 0. -1.
</event>
<event>
 7    1  0.2693725E-009  0.7311227E+02  0.7561462E-02  0.1349818E+00
         -3   -1    0    0    0  501 -0.00000000000E+00  0.00000000000E+00  0.12358138973E+03  0.12358138973E+03  0.00000000000E+00 0.  1.
          3   -1    0    0  501    0  0.00000000000E+00 -0.00000000000E+00 -0.12168337090E+03  0.12168337090E+03  0.00000000000E+00 0. -1.
         25    2    1    2    0    0 -0.52460194321E+02  0.92703345800E+01 -0.20108847157E+02  0.13743756039E+03  0.12508679459E+03 0.  0.
          5    1    3    3  502    0 -0.38946879789E+02 -0.97479384931E+01 -0.70789003917E+02  0.81488877926E+02  0.41800000000E+01 0. -1.
         -5    1    3    3    0  502 -0.13513314532E+02  0.19018273073E+02  0.50680156760E+02  0.55948682465E+02  0.41800000000E+01 0. -1.
        -11    1    1    2    0    0  0.50647946644E+02 -0.31637351167E+02  0.45697488029E+02  0.75195723949E+02  0.00000000000E+00 0.  1.
         11    1    1    2    0    0  0.18122476767E+01  0.22367016587E+02 -0.23690622036E+02  0.32631476294E+02  0.00000000000E+00 0. -1.
</event>
<event>
 7    1  0.2693725E-009  0.2024664E+03  0.7561462E-02  0.1147675E+00
          1   -1    0    0  501    0  0.00000000000E+00  0.00000000000E+00  0.26369584534E+03  0.26369584534E+03  0.00000000000E+00 0. -1.
         -1   -1    0    0    0  501 -0.00000000000E+00 -0.00000000000E+00 -0.36394502211E+03  0.36394502211E+03  0.00000000000E+00 0.  1.
         25    2    1    2    0    0 -0.16203550702E+03 -0.86364001778E+02 -0.27848448527E+03  0.35625189869E+03  0.12509020923E+03 0.  0.
          5    1    3    3  502    0 -0.58957452413E+02 -0.82733713338E+02 -0.20720166477E+03  0.23080478938E+03  0.41800000000E+01 0.  1.
         -5    1    3    3    0  502 -0.10307805461E+03 -0.36302884402E+01 -0.71282820508E+02  0.12544710932E+03  0.41800000000E+01 0.  1.
        -11    1    1    2    0    0  0.60563168201E+02 -0.84542889570E+01  0.82579270119E+02  0.10275557502E+03  0.00000000000E+00 0. -1.
         11    1    1    2    0    0  0.10147233882E+03  0.94818290735E+02  0.95656038390E+02  0.16863339374E+03  0.00000000000E+00 0.  1.
</event>
<event>
 7    1  0.2693725E-009  0.1123325E+03  0.7561462E-02  0.1256310E+00
          2   -1    0    0  501    0  0.00000000000E+00  0.00000000000E+00  0.63652539572E+03  0.63652539572E+03  0.00000000000E+00 0. -1.
         -2   -1    0    0    0  501 -0.00000000000E+00 -0.00000000000E+00 -0.20661817508E+02  0.20661817508E+02  0.00000000000E+00 0.  1.
         25    2    1    2    0    0 -0.24323985232E+02 -0.20118691830E+02  0.41363265366E+03  0.43328480493E+03  0.12508929606E+03 0.  0.
          5    1    3    3  502    0  0.40253250180E+02 -0.43923078275E+02  0.17651709037E+03  0.18634730088E+03  0.41800000000E+01 0. -1.
         -5    1    3    3    0  502 -0.64577235413E+02  0.23804386445E+02  0.23711556329E+03  0.24693750404E+03  0.41800000000E+01 0. -1.
        -11    1    1    2    0    0 -0.74806401531E+01  0.51066732941E+02  0.11405653415E+03  0.12519051152E+03  0.00000000000E+00 0.  1.
         11    1    1    2    0    0  0.31804625385E+02 -0.30948041111E+02  0.88174390400E+02  0.98711896785E+02  0.00000000000E+00 0. -1.
</event>
<event>
 7    1  0.2693725E-009  0.1131352E+03  0.7561462E-02  0.1254872E+00
         -1   -1    0    0    0  501 -0.00000000000E+00  0.00000000000E+00  0.33058054530E+02  0.33058054530E+02  0.00000000000E+00 0.  1.
          1   -1    0    0  501    0  0.00000000000E+00 -0.00000000000E+00 -0.50986600565E+03  0.50986600565E+03  0.00000000000E+00 0. -1.
         25    2    1    2    0    0 -0.12213208344E+02  0.69095973146E+02 -0.23074756439E+03  0.27169016899E+03  0.12509074103E+03 0.  0.
          5    1    3    3  502    0 -0.95458509846E+01 -0.32716101107E+02 -0.10108863362E+03  0.10676071744E+03  0.41800000000E+01 0.  1.
         -5    1    3    3    0  502 -0.26673573595E+01  0.10181207425E+03 -0.12965893077E+03  0.16492945155E+03  0.41800000000E+01 0.  1.
        -11    1    1    2    0    0  0.33524201719E+02 -0.55128878161E+02 -0.23457125824E+03  0.24328325158E+03  0.00000000000E+00 0. -1.
         11    1    1    2    0    0 -0.21310993374E+02 -0.13967094986E+02 -0.11489128494E+02  0.27950639608E+02  0.00000000000E+00 0.  1.
</event>
<event>
 7    1  0.2693725E-009  0.1620233E+03  0.7561462E-02  0.1186431E+00
          1   -1    0    0  501    0  0.00000000000E+00  0.00000000000E+00  0.11658610553E+04  0.11658610553E+04  0.00000000000E+00 0. -1.
         -1   -1    0    0    0  501 -0.00000000000E+00 -0.00000000000E+00 -0.25846604844E+02  0.25846604844E+02  0.00000000000E+00 0.  1.
         25    2    1    2    0    0  0.46219456805E+02 -0.12753892456E+03  0.58651738023E+03  0.61486046274E+03  0.12509330863E+03 0.  0.
          5    1    3    3  502    0  0.80879009339E+02 -0.11515391115E+03  0.52004675170E+03  0.53876519353E+03  0.41800000000E+01 0. -1.
         -5    1    3    3    0  502 -0.34659552534E+02 -0.12385013418E+02  0.66470628521E+02  0.76095269204E+02  0.41800000000E+01 0. -1.
        -11    1    1    2    0    0 -0.12673334883E+01  0.82772603644E+02  0.18160479273E+03  0.19958259140E+03  0.00000000000E+00 0.  1.
         11    1    1    2    0    0 -0.44952123317E+02  0.44766320920E+02  0.37189227751E+03  0.37726460601E+03  0.00000000000E+00 0. -1.
</event>
<event>
 7    1  0.2693725E-009  0.2334873E+03  0.7561462E-02  0.1124209E+00
         -2   -1    0    0    0  501 -0.00000000000E+00  0.00000000000E+00  0.32315815511E+02  0.32315815511E+02  0.00000000000E+00 0. -1.
          2   -1    0    0  501    0  0.00000000000E+00 -0.00000000000E+00 -0.20327298388E+04  0.20327298388E+04  0.00000000000E+00 0.  1.
         25    2    1    2    0    0  0.93455377877E+02 -0.20130609333E+03 -0.76484625166E+03  0.80616040952E+03  0.12508703505E+03 0.  0.
          5    1    3    3  502    0  0.51755131414E+01 -0.51495183275E+02 -0.56345954882E+02  0.76621660569E+02  0.41800000000E+01 0.  1.
         -5    1    3    3    0  502  0.88279864735E+02 -0.14981091005E+03 -0.70850029678E+03  0.72953874895E+03  0.41800000000E+01 0.  1.
        -11    1    1    2    0    0 -0.10746221169E+03  0.20000592856E+03 -0.11567165945E+04  0.11787891153E+04  0.00000000000E+00 0.  1.
         11    1    1    2    0    0  0.14006833812E+02  0.13001647737E+01 -0.78851177087E+02  0.80096129431E+02  0.00000000000E+00 0. -1.
</event>
<event>
 7    1  0.2693725E-009  0.9120918E+02  0.7561462E-02  0.1299950E+00
          1   -1    0    0  501    0  0.00000000000E+00  0.00000000000E+00  0.10025484816E+03  0.10025484816E+03  0.00000000000E+00 0. -1.
         -1   -1    0    0    0  501 -0.00000000000E+00 -0.00000000000E+00 -0.12281402502E+03  0.12281402502E+03  0.00000000000E+00 0.  1.
         25    2    1    2    0    0  0.20533921839E+02  0.18807249490E+02 -0.21266464332E+02  0.12990535923E+03  0.12509110789E+03 0.  0.
          5    1    3    3  502    0  0.26119393843E+02 -0.48836843342E+02  0.75455858440E+01  0.56050586688E+02  0.41800000000E+01 0. -1.
         -5    1    3    3    0  502 -0.55854720040E+01  0.67644092832E+02 -0.28812050176E+02  0.73854772547E+02  0.41800000000E+01 0. -1.
        -11    1    1    2    0    0 -0.19203184993E+02 -0.36441044538E+02 -0.35679979796E+02  0.54495623670E+02  0.00000000000E+00 0.  1.
         11    1    1    2    0    0 -0.13307368462E+01  0.17633795048E+02  0.34387267261E+02  0.38667890272E+02  0.00000000000E+00 0. -1.
</event>
<event>
 7    1  0.2693725E-009  0.9043092E+02  0.7561462E-02  0.1301812E+00
          1   -1    0    0  501    0  0.00000000000E+00  0.00000000000E+00  0.22096635349E+03  0.22096635349E+03  0.00000000000E+00 0. -1.
         -1   -1    0    0    0  501 -0.00000000000E+00 -0.00000000000E+00 -0.58622932667E+02  0.58622932667E+02  0.00000000000E+00 0.  1.
         25    2    1    2    0    0  0.11989844730E+02 -0.21658485017E+02  0.12689807538E+03  0.17990867599E+03  0.12510461147E+03 0.  0.
          5    1    3    3  502    0  0.61625725547E+02  0.17429638265E+02  0.65948132913E+02  0.92022556876E+02  0.41800000000E+01 0.  1.
         -5    1    3    3    0  502 -0.49635880817E+02 -0.39088123283E+02  0.60949942472E+02  0.87886119117E+02  0.41800000000E+01 0.  1.
        -11    1    1    2    0    0 -0.43093936028E+01  0.36447151374E+02  0.59803829146E+02  0.70167397679E+02  0.00000000000E+00 0. -1.
         11    1    1    2    0    0 -0.76804511275E+01 -0.14788666356E+02 -0.24358483713E+02  0.29513212481E+02  0.00000000000E+00 0.  1.
</event>
<event>
 7    1  0.2693725E-009  0.1432005E+03  0.7561462E-02  0.1209086E+00
          1   -1    0    0  501    0  0.00000000000E+00  0.00000000000E+00  0.44600046321E+03  0.44600046321E+03  0.00000000000E+00 0. -1.
         -1   -1    0    0    0  501 -0.00000000000E+00 -0.00000000000E+00 -0.60122489396E+02  0.60122489396E+02  0.00000000000E+00 0.  1.
         25    2    1    2    0    0  0.74996665154E+02  0.89116076558E+02  0.15756666516E+03  0.23246620826E+03  0.12508840524E+03 0.  0.
          5    1    3    3  502    0 -0.58316733497E+01  0.54649640063E+02  0.12849437643E+03  0.13981726913E+03  0.41800000000E+01 0.  1.
         -5    1    3    3    0  502  0.80828338504E+02  0.34466436494E+02  0.29072288738E+02  0.92648939133E+02  0.41800000000E+01 0.  1.
        -11    1    1    2    0    0 -0.32989188479E+02  0.10972743721E+02  0.23825046360E+02  0.42146417349E+02  0.00000000000E+00 0.  1.
         11    1    1    2    0    0 -0.42007476675E+02 -0.10008882028E+03  0.20448626229E+03  0.23151032700E+03  0.00000000000E+00 0. -1.
</event>
<event>
 7    1  0.2693725E-009  0.1105854E+03  0.7561462E-02  0.1259490E+00
          2   -1    0    0  501    0  0.00000000000E+00  0.00000000000E+00  0.72151535174E+03  0.72151535174E+03  0.00000000000E+00 0. -1.
         -2   -1    0    0    0  501 -0.00000000000E+00 -0.00000000000E+00 -0.17448084708E+02  0.17448084708E+02  0.00000000000E+00 0.  1.
         25    2    1    2    0    0  0.21971037268E+01  0.31851122915E+02  0.40580978624E+03  0.42585081936E+03  0.12509203190E+03 0.  0.
          5    1    3    3  502    0 -0.48920070419E+02  0.53563521383E+02  0.20675686085E+03  0.21915313372E+03  0.41800000000E+01 0. -1.
         -5    1    3    3    0  502  0.51117174145E+02 -0.21712398468E+02  0.19905292539E+03  0.20669768564E+03  0.41800000000E+01 0. -1.
        -11    1    1    2    0    0 -0.42217688181E+02 -0.31699902630E+02  0.13340140511E+03  0.14346829583E+03  0.00000000000E+00 0.  1.
         11    1    1    2    0    0  0.40020584454E+02 -0.15122028494E+00  0.16485607568E+03  0.16964432126E+03  0.00000000000E+00 0. -1.
</event>
<event>
 7    1  0.2693725E-009  0.1133823E+03  0.7561462E-02  0.1254431E+00
          2   -1    0    0  501    0  0.00000000000E+00  0.00000000000E+00  0.54919317891E+03  0.54919317891E+03  0.00000000000E+00 0. -1.
         -2   -1    0    0    0  501 -0.00000000000E+00 -0.00000000000E+00 -0.47600869120E+02  0.47600869120E+02  0.00000000000E+00 0.  1.
         25    2    1    2    0    0  0.37725722699E+02  0.84808398328E+02  0.13096199452E+03  0.20350470865E+03  0.12508967925E+03 0.  0.
          5    1    3    3  502    0  0.14541099997E+02  0.85804453902E+02  0.19116467762E+02  0.89200670615E+02  0.41800000000E+01 0.  1.
         -5    1    3    3    0  502  0.23184622702E+02 -0.99605557366E+00  0.11184552676E+03  0.11430403804E+03  0.41800000000E+01 0.  1.
        -11    1    1    2    0    0  0.17578129163E+02 -0.38215515573E+01  0.12325652752E+02  0.21806343043E+02  0.00000000000E+00 0.  1.
         11    1    1    2    0    0 -0.55303851861E+02 -0.80986846771E+02  0.35830466252E+03  0.37148299634E+03  0.00000000000E+00 0. -1.
</event>
<event>
 7    1  0.2693725E-009  0.7416040E+02  0.7561462E-02  0.1346491E+00
          1   -1    0    0  501    0  0.00000000000E+00  0.00000000000E+00  0.34614676228E+02  0.34614676228E+02  0.00000000000E+00 0. -1.
         -1   -1    0    0    0  501 -0.00000000000E+00 -0.00000000000E+00 -0.38399294634E+03  0.38399294634E+03  0.00000000000E+00 0.  1.
         25    2    1    2    0    0  0.30730492273E+02  0.10202572223E+02 -0.22032648766E+03  0.25542256893E+03  0.12509385243E+03 0.  0.
          5    1    3    3  502    0  0.36204848391E+02  0.22725252684E+00 -0.23418866136E+03  0.23700768806E+03  0.41800000000E+01 0.  1.
         -5    1    3    3    0  502 -0.54743561179E+01  0.99753196963E+01  0.13862173693E+02  0.18414880870E+02  0.41800000000E+01 0.  1.
        -11    1    1    2    0    0 -0.48641285492E+02  0.29015507682E+02 -0.69251547959E+02  0.89463127796E+02  0.00000000000E+00 0.  1.
         11    1    1    2    0    0  0.17910793219E+02 -0.39218079905E+02 -0.59800234491E+02  0.73721925846E+02  0.00000000000E+00 0. -1.
</event>
<event>
 7    1  0.2693725E-009  0.1040448E+03  0.7561462E-02  0.1272013E+00
          2   -1    0    0  501    0  0.00000000000E+00  0.00000000000E+00  0.10809561409E+04  0.10809561409E+04  0.00000000000E+00 0.  1.
         -2   -1    0    0    0  501 -0.00000000000E+00 -0.00000000000E+00 -0.37186020381E+02  0.37186020381E+02  0.00000000000E+00 0. -1.
         25    2    1    2    0    0 -0.47841505006E+02  0.45712170260E+02  0.97483026822E+03  0.98504887427E+03  0.12509524671E+03 0.  0.
          5    1    3    3  502    0 -0.71671465404E+02 -0.17008882019E+02  0.46811707996E+03  0.47389574167E+03  0.41800000000E+01 0.  1.
         -5    1    3    3    0  502  0.23829960398E+02  0.62721052279E+02  0.50671318826E+03  0.51115313260E+03  0.41800000000E+01 0.  1.
        -11    1    1    2    0    0  0.22342268610E+02 -0.28947515014E+02 -0.18141438957E+02  0.40819693771E+02  0.00000000000E+00 0. -1.
         11    1    1    2    0    0  0.25499236396E+02 -0.16764655246E+02  0.87081291226E+02  0.92273593210E+02  0.00000000000E+00 0.  1.
</event>
<event>
 7    1  0.2693725E-009  0.1060897E+03  0.7561462E-02  0.1267987E+00
         -1   -1    0    0    0  501 -0.00000000000E+00  0.00000000000E+00  0.23995892809E+03  0.23995892809E+03  0.00000000000E+00 0.  1.
          1   -1    0    0  501    0  0.00000000000E+00 -0.00000000000E+00 -0.72002170262E+02  0.72002170262E+02  0.00000000000E+00 0. -1.
         25    2    1    2    0    0 -0.56261941561E+02 -0.19286994812E+02  0.13861664734E+03  0.19595852667E+03  0.12509106689E+03 0.  0.
          5    1    3    3  502    0  0.89675409579E+01  0.44920252001E+02  0.36155098982E+02  0.58505635738E+02  0.41800000000E+01 0.  1.
         -5    1    3    3    0  502 -0.65229482519E+02 -0.64207246813E+02  0.10246154835E+03  0.13745289093E+03  0.41800000000E+01 0.  1.
        -11    1    1    2    0    0  0.57350009278E+02  0.21532839332E+01  0.58635344373E+02  0.82047326621E+02  0.00000000000E+00 0.  1.
         11    1    1    2    0    0 -0.10880677167E+01  0.17133710879E+02 -0.29295233877E+02  0.33955245070E+02  0.00000000000E+00 0. -1.
</event>
<event>
 7    1  0.3259066E-009  0.1793375E+03  0.7561462E-02  0.1168446E+00
         -1   -1    0    0    0  501 -0.00000000000E+00  0.00000000000E+00  0.21460765557E+03  0.21460765557E+03  0.00000000000E+00 0.  1.
          1   -1    0    0  501    0  0.00000000000E+00 -0.00000000000E+00 -0.26679972499E+03  0.26679972499E+03  0.00000000000E+00 0. -1.
         25    2    1    2    0    0  0.43349908047E+02 -0.16292200294E+03 -0.15765201482E+03  0.26253609117E+03  0.12509295672E+03 0.  0.
          5    1    3    3  502    0 -0.18576002525E+02 -0.98014666069E+02 -0.26011288275E+02  0.10317946575E+03  0.41800000000E+01 0. -1.
         -5    1    3    3    0  502  0.61925910572E+02 -0.64907336868E+02 -0.13164072655E+03  0.15935662542E+03  0.41800000000E+01 0. -1.
        -11    1    1    2    0    0 -0.15651527005E+02  0.82269876496E+02  0.64413935673E+00  0.83747942015E+02  0.00000000000E+00 0.  1.
         11    1    1    2    0    0 -0.27698381042E+02  0.80652126441E+02  0.10481580604E+03  0.13512334738E+03  0.00000000000E+00 0. -1.
</event>
<event>
 7    1  0.2693725E-009  0.1709982E+03  0.7561462E-02  0.1176811E+00
         -1   -1    0    0    0  501 -0.00000000000E+00  0.00000000000E+00  0.17978674338E+02  0.17978674338E+02  0.00000000000E+00 0.  1.
          1   -1    0    0  501    0  0.00000000000E+00 -0.00000000000E+00 -0.19309316472E+04  0.19309316472E+04  0.00000000000E+00 0. -1.
         25    2    1    2    0    0  0.18245410868E+02  0.13277922138E+03 -0.13732484648E+04  0.13854307440E+04  0.12507511247E+03 0.  0.
          5    1    3    3  502    0 -0.24938440502E+02 -0.12791161128E+02 -0.13811900477E+03  0.14099599816E+03  0.41800000000E+01 0. -1.
         -5    1    3    3    0  502  0.43183851370E+02  0.14557038251E+03 -0.12351294600E+04  0.12444347459E+04  0.41800000000E+01 0. -1.
        -11    1    1    2    0    0  0.35407531503E+02 -0.32652916960E+02 -0.14845559875E+03  0.15607360787E+03  0.00000000000E+00 0. -1.
         11    1    1    2    0    0 -0.53652942371E+02 -0.10012630442E+03 -0.39124890927E+03  0.40740596960E+03  0.00000000000E+00 0.  1.
</event>
<event>
 7    1  0.2693725E-009  0.1016644E+03  0.7561462E-02  0.1276834E+00
          2   -1    0    0  501    0  0.00000000000E+00  0.00000000000E+00  0.67468169291E+03  0.67468169291E+03  0.00000000000E+00 0. -1.
         -2   -1    0    0    0  501 -0.00000000000E+00 -0.00000000000E+00 -0.18601086339E+02  0.18601086339E+02  0.00000000000E+00 0.  1.
         25    2    1    2    0    0  0.46652603593E+01 -0.19007509883E+02  0.30210191430E+03  0.32756054771E+03  0.12508915103E+03 0.  0.
          5    1    3    3  502    0 -0.55491234536E+02 -0.17891574741E+02  0.20572132618E+03  0.21386472828E+03  0.41800000000E+01 0. -1.
         -5    1    3    3    0  502  0.60156494896E+02 -0.11159351412E+01  0.96380588119E+02  0.11369581943E+03  0.41800000000E+01 0. -1.
        -11    1    1    2    0    0  0.10619237848E+02 -0.30738887996E+02  0.72316567204E+02  0.79292706726E+02  0.00000000000E+00 0.  1.
         11    1    1    2    0    0 -0.15284498207E+02  0.49746397879E+02  0.28166212507E+03  0.28642952481E+03  0.00000000000E+00 0. -1.
</event>
<event>
 7    1  0.3381301E-009  0.1325451E+03  0.7561462E-02  0.1223727E+00
         -3   -1    0    0    0  501 -0.00000000000E+00  0.00000000000E+00  0.23623398353E+02  0.23623398353E+02  0.00000000000E+00 0.  1.
          3   -1    0    0  501    0  0.00000000000E+00 -0.00000000000E+00 -0.78831171262E+03  0.78831171262E+03  0.00000000000E+00 0. -1.
         25    2    1    2    0    0  0.10613171134E+02 -0.75267465434E+02 -0.32434437379E+03  0.35584186349E+03  0.12508528392E+03 0.  0.
          5    1    3    3  502    0 -0.57303687751E+02 -0.36041800711E+02 -0.14910248588E+03  0.16380399178E+03  0.41800000000E+01 0. -1.
         -5    1    3    3    0  502  0.67916858885E+02 -0.39225664723E+02 -0.17524188790E+03  0.19203787171E+03  0.41800000000E+01 0. -1.
        -11    1    1    2    0    0 -0.21819037184E+02 -0.15819119891E+02 -0.10786597522E+03  0.11118175906E+03  0.00000000000E+00 0. -1.
         11    1    1    2    0    0  0.11205866050E+02  0.91086585324E+02 -0.33247796526E+03  0.34491148842E+03  0.00000000000E+00 0.  1.
</event>
<event>
 7    1  0.2693725E-009  0.6482219E+02  0.7561462E-02  0.1378642E+00
          1   -1    0    0  501    0  0.00000000000E+00  0.00000000000E+00  0.12503359042E+03  0.12503359042E+03  0.00000000000E+00 0. -1.
         -1   -1    0    0    0  501 -0.00000000000E+00 -0.00000000000E+00 -0.13506253655E+03  0.13506253655E+03  0.00000000000E+00 0.  1.
         25    2    1    2    0    0 -0.31190330715E+02  0.84175267154E+01 -0.71497918695E+02  0.14765260760E+03  0.12508256740E+03 0.  0.
          5    1    3    3  502    0 -0.26872566799E+02 -0.31309779653E+02 -0.93182996618E+02  0.10199500187E+03  0.41800000000E+01 0. -1.
         -5    1    3    3    0  502 -0.43177639161E+01  0.39727306369E+02  0.21685077923E+02  0.45657605731E+02  0.41800000000E+01 0. -1.
        -11    1    1    2    0    0  0.29431782002E+02  0.87742360153E+01  0.80844111438E+02  0.86481138774E+02  0.00000000000E+00 0. -1.
         11    1    1    2    0    0  0.17585487130E+01 -0.17191762731E+02 -0.19375138872E+02  0.25962380585E+02  0.00000000000E+00 0.  1.
</event>
<event>
 7    1  0.2693725E-009  0.2248944E+03  0.7561462E-02  0.1130286E+00
         -1   -1    0    0    0  501 -0.00000000000E+00  0.00000000000E+00  0.59856635537E+03  0.59856635537E+03  0.00000000000E+00 0.  1.
          1   -1    0    0  501    0  0.00000000000E+00 -0.00000000000E+00 -0.12804229558E+03  0.12804229558E+03  0.00000000000E+00 0. -1.
         25    2    1    2    0    0  0.17098567099E+03  0.12828386599E+03  0.42247196125E+03  0.48971980774E+03  0.12510028812E+03 0.  0.
          5    1    3    3  502    0  0.16112736352E+03  0.14183637698E+03  0.31714256937E+03  0.38298363780E+03  0.41800000000E+01 0.  1.
         -5    1    3    3    0  502  0.98583074691E+01 -0.13552510989E+02  0.10532939188E+03  0.10673616994E+03  0.41800000000E+01 0.  1.
        -11    1    1    2    0    0 -0.66438564021E+02 -0.75922949112E+02 -0.18171377096E+02  0.10251134540E+03  0.00000000000E+00 0. -1.
         11    1    1    2    0    0 -0.10454710697E+03 -0.52360916878E+02  0.66223475635E+02  0.13437749781E+03  0.00000000000E+00 0.  1.
</event>
<event>
 7    1  0.2693725E-009  0.1182006E+03  0.7561462E-02  0.1246095E+00
         -1   -1    0    0    0  501 -0.00000000000E+00  0.00000000000E+00  0.26348728981E+03  0.26348728981E+03  0.00000000000E+00 0.  1.
          1   -1    0    0  501    0  0.00000000000E+00 -0.00000000000E+00 -0.61687534456E+02  0.61687534456E+02  0.00000000000E+00 0. -1.
         25    2    1    2    0    0  0.17742873512E+02 -0.51213877158E+02  0.15851899543E+03  0.20907843778E+03  0.12509136843E+03 0.  0.
          5    1    3    3  502    0 -0.51937942257E+02 -0.58490754364E+01  0.71311821298E+02  0.88513331122E+02  0.41800000000E+01 0.  1.
         -5    1    3    3    0  502  0.69680815769E+02 -0.45364801722E+02  0.87207174137E+02  0.12056510665E+03  0.41800000000E+01 0.  1.
        -11    1    1    2    0    0  0.28669710983E+02  0.45739398313E+02  0.43553861227E+02  0.69361255134E+02  0.00000000000E+00 0. -1.
         11    1    1    2    0    0 -0.46412584495E+02  0.54744788450E+01 -0.27310131253E+00  0.46735131352E+02  0.00000000000E+00 0.  1.
</event>
<event>
 7    1  0.2693725E-009  0.1717058E+03  0.7561462E-02  0.1176081E+00
         -1   -1    0    0    0  501 -0.00000000000E+00  0.00000000000E+00  0.32049113474E+03  0.32049113474E+03  0.00000000000E+00 0.  1.
          1   -1    0    0  501    0  0.00000000000E+00 -0.00000000000E+00 -0.10362651375E+03  0.10362651375E+03  0.00000000000E+00 0. -1.
         25    2    1    2    0    0  0.12672383633E+03 -0.72489717896E+02  0.12738609935E+03  0.23062228519E+03  0.12508289341E+03 0.  0.
          5    1    3    3  502    0  0.13206669983E+03 -0.30890037375E+02  0.13062197472E+03  0.18834909156E+03  0.41800000000E+01 0. -1.
         -5    1    3    3    0  502 -0.53428634976E+01 -0.41599680521E+02 -0.32358753735E+01  0.42273193624E+02  0.41800000000E+01 0. -1.
        -11    1    1    2    0    0 -0.61604283008E+02  0.78935218316E+02  0.28638271320E+02  0.10414416431E+03  0.00000000000E+00 0. -1.
         11    1    1    2    0    0 -0.65119553325E+02 -0.64455004202E+01  0.60840250330E+02  0.89351198991E+02  0.00000000000E+00 0.  1.
</event>
<event>
 7    1  0.2693725E-009  0.1124397E+03  0.7561462E-02  0.1256117E+00
         -1   -1    0    0    0  501 -0.00000000000E+00  0.00000000000E+00  0.13333649093E+04  0.13333649093E+04  0.00000000000E+00 0.  1.
          1   -1    0    0  501    0  0.00000000000E+00 -0.00000000000E+00 -0.11325457858E+02  0.11325457858E+02  0.00000000000E+00 0. -1.
         25    2    1    2    0    0 -0.34613453751E+02 -0.19930043539E+02  0.97786200021E+03  0.98663962025E+03  0.12509336903E+03 0.  0.
          5    1    3    3  502    0  0.30350264417E+02 -0.50539679958E+02  0.40924937558E+03  0.41349476612E+03  0.41800000000E+01 0.  1.
         -5    1    3    3    0  502 -0.64963718168E+02  0.30609636418E+02  0.56861262463E+03  0.57314485413E+03  0.41800000000E+01 0.  1.
        -11    1    1    2    0    0 -0.21010114870E+02  0.30686110835E+02  0.85432929989E+02  0.93176433993E+02  0.00000000000E+00 0. -1.
         11    1    1    2    0    0  0.55623568621E+02 -0.10756067296E+02  0.25874452126E+03  0.26487431293E+03  0.00000000000E+00 0.  1.
</event>
<event>
 7    1  0.2693725E-009  0.8621089E+02  0.7561462E-02  0.1312296E+00
          2   -1    0    0  501    0  0.00000000000E+00  0.00000000000E+00  0.34027579648E+03  0.34027579648E+03  0.00000000000E+00 0. -1.
         -2   -1    0    0    0  501 -0.00000000000E+00 -0.00000000000E+00 -0.62596965086E+02  0.62596965086E+02  0.00000000000E+00 0.  1.
         25    2    1    2    0    0  0.12388943969E+02 -0.26626007139E+02  0.22253186853E+02  0.13040465247E+03  0.12509092242E+03 0.  0.
          5    1    3    3  502    0 -0.15929704161E+02  0.28392704492E+02  0.52099281044E+02  0.61576851400E+02  0.41800000000E+01 0.  1.
         -5    1    3    3    0  502  0.28318648131E+02 -0.55018711631E+02 -0.29846094190E+02  0.68827801069E+02  0.41800000000E+01 0.  1.
        -11    1    1    2    0    0 -0.99133125333E+01 -0.24480747240E+02  0.24784220350E+02  0.36219308789E+02  0.00000000000E+00 0.  1.
         11    1    1    2    0    0 -0.24756314360E+01  0.51106754380E+02  0.23064142419E+03  0.23624880031E+03  0.00000000000E+00 0. -1.
</event>
<event>
 7    1  0.2693725E-009  0.1267615E+03  0.7561462E-02  0.1232342E+00
          1   -1    0    0  501    0  0.00000000000E+00  0.00000000000E+00  0.59809551959E+02  0.59809551959E+02  0.00000000000E+00 0. -1.
         -1   -1    0    0    0  501 -0.00000000000E+00 -0.00000000000E+00 -0.27149926287E+03  0.27149926287E+03  0.00000000000E+00 0.  1.
         25    2    1    2    0    0 -0.60841692652E+02 -0.24642466008E+02 -0.13360479554E+03  0.19444302901E+03  0.12509551329E+03 0.  0.
          5    1    3    3  502    0  0.18925489704E+02 -0.53040645543E+02 -0.55276737441E+02  0.79021986449E+02  0.41800000000E+01 0. -1.
         -5    1    3    3    0  502 -0.79767182356E+02  0.28398179535E+02 -0.78328058095E+02  0.11542104256E+03  0.41800000000E+01 0. -1.
        -11    1    1    2    0    0  0.55280992906E+02 -0.26169399668E+02 -0.45779312070E+02  0.76397454599E+02  0.00000000000E+00 0.  1.
         11    1    1    2    0    0  0.55606997459E+01  0.50811865676E+02 -0.32305603303E+02  0.60468331215E+02  0.00000000000E+00 0. -1.
</event>
<event>
 7    1  0.2693725E-009  0.1404267E+03  0.7561462E-02  0.1212756E+00
         -4   -1    0    0    0  501 -0.00000000000E+00  0.00000000000E+00  0.74623160502E+02  0.74623160502E+02  0.00000000000E+00 0.  1.
          4   -1    0    0  501    0  0.00000000000E+00 -0.00000000000E+00 -0.32952897278E+03  0.32952897278E+03  0.00000000000E+00 0. -1.
         25    2    1    2    0    0 -0.26445514827E+02  0.10619808218E+03 -0.10198961642E+03  0.19500647242E+03  0.12509294350E+03 0.  0.
          5    1    3    3  502    0 -0.75545804344E+02  0.53131073878E+02 -0.44833856270E+02  0.10275031208E+03  0.41800000000E+01 0.  1.
         -5    1    3    3    0  502  0.49100289517E+02  0.53067008303E+02 -0.57155760151E+02  0.92256160333E+02  0.41800000000E+01 0.  1.
        -11    1    1    2    0    0  0.75344152517E+01 -0.92066465543E+02 -0.53043105966E+02  0.10652029188E+03  0.00000000000E+00 0.  1.
         11    1    1    2    0    0  0.18911099575E+02 -0.14131616639E+02 -0.99873089893E+02  0.10262536899E+03  0.00000000000E+00 0. -1.
</event>
<event>
 7    1  0.2693725E-009  0.6691800E+02  0.7561462E-02  0.1370899E+00
          2   -1    0    0  501    0  0.00000000000E+00  0.00000000000E+00  0.12849890280E+03  0.12849890280E+03  0.00000000000E+00 0. -1.
         -2   -1    0    0    0  501 -0.00000000000E+00 -0.00000000000E+00 -0.14774922519E+03  0.14774922519E+03  0.00000000000E+00 0.  1.
         25    2    1    2    0    0  0.21634277506E+02 -0.73065828652E+01  0.71490550235E+02  0.14587904183E+03  0.12509343691E+03 0.  0.
          5    1    3    3  502    0  0.34271878584E+02 -0.34152111366E+02 -0.17778404082E+02  0.51715301644E+02  0.41800000000E+01 0.  1.
         -5    1    3    3    0  502 -0.12637601078E+02  0.26845528501E+02  0.89268954317E+02  0.94163740189E+02  0.41800000000E+01 0.  1.
        -11    1    1    2    0    0 -0.29892553533E+01 -0.21110174703E+02  0.10362681402E+02  0.23705701622E+02  0.00000000000E+00 0. -1.
         11    1    1    2    0    0 -0.18645022153E+02  0.28416757568E+02 -0.10110355403E+03  0.10666338453E+03  0.00000000000E+00 0.  1.
</event>
<event>
 7    1  0.2693725E-009  0.1488846E+03  0.7561462E-02  0.1201850E+00
         -2   -1    0    0    0  501 -0.00000000000E+00  0.00000000000E+00  0.66903111071E+02  0.66903111071E+02  0.00000000000E+00 0.  1.
          2   -1    0    0  501    0  0.00000000000E+00 -0.00000000000E+00 -0.49587429740E+03  0.49587429740E+03  0.00000000000E+00 0. -1.
         25    2    1    2    0    0 -0.11839794491E+03  0.85622189202E+02 -0.24479713019E+03  0.31132354820E+03  0.12508990395E+03 0.  0.
          5    1    3    3  502    0 -0.34421473236E+02  0.38503875916E+02 -0.40193400473E+01  0.51971278363E+02  0.41800000000E+01 0. -1.
         -5    1    3    3    0  502 -0.83976471670E+02  0.47118313287E+02 -0.24077779015E+03  0.25935226984E+03  0.41800000000E+01 0. -1.
        -11    1    1    2    0    0  0.75701151846E+02 -0.72710737109E+02 -0.63210472044E+02  0.12252787217E+03  0.00000000000E+00 0.  1.
         11    1    1    2    0    0  0.42696793060E+02 -0.12911452093E+02 -0.12096358409E+03  0.12892598811E+03  0.00000000000E+00 0. -1.
</event>
<event>
 7    1  0.2693725E-009  0.1975688E+03  0.7561462E-02  0.1151807E+00
          1   -1    0    0  501    0  0.00000000000E+00  0.00000000000E+00  0.63985505568E+03  0.63985505568E+03  0.00000000000E+00 0. -1.
         -1   -1    0    0    0  501 -0.00000000000E+00 -0.00000000000E+00 -0.79069947328E+02  0.79069947328E+02  0.00000000000E+00 0.  1.
         25    2    1    2    0    0  0.93333886983E+02  0.17278913423E+03  0.31135425589E+03  0.38878761953E+03  0.12508813322E+03 0.  0.
          5    1    3    3  502    0  0.80357692700E+02  0.16315217411E+03  0.32139359270E+03  0.36930651838E+03  0.41800000000E+01 0.  1.
         -5    1    3    3    0  502  0.12976194283E+02  0.96369601234E+01 -0.10039336808E+02  0.19481101150E+02  0.41800000000E+01 0.  1.
        -11    1    1    2    0    0 -0.93378224738E+01 -0.13011947864E+02  0.83261776561E+02  0.84788142755E+02  0.00000000000E+00 0.  1.
         11    1    1    2    0    0 -0.83996064509E+02 -0.15977718637E+03  0.16616907590E+03  0.24534924072E+03  0.00000000000E+00 0. -1.
</event>
<event>
 7    1  0.2693725E-009  0.9285848E+02  0.7561462E-02  0.1296073E+00
          2   -1    0    0  501    0  0.00000000000E+00  0.00000000000E+00  0.40744132144E+03  0.40744132144E+03  0.00000000000E+00 0. -1.
         -2   -1    0    0    0  501 -0.00000000000E+00 -0.00000000000E+00 -0.25424402056E+02  0.25424402056E+02  0.00000000000E+00 0.  1.
         25    2    1    2    0    0  0.34224527840E+02 -0.52014308879E+01  0.18994620407E+03  0.23005694767E+03  0.12509302754E+03 0.  0.
          5    1    3    3  502    0  0.45219571313E+02 -0.54198586517E+02  0.14973081072E+03  0.16558709034E+03  0.41800000000E+01 0.  1.
         -5    1    3    3    0  502 -0.10995043473E+02  0.48997155629E+02  0.40215393357E+02  0.64469857325E+02  0.41800000000E+01 0.  1.
        -11    1    1    2    0    0 -0.49023767057E+02  0.28668260119E+00  0.13421423090E+03  0.14288761912E+03  0.00000000000E+00 0.  1.
         11    1    1    2    0    0  0.14799239217E+02  0.49147482867E+01  0.57856484414E+02  0.59921156705E+02  0.00000000000E+00 0. -1.
</event>
<event>
 7    1  0.2693725E-009  0.1297341E+03  0.7561462E-02  0.1227851E+00
          3   -1    0    0  501    0  0.00000000000E+00  0.00000000000E+00  0.27655774599E+03  0.27655774599E+03  0.00000000000E+00 0. -1.
         -3   -1    0    0    0  501 -0.00000000000E+00 -0.00000000000E+00 -0.94641449794E+02  0.94641449794E+02  0.00000000000E+00 0.  1.
         25    2    1    2    0    0  0.10788796500E+03 -0.48048216994E+02  0.75282288605E+02  0.18778565675E+03  0.12509031040E+03 0.  0.
          5    1    3    3  502    0  0.27820933506E+02 -0.65794732089E+01  0.91607553739E+02  0.96055765630E+02  0.41800000000E+01 0. -1.
         -5    1    3    3    0  502  0.80067031493E+02 -0.41468743785E+02 -0.16325265133E+02  0.91729891120E+02  0.41800000000E+01 0. -1.
        -11    1    1    2    0    0 -0.96655061221E+02  0.60592470838E+01  0.42083853926E+02  0.10559339987E+03  0.00000000000E+00 0.  1.
         11    1    1    2    0    0 -0.11232903778E+02  0.41988969910E+02  0.64550153668E+02  0.77820139167E+02  0.00000000000E+00 0. -1.
</event>
<event>
 7    1  0.2693725E-009  0.9495653E+02  0.7561462E-02  0.1291274E+00
          2   -1    0    0  501    0  0.00000000000E+00  0.00000000000E+00  0.10825216871E+03  0.10825216871E+03  0.00000000000E+00 0. -1.
         -2   -1    0    0    0  501 -0.00000000000E+00 -0.00000000000E+00 -0.13512903818E+03  0.13512903818E+03  0.00000000000E+00 0.  1.
         25    2    1    2    0    0 -0.42717642525E+02  0.10520049219E+02  0.11512500787E+02  0.13309995211E+03  0.12509033200E+03 0.  0.
          5    1    3    3  502    0 -0.33831634570E+02  0.49920162120E+02 -0.36191017400E+02  0.70454696254E+02  0.41800000000E+01 0. -1.
         -5    1    3    3    0  502 -0.88860079558E+01 -0.39400112901E+02  0.47703518188E+02  0.62645255858E+02  0.41800000000E+01 0. -1.
        -11    1    1    2    0    0  0.58356278554E+02  0.13780083773E+02 -0.51033543452E+02  0.78738608780E+02  0.00000000000E+00 0.  1.
         11    1    1    2    0    0 -0.15638636029E+02 -0.24300132992E+02  0.12644173196E+02  0.31542645990E+02  0.00000000000E+00 0. -1.
</event>
<event>
 7    1  0.2693725E-009  0.1179476E+03  0.7561462E-02  0.1246522E+00
         -2   -1    0    0    0  501 -0.00000000000E+00  0.00000000000E+00  0.36426975899E+03  0.36426975899E+03  0.00000000000E+00 0. -1.
          2   -1    0    0  501    0  0.00000000000E+00 -0.00000000000E+00 -0.77746279676E+02  0.77746279676E+02  0.00000000000E+00 0.  1.
         25    2    1    2    0    0  0.11528274434E+03  0.16832819755E+02  0.22354519753E+03  0.28141349676E+03  0.12509055063E+03 0.  0.
          5    1    3    3  502    0  0.11908039732E+02 -0.18250828788E+01 -0.15619274719E+02  0.20163493758E+02  0.41800000000E+01 0.  1.
         -5    1    3    3    0  502  0.10337470461E+03  0.18657902634E+02  0.23916447225E+03  0.26125000300E+03  0.41800000000E+01 0.  1.
        -11    1    1    2    0    0 -0.10673453098E+03 -0.10248622271E+02  0.11310722341E+02  0.10782034503E+03  0.00000000000E+00 0.  1.
         11    1    1    2    0    0 -0.85482133629E+01 -0.65841974850E+01  0.51667559450E+02  0.52782196883E+02  0.00000000000E+00 0. -1.
</event>
<event>
 7    1  0.2693725E-009  0.9163942E+02  0.7561462E-02  0.1298929E+00
          3   -1    0    0  501    0  0.00000000000E+00  0.00000000000E+00  0.65044807960E+03  0.65044807960E+03  0.00000000000E+00 0. -1.
         -3   -1    0    0    0  501 -0.00000000000E+00 -0.00000000000E+00 -0.23099963858E+02  0.23099963858E+02  0.00000000000E+00 0.  1.
         25    2    1    2    0    0  0.62932855666E+02 -0.49588214056E+02  0.35585326741E+03  0.38561337856E+03  0.12508634820E+03 0.  0.
          5    1    3    3  502    0  0.51138872218E+02 -0.18222752161E+02  0.34625019074E+03  0.35050523525E+03  0.41800000000E+01 0.  1.
         -5    1    3    3    0  502  0.11793983447E+02 -0.31365461895E+02  0.96030766678E+01  0.35108143314E+02  0.41800000000E+01 0.  1.
        -11    1    1    2    0    0 -0.62062710071E+02  0.19635283588E+02  0.16734270386E+03  0.17955752526E+03  0.00000000000E+00 0.  1.
         11    1    1    2    0    0 -0.87014559455E+00  0.29952930468E+02  0.10415214447E+03  0.10837713963E+03  0.00000000000E+00 0. -1.
</event>
<event>
 7    1  0.2693725E-009  0.1011452E+03  0.7561462E-02  0.1277906E+00
         -3   -1    0    0    0  501 -0.00000000000E+00  0.00000000000E+00  0.27493260501E+03  0.27493260501E+03  0.00000000000E+00 0.  1.
          3   -1    0    0  501    0  0.00000000000E+00 -0.00000000000E+00 -0.70597824318E+02  0.70597824318E+02  0.00000000000E+00 0. -1.
         25    2    1    2    0    0 -0.76290664931E+02  0.11950066199E+02  0.16786299800E+03  0.22313367271E+03  0.12509028805E+03 0.  0.
          5    1    3    3  502    0 -0.19490016239E+02  0.22316811333E+02 -0.13447532578E+02  0.32805629601E+02  0.41800000000E+01 0.  1.
         -5    1    3    3    0  502 -0.56800648692E+02 -0.10366745134E+02  0.18131053058E+03  0.19032804311E+03  0.41800000000E+01 0.  1.
        -11    1    1    2    0    0  0.75129313342E+02  0.23722943402E+02  0.36198866518E+02  0.86703804438E+02  0.00000000000E+00 0.  1.
         11    1    1    2    0    0  0.11613515897E+01 -0.35673009602E+02  0.27291616933E+00  0.35692952173E+02  0.00000000000E+00 0. -1.
</event>
<event>
 7    1  0.2693725E-009  0.1037672E+03  0.7561462E-02  0.1272568E+00
          3   -1    0    0  501    0  0.00000000000E+00  0.00000000000E+00  0.10201636617E+03  0.10201636617E+03  0.00000000000E+00 0. -1.
         -3   -1    0    0    0  501 -0.00000000000E+00 -0.00000000000E+00 -0.19824563064E+03  0.19824563064E+03  0.00000000000E+00 0.  1.
         25    2    1    2    0    0  0.21361367358E+02  0.35094306595E+02 -0.14275141742E+03  0.19419824639E+03  0.12508826226E+03 0.  0.
          5    1    3    3  502    0 -0.19049778461E+00 -0.37222149310E+02 -0.59736689446E+01  0.37929959258E+02  0.41800000000E+01 0. -1.
         -5    1    3    3    0  502  0.21551865143E+02  0.72316455905E+02 -0.13677774847E+03  0.15626828713E+03  0.41800000000E+01 0. -1.
        -11    1    1    2    0    0 -0.53524492681E+02 -0.31583976642E+02  0.37038898645E+02  0.72348454787E+02  0.00000000000E+00 0. -1.
         11    1    1    2    0    0  0.32163125323E+02 -0.35103299532E+01  0.94832543054E+01  0.33715295626E+02  0.00000000000E+00 0.  1.
</event>
<event>
 7    1  0.2693725E-009  0.1018353E+03  0.7561462E-02  0.1276483E+00
         -2   -1    0    0    0  501 -0.00000000000E+00  0.00000000000E+00  0.38322858303E+02  0.38322858303E+02  0.00000000000E+00 0.  1.
          2   -1    0    0  501    0  0.00000000000E+00 -0.00000000000E+00 -0.52073290359E+03  0.52073290359E+03  0.00000000000E+00 0. -1.
         25    2    1    2    0    0 -0.67834224753E+02 -0.55235673797E+02 -0.23319004649E+03  0.27870789959E+03  0.12509210130E+03 0.  0.
          5    1    3    3  502    0 -0.18942986984E+02 -0.60644891572E+02 -0.31450171016E+02  0.71015669304E+02  0.41800000000E+01 0.  1.
         -5    1    3    3    0  502 -0.48891237768E+02  0.54092177753E+01 -0.20173987547E+03  0.20769223029E+03  0.41800000000E+01 0.  1.
        -11    1    1    2    0    0  0.24205592543E+02  0.34959911826E+02 -0.21997386422E+03  0.22404599324E+03  0.00000000000E+00 0. -1.
         11    1    1    2    0    0  0.43628632210E+02  0.20275761971E+02 -0.29246134575E+02  0.56301869060E+02  0.00000000000E+00 0.  1.
</event>
<event>
 7    1  0.2889210E-009  0.1694783E+03  0.7561462E-02  0.1178393E+00
          1   -1    0    0  501    0  0.00000000000E+00  0.00000000000E+00  0.12757166645E+04  0.12757166645E+04  0.00000000000E+00 0. -1.
         -1   -1    0    0    0  501 -0.00000000000E+00 -0.00000000000E+00 -0.29009021959E+02  0.29009021959E+02  0.00000000000E+00 0.  1.
         25    2    1    2    0    0  0.15135873249E+03 -0.33217086386E+02  0.76725421520E+03  0.79267830448E+03  0.12508806065E+03 0.  0.
          5    1    3    3  502    0  0.14363508681E+03 -0.46226473846E+02  0.76092723034E+03  0.77575488869E+03  0.41800000000E+01 0. -1.
         -5    1    3    3    0  502  0.77236456759E+01  0.13009387460E+02  0.63269848608E+01  0.16923415791E+02  0.41800000000E+01 0. -1.
        -11    1    1    2    0    0 -0.75384258727E+02 -0.21841697690E+02  0.14740777087E+03  0.16699969202E+03  0.00000000000E+00 0.  1.
         11    1    1    2    0    0 -0.75974473760E+02  0.55058784076E+02  0.33204565643E+03  0.34504768992E+03  0.00000000000E+00 0. -1.
</event>
<event>
 7    1  0.2693725E-009  0.1074438E+03  0.7561462E-02  0.1265378E+00
          2   -1    0    0  501    0  0.00000000000E+00  0.00000000000E+00  0.26360944840E+03  0.26360944840E+03  0.00000000000E+00 0.  1.
         -2   -1    0    0    0  501 -0.00000000000E+00 -0.00000000000E+00 -0.76552862223E+02  0.76552862223E+02  0.00000000000E+00 0. -1.
         25    2    1    2    0    0 -0.56705776530E+02 -0.36789452926E+02  0.27410098882E+02  0.14480614495E+03  0.12509395331E+03 0.  0.
          5    1    3    3  502    0 -0.66447318403E+02  0.59552605774E+01  0.60155335563E+02  0.89926903918E+02  0.41800000000E+01 0. -1.
         -5    1    3    3    0  502  0.97415418729E+01 -0.42744713504E+02 -0.32745236682E+02  0.54879241029E+02  0.41800000000E+01 0. -1.
        -11    1    1    2    0    0  0.52029043024E+00  0.46910810149E+02  0.35894378396E+02  0.59070307358E+02  0.00000000000E+00 0. -1.
         11    1    1    2    0    0  0.56185486099E+02 -0.10121357222E+02  0.12375210890E+03  0.13628585831E+03  0.00000000000E+00 0.  1.
</event>
<event>
 7    1  0.2693725E-009  0.1154651E+03  0.7561462E-02  0.1250771E+00
         -1   -1    0    0    0  501 -0.00000000000E+00  0.00000000000E+00  0.15575772693E+03  0.15575772693E+03  0.00000000000E+00 0.  1.
          1   -1    0    0  501    0  0.00000000000E+00 -0.00000000000E+00 -0.13871036002E+03  0.13871036002E+03  0.00000000000E+00 0. -1.
         25    2    1    2    0    0  0.28176112198E+02 -0.75467780337E+02  0.63784926058E+02  0.16188437697E+03  0.12509498610E+03 0.  0.
          5    1    3    3  502    0 -0.14465234023E+02 -0.98462663148E+02  0.36217913213E+02  0.10598749297E+03  0.41800000000E+01 0. -1.
         -5    1    3    3    0  502  0.42641346221E+02  0.22994882811E+02  0.27567012845E+02  0.55896883994E+02  0.41800000000E+01 0. -1.
        -11    1    1    2    0    0 -0.29549142025E+02  0.57239834100E+02 -0.75036704961E+02  0.98894173204E+02  0.00000000000E+00 0. -1.
         11    1    1    2    0    0  0.13730298277E+01  0.18227946236E+02  0.28299145810E+02  0.33689536780E+02  0.00000000000E+00 0.  1.
</event>
<event>
 7    1  0.2693725E-009  0.2109131E+03  0.7561462E-02  0.1140845E+00
         -2   -1    0    0    0  501 -0.00000000000E+00  0.00000000000E+00  0.27567701347E+03  0.27567701347E+03  0.00000000000E+00 0.  1.
          2   -1    0    0  501    0  0.00000000000E+00 -0.00000000000E+00 -0.19047918053E+03  0.19047918053E+03  0.00000000000E+00 0. -1.
         25    2    1    2    0    0  0.14022046622E+03 -0.14549281924E+03  0.38794867754E+02  0.24079537796E+03  0.12508969857E+03 0.  0.
          5    1    3    3  502    0  0.57547237256E+02 -0.97973049563E+02  0.77708668119E+02  0.13771896187E+03  0.41800000000E+01 0.  1.
         -5    1    3    3    0  502  0.82673228960E+02 -0.47519769676E+02 -0.38913800365E+02  0.10307641610E+03  0.41800000000E+01 0.  1.
        -11    1    1    2    0    0 -0.11949485640E+03  0.79546494934E+02  0.58809748540E+02  0.15512979109E+03  0.00000000000E+00 0. -1.
         11    1    1    2    0    0 -0.20725609819E+02  0.65946324305E+02 -0.12406783360E+02  0.70231024946E+02  0.00000000000E+00 0.  1.
</event>
<event>
 7    1  0.2693725E-009  0.1578486E+03  0.7561462E-02  0.1191147E+00
          1   -1    0    0  501    0  0.00000000000E+00  0.00000000000E+00  0.19497860770E+03  0.19497860770E+03  0.00000000000E+00 0. -1.
         -1   -1    0    0    0  501 -0.00000000000E+00 -0.00000000000E+00 -0.16526031490E+03  0.16526031490E+03  0.00000000000E+00 0.  1.
         25    2    1    2    0    0  0.10504449394E+03  0.56129310719E+02  0.93810631439E+02  0.19654491966E+03  0.12507847795E+03 0.  0.
          5    1    3    3  502    0  0.37010100637E+02 -0.35863590398E+02  0.55923372987E+01  0.52006646709E+02  0.41800000000E+01 0.  1.
         -5    1    3    3    0  502  0.68034393299E+02  0.91992901117E+02  0.88218294140E+02  0.14453827295E+03  0.41800000000E+01 0.  1.
        -11    1    1    2    0    0 -0.11825146815E+03 -0.63656904191E+02 -0.51077101583E+02  0.14368187595E+03  0.00000000000E+00 0. -1.
         11    1    1    2    0    0  0.13206974209E+02  0.75275934723E+01 -0.13015237054E+02  0.20012126994E+02  0.00000000000E+00 0.  1.
</event>
<event>
 7    1  0.2693725E-009  0.1085215E+03  0.7561462E-02  0.1263333E+00
          3   -1    0    0  501    0  0.00000000000E+00  0.00000000000E+00  0.14483803237E+03  0.14483803237E+03  0.00000000000E+00 0. -1.
         -3   -1    0    0    0  501 -0.00000000000E+00 -0.00000000000E+00 -0.12012273531E+03  0.12012273531E+03  0.00000000000E+00 0.  1.
         25    2    1    2    0    0 -0.35774719597E+02  0.21093549677E+02 -0.51255104485E+02  0.14141521173E+03  0.12508560258E+03 0.  0.
          5    1    3    3  502    0  0.97748494161E+01 -0.42597809758E+02 -0.44814023272E+02  0.62736673159E+02  0.41800000000E+01 0.  1.
         -5    1    3    3    0  502 -0.45549569013E+02  0.63691359435E+02 -0.64410812135E+01  0.78678538568E+02  0.41800000000E+01 0.  1.
        -11    1    1    2    0    0  0.23242825953E+02  0.32348272135E+02  0.46552420374E+02  0.61267997446E+02  0.00000000000E+00 0.  1.
         11    1    1    2    0    0  0.12531893644E+02 -0.53441821812E+02  0.29417981177E+02  0.62277558505E+02  0.00000000000E+00 0. -1.
</event>
<event>
 7    1  0.2693725E-009  0.1109976E+03  0.7561462E-02  0.1258734E+00
          2   -1    0    0  501    0  0.00000000000E+00  0.00000000000E+00  0.11049330116E+03  0.11049330116E+03  0.00000000000E+00 0. -1.
         -2   -1    0    0    0  501 -0.00000000000E+00 -0.00000000000E+00 -0.17658791126E+03  0.17658791126E+03  0.00000000000E+00 0.  1.
         25    2    1    2    0    0 -0.55481129511E+02  0.18396528537E+02  0.31010450294E+02  0.14151186304E+03  0.12508945343E+03 0.  0.
          5    1    3    3  502    0 -0.19191696669E+02 -0.47104579818E+02  0.41505456186E+02  0.65782504924E+02  0.41800000000E+01 0.  1.
         -5    1    3    3    0  502 -0.36289432842E+02  0.65501108355E+02 -0.10495005892E+02  0.75729358114E+02  0.41800000000E+01 0.  1.
        -11    1    1    2    0    0  0.44627192109E+02  0.25051491183E+02 -0.17236708833E+02  0.54002477882E+02  0.00000000000E+00 0. -1.
         11    1    1    2    0    0  0.10853937403E+02 -0.43448019720E+02 -0.79868351566E+02  0.91566871502E+02  0.00000000000E+00 0.  1.
</event>
<event>
 7    1  0.2693725E-009  0.1119345E+03  0.7561462E-02  0.1257029E+00
          2   -1    0    0  501    0  0.00000000000E+00  0.00000000000E+00  0.36141075144E+02  0.36141075144E+02  0.00000000000E+00 0. -1.
         -2   -1    0    0    0  501 -0.00000000000E+00 -0.00000000000E+00 -0.38516777905E+03  0.38516777905E+03  0.00000000000E+00 0.  1.
         25    2    1    2    0    0 -0.37434792168E+02 -0.48659587357E+01 -0.24596110878E+03  0.27851249665E+03  0.12508917834E+03 0.  0.
          5    1    3    3  502    0 -0.76270043439E+02  0.20844560886E+02 -0.11645045680E+03  0.14081831036E+03  0.41800000000E+01 0. -1.
         -5    1    3    3    0  502  0.38835251271E+02 -0.25710519622E+02 -0.12951065198E+03  0.13769418628E+03  0.41800000000E+01 0. -1.
        -11    1    1    2    0    0  0.67590462990E+02  0.17476368693E+01 -0.61873584386E+02  0.91650779411E+02  0.00000000000E+00 0. -1.
         11    1    1    2    0    0 -0.30155670821E+02  0.31183218664E+01 -0.41192010746E+02  0.51145578140E+02  0.00000000000E+00 0.  1.
</event>
<event>
 7    1  0.2693725E-009  0.2763977E+03  0.7561462E-02  0.1097673E+00
         -2   -1    0    0    0  501 -0.00000000000E+00  0.00000000000E+00  0.14701864582E+03  0.14701864582E+03  0.00000000000E+00 0. -1.
          2   -1    0    0  501    0  0.00000000000E+00 -0.00000000000E+00 -0.56947336193E+03  0.56947336193E+03  0.00000000000E+00 0.  1.
         25    2    1    2    0    0  0.23446823523E+03  0.13002308403E+03 -0.20838206136E+03  0.36187202666E+03  0.12508766713E+03 0.  0.
          5    1    3    3  502    0  0.96749700754E+02  0.13195731595E+02 -0.13552098834E+03  0.16708693129E+03  0.41800000000E+01 0. -1.
         -5    1    3    3    0  502  0.13771853447E+03  0.11682735243E+03 -0.72861073021E+02  0.19478509536E+03  0.41800000000E+01 0. -1.
        -11    1    1    2    0    0 -0.17969443694E+03 -0.69183469417E+02 -0.18695629515E+03  0.26838237536E+03  0.00000000000E+00 0.  1.
         11    1    1    2    0    0 -0.54773798290E+02 -0.60839614612E+02 -0.27116359596E+02  0.86237605735E+02  0.00000000000E+00 0. -1.
</event>
<event>
 7    1  0.2693725E-009  0.1441449E+03  0.7561462E-02  0.1207858E+00
          2   -1    0    0  501    0  0.00000000000E+00  0.00000000000E+00  0.43189529270E+03  0.43189529270E+03  0.00000000000E+00 0. -1.
         -2   -1    0    0    0  501 -0.00000000000E+00 -0.00000000000E+00 -0.53018005400E+02  0.53018005400E+02  0.00000000000E+00 0.  1.
         25    2    1    2    0    0  0.10051566772E+03  0.65396336656E+00  0.15282341628E+03  0.22159971230E+03  0.12509040254E+03 0.  0.
          5    1    3    3  502    0 -0.24086847979E+02  0.18062018304E+02  0.11904601926E+02  0.32643601177E+02  0.41800000000E+01 0.  1.
         -5    1    3    3    0  502  0.12460251570E+03 -0.17408054937E+02  0.14091881435E+03  0.18895611113E+03  0.41800000000E+01 0.  1.
        -11    1    1    2    0    0  0.37443579312E+01 -0.24727252493E+02  0.67928969261E+02  0.72386477307E+02  0.00000000000E+00 0. -1.
         11    1    1    2    0    0 -0.10426002565E+03  0.24073289126E+02  0.15812490176E+03  0.19092710849E+03  0.00000000000E+00 0.  1.
</event>
<event>
 7    1  0.2693725E-009  0.1682147E+03  0.7561462E-02  0.1179723E+00
         -1   -1    0    0    0  501 -0.00000000000E+00  0.00000000000E+00  0.70636642127E+02  0.70636642127E+02  0.00000000000E+00 0.  1.
          1   -1    0    0  501    0  0.00000000000E+00 -0.00000000000E+00 -0.40775827316E+03  0.40775827316E+03  0.00000000000E+00 0. -1.
         25    2    1    2    0    0  0.77886618025E+02 -0.10256855817E+03 -0.16090936245E+03  0.24109227915E+03  0.12508808796E+03 0.  0.
          5    1    3    3  502    0  0.33863036173E+02 -0.12458431676E+03 -0.10482014516E+03  0.16635111190E+03  0.41800000000E+01 0. -1.
         -5    1    3    3    0  502  0.44023581852E+02  0.22015758585E+02 -0.56089217288E+02  0.74741167245E+02  0.41800000000E+01 0. -1.
        -11    1    1    2    0    0 -0.86292953674E+02  0.40678786421E+02 -0.92727869840E+02  0.13304020206E+03  0.00000000000E+00 0.  1.
         11    1    1    2    0    0  0.84063356490E+01  0.61889771750E+02 -0.83484398748E+02  0.10426243408E+03  0.00000000000E+00 0. -1.
</event>
<event>
 7    1  0.2693725E-009  0.1063796E+03  0.7561462E-02  0.1267425E+00
          1   -1    0    0  501    0  0.00000000000E+00  0.00000000000E+00  0.69232543929E+03  0.69232543929E+03  0.00000000000E+00 0. -1.
         -1   -1    0    0    0  501 -0.00000000000E+00 -0.00000000000E+00 -0.20002425036E+02  0.20002425036E+02  0.00000000000E+00 0.  1.
         25    2    1    2    0    0  0.14448449171E+02 -0.79668546020E+01  0.25370796087E+03  0.28334979965E+03  0.12508857300E+03 0.  0.
          5    1    3    3  502    0  0.66152025082E+02  0.10867867133E+02  0.10410874142E+03  0.12389634135E+03  0.41800000000E+01 0.  1.
         -5    1    3    3    0  502 -0.51703575911E+02 -0.18834721735E+02  0.14959921945E+03  0.15945345831E+03  0.41800000000E+01 0.  1.
        -11    1    1    2    0    0 -0.21572602283E+01  0.48244716201E+02  0.27905524421E+03  0.28320317042E+03  0.00000000000E+00 0. -1.
         11    1    1    2    0    0 -0.12291188943E+02 -0.40277861599E+02  0.13955980916E+03  0.14577489425E+03  0.00000000000E+00 0.  1.
</event>
<event>
 7    1  0.2693725E-009  0.7597177E+02  0.7561462E-02  0.1340888E+00
          1   -1    0    0  501    0  0.00000000000E+00  0.00000000000E+00  0.29605899650E+03  0.29605899650E+03  0.00000000000E+00 0. -1.
         -1   -1    0    0    0  501 -0.00000000000E+00 -0.00000000000E+00 -0.48090667814E+02  0.48090667814E+02  0.00000000000E+00 0.  1.
         25    2    1    2    0    0  0.25658924002E+02 -0.45525509148E+02  0.12339909643E+03  0.18331849608E+03  0.12508949453E+03 0.  0.
          5    1    3    3  502    0  0.14807882883E+01 -0.31097924669E+01  0.13323042475E+03  0.13334047406E+03  0.41800000000E+01 0.  1.
         -5    1    3    3    0  502  0.24178135714E+02 -0.42415716681E+02 -0.98313283217E+01  0.49978022017E+02  0.41800000000E+01 0.  1.
        -11    1    1    2    0    0 -0.55937543889E+02  0.28269190499E+02  0.10062474276E+03  0.11854743694E+03  0.00000000000E+00 0. -1.
         11    1    1    2    0    0  0.30278619887E+02  0.17256318649E+02  0.23944489491E+02  0.42283731299E+02  0.00000000000E+00 0.  1.
</event>
<event>
 7    1  0.2693725E-009  0.8758747E+02  0.7561462E-02  0.1308801E+00
         -2   -1    0    0    0  501 -0.00000000000E+00  0.00000000000E+00  0.12183966312E+02  0.12183966312E+02  0.00000000000E+00 0.  1.
          2   -1    0    0  501    0  0.00000000000E+00 -0.00000000000E+00 -0.10966605849E+04  0.10966605849E+04  0.00000000000E+00 0. -1.
         25    2    1    2    0    0 -0.41256553254E+02 -0.85161901655E+01 -0.75664437888E+03  0.76807116423E+03  0.12509184046E+03 0.  0.
          5    1    3    3  502    0  0.11802029799E+02 -0.26206152623E+02 -0.41067694932E+02  0.50299883795E+02  0.41800000000E+01 0.  1.
         -5    1    3    3    0  502 -0.53058583054E+02  0.17689962458E+02 -0.71557668394E+03  0.71777128043E+03  0.41800000000E+01 0.  1.
        -11    1    1    2    0    0  0.65317818921E+02  0.92713209162E+01 -0.19723607323E+03  0.20797702624E+03  0.00000000000E+00 0. -1.
         11    1    1    2    0    0 -0.24061265667E+02 -0.75513075064E+00 -0.13059616647E+03  0.13279636074E+03  0.00000000000E+00 0.  1.
</event>
<event>
 7    1  0.2693725E-009  0.2994421E+03  0.7561462E-02  0.1085520E+00
          1   -1    0    0  501    0  0.00000000000E+00  0.00000000000E+00  0.65064709443E+03  0.65064709443E+03  0.00000000000E+00 0. -1.
         -1   -1    0    0    0  501 -0.00000000000E+00 -0.00000000000E+00 -0.15593367895E+03  0.15593367895E+03  0.00000000000E+00 0.  1.
         25    2    1    2    0    0  0.26841058547E+03  0.12223157407E+03  0.19121141839E+03  0.37308608095E+03  0.12508643885E+03 0.  0.
          5    1    3    3  502    0  0.97543880993E+02  0.71502064572E+02  0.14192854581E+02  0.12184524397E+03  0.41800000000E+01 0. -1.
         -5    1    3    3    0  502  0.17086670448E+03  0.50729509499E+02  0.17701856381E+03  0.25124083698E+03  0.41800000000E+01 0. -1.
        -11    1    1    2    0    0 -0.21949878873E+03 -0.12102874627E+03  0.20614746790E+03  0.32453729246E+03  0.00000000000E+00 0.  1.
         11    1    1    2    0    0 -0.48911796742E+02 -0.12028278062E+01  0.97354529194E+02  0.10895739998E+03  0.00000000000E+00 0. -1.
</event>
<event>
 7    1  0.2693725E-009  0.1882479E+03  0.7561462E-02  0.1160051E+00
         -1   -1    0    0    0  501 -0.00000000000E+00  0.00000000000E+00  0.35860300793E+02  0.35860300793E+02  0.00000000000E+00 0.  1.
          1   -1    0    0  501    0  0.00000000000E+00 -0.00000000000E+00 -0.12020865584E+04  0.12020865584E+04  0.00000000000E+00 0. -1.
         25    2    1    2    0    0 -0.16083656272E+03  0.53197077238E+02 -0.64410785325E+03  0.67765746505E+03  0.12508550829E+03 0.  0.
          5    1    3    3  502    0 -0.12040059413E+03  0.55732642790E+02 -0.61075584695E+03  0.62501408586E+03  0.41800000000E+01 0.  1.
         -5    1    3    3    0  502 -0.40435968586E+02 -0.25355655511E+01 -0.33352006301E+02  0.52643379189E+02  0.41800000000E+01 0.  1.
        -11    1    1    2    0    0  0.86227926252E+02 -0.85765467440E+02 -0.29931960485E+03  0.32308388465E+03  0.00000000000E+00 0.  1.
         11    1    1    2    0    0  0.74608636463E+02  0.32568390202E+02 -0.22279879952E+03  0.23720550951E+03  0.00000000000E+00 0. -1.
</event>
<event>
 7    1  0.2693725E-009  0.9835962E+02  0.7561462E-02  0.1283784E+00
          2   -1    0    0  501    0  0.00000000000E+00  0.00000000000E+00  0.83481417065E+02  0.83481417065E+02  0.00000000000E+00 0.  1.
         -2   -1    0    0    0  501 -0.00000000000E+00 -0.00000000000E+00 -0.14872046064E+03  0.14872046064E+03  0.00000000000E+00 0. -1.
         25    2    1    2    0    0 -0.27609066519E+02  0.11156235981E+02 -0.33449714042E+02  0.13286290344E+03  0.12508775155E+03 0.  0.
          5    1    3    3  502    0  0.41170520637E+02 -0.21376694723E+02 -0.32251011290E+02  0.56653110912E+02  0.41800000000E+01 0. -1.
         -5    1    3    3    0  502 -0.68779587156E+02  0.32532930704E+02 -0.11987027527E+01  0.76209792533E+02  0.41800000000E+01 0. -1.
        -11    1    1    2    0    0 -0.27306431683E+01  0.25903281004E+02  0.16893889776E+02  0.31045770898E+02  0.00000000000E+00 0.  1.
         11    1    1    2    0    0  0.30339709688E+02 -0.37059516984E+02 -0.48683219306E+02  0.68293203359E+02  0.00000000000E+00 0. -1.
</event>
<event>
 7    1  0.2693725E-009  0.1062505E+03  0.7561462E-02  0.1267675E+00
         -1   -1    0    0    0  501 -0.00000000000E+00  0.00000000000E+00  0.60307654335E+02  0.60307654335E+02  0.00000000000E+00 0.  1.
          1   -1    0    0  501    0  0.00000000000E+00 -0.00000000000E+00 -0.25202467963E+03  0.25202467963E+03  0.00000000000E+00 0. -1.
         25    2    1    2    0    0  0.98099113351E+01 -0.54803426619E+02 -0.13237862956E+03  0.19045641975E+03  0.12509954569E+03 0.  0.
          5    1    3    3  502    0  0.48147398394E+02  0.92533236724E+01 -0.94719784916E+02  0.10673849364E+03  0.41800000000E+01 0.  1.
         -5    1    3    3    0  502 -0.38337487059E+02 -0.64056750291E+02 -0.37658844642E+02  0.83717926107E+02  0.41800000000E+01 0.  1.
        -11    1    1    2    0    0  0.29850831300E+02  0.24282006568E+02 -0.60634474125E+02  0.71813838671E+02  0.00000000000E+00 0. -1.
         11    1    1    2    0    0 -0.39660742635E+02  0.30521420050E+02  0.12960783900E+01  0.50062075541E+02  0.00000000000E+00 0.  1.
</event>
<event>
 7    1  0.2693725E-009  0.1303472E+03  0.7561462E-02  0.1226941E+00
         -1   -1    0    0    0  501 -0.00000000000E+00  0.00000000000E+00  0.12047250863E+03  0.12047250863E+03  0.00000000000E+00 0.  1.
          1   -1    0    0  501    0  0.00000000000E+00 -0.00000000000E+00 -0.17553185389E+03  0.17553185389E+03  0.00000000000E+00 0. -1.
         25    2    1    2    0    0  0.36072400358E+02  0.88811484312E+02 -0.46286557152E+02  0.16425388628E+03  0.12509274948E+03 0.  0.
          5    1    3    3  502    0 -0.39618129710E+02  0.68287920222E+02 -0.23756760429E+02  0.82551149695E+02  0.41800000000E+01 0.  1.
         -5    1    3    3    0  502  0.75690530069E+02  0.20523564090E+02 -0.22529796723E+02  0.81702736585E+02  0.41800000000E+01 0.  1.
        -11    1    1    2    0    0 -0.19125259877E+02 -0.83014831345E+02 -0.41258217846E+02  0.94654520909E+02  0.00000000000E+00 0. -1.
         11    1    1    2    0    0 -0.16947140481E+02 -0.57966529668E+01  0.32485429745E+02  0.37095955330E+02  0.00000000000E+00 0.  1.
</event>
<event>
 7    1  0.2693725E-009  0.1257348E+03  0.7561462E-02  0.1233925E+00
         -1   -1    0    0    0  501 -0.00000000000E+00  0.00000000000E+00  0.47825071335E+03  0.47825071335E+03  0.00000000000E+00 0.  1.
          1   -1    0    0  501    0  0.00000000000E+00 -0.00000000000E+00 -0.42616033926E+02  0.42616033926E+02  0.00000000000E+00 0. -1.
         25    2    1    2    0    0  0.68193182601E+02  0.61004720591E+02  0.25094345341E+03  0.29494452273E+03  0.12509104121E+03 0.  0.
          5    1    3    3  502    0  0.10297190071E+03  0.61211091123E+02  0.18993842031E+03  0.22459760890E+03  0.41800000000E+01 0. -1.
         -5    1    3    3    0  502 -0.34778718110E+02 -0.20637053160E+00  0.61005033094E+02  0.70346913826E+02  0.41800000000E+01 0. -1.
        -11    1    1    2    0    0 -0.11836502757E+02 -0.30005667321E+02  0.14882103797E+03  0.15227653861E+03  0.00000000000E+00 0.  1.
         11    1    1    2    0    0 -0.56356679844E+02 -0.30999053271E+02  0.35870188047E+02  0.73645685938E+02  0.00000000000E+00 0. -1.
</event>
<event>
 7    1  0.2693725E-009  0.1889696E+03  0.7561462E-02  0.1159394E+00
         -2   -1    0    0    0  501 -0.00000000000E+00  0.00000000000E+00  0.59242377310E+02  0.59242377310E+02  0.00000000000E+00 0.  1.
          2   -1    0    0  501    0  0.00000000000E+00 -0.00000000000E+00 -0.73386641496E+03  0.73386641496E+03  0.00000000000E+00 0. -1.
         25    2    1    2    0    0 -0.15859008923E+03 -0.37406099957E+02 -0.21830689165E+03  0.29975906395E+03  0.12509022648E+03 0.  0.
          5    1    3    3  502    0 -0.40572571728E+02 -0.71551469848E+02 -0.82357150002E+02  0.11647282503E+03  0.41800000000E+01 0.  1.
         -5    1    3    3    0  502 -0.11801751751E+03  0.34145369891E+02 -0.13594974165E+03  0.18328623892E+03  0.41800000000E+01 0.  1.
        -11    1    1    2    0    0  0.54042470325E+02  0.41320334082E+02 -0.28162804798E+03  0.28972800350E+03  0.00000000000E+00 0. -1.
         11    1    1    2    0    0  0.10454761891E+03 -0.39142341256E+01 -0.17468909802E+03  0.20362172481E+03  0.00000000000E+00 0.  1.
</event>
<event>
 7    1  0.2693725E-009  0.1736431E+03  0.7561462E-02  0.1174101E+00
          1   -1    0    0  501    0  0.00000000000E+00  0.00000000000E+00  0.25435839837E+03  0.25435839837E+03  0.00000000000E+00 0. -1.
         -1   -1    0    0    0  501 -0.00000000000E+00 -0.00000000000E+00 -0.16681166221E+03  0.16681166221E+03  0.00000000000E+00 0.  1.
         25    2    1    2    0    0 -0.91387190610E+02  0.10850408369E+03 -0.56120751780E+02  0.19728831165E+03  0.12509350243E+03 0.  0.
          5    1    3    3  502    0  0.20000598777E+02 -0.12979698501E+02 -0.88355136862E+01  0.25768880975E+02  0.41800000000E+01 0. -1.
         -5    1    3    3    0  502 -0.11138778939E+03  0.12148378219E+03 -0.47285238094E+02  0.17151943068E+03  0.41800000000E+01 0. -1.
        -11    1    1    2    0    0  0.21835724153E+01 -0.53211580747E+02  0.93395097036E+02  0.10751225262E+03  0.00000000000E+00 0. -1.
         11    1    1    2    0    0  0.89203618195E+02 -0.55292502939E+02  0.50272390908E+02  0.11636949629E+03  0.00000000000E+00 0.  1.
</event>
<event>
 7    1  0.2693725E-009  0.1316861E+03  0.7561462E-02  0.1224975E+00
          2   -1    0    0  501    0  0.00000000000E+00  0.00000000000E+00  0.13335599540E+04  0.13335599540E+04  0.00000000000E+00 0.  1.
         -2   -1    0    0    0  501 -0.00000000000E+00 -0.00000000000E+00 -0.15485244952E+02  0.15485244952E+02  0.00000000000E+00 0. -1.
         25    2    1    2    0    0  0.83202873977E+02 -0.19152651793E+02  0.89182998441E+03  0.90459813936E+03  0.12509008885E+03 0.  0.
          5    1    3    3  502    0 -0.26391297606E+02  0.80190167361E+01  0.35013433027E+03  0.35124397056E+03  0.41800000000E+01 0. -1.
         -5    1    3    3    0  502  0.10959417158E+03 -0.27171668529E+02  0.54169565413E+03  0.55335416880E+03  0.41800000000E+01 0. -1.
        -11    1    1    2    0    0 -0.37685567885E+02  0.53515528755E+02  0.27822234732E+03  0.28581775381E+03  0.00000000000E+00 0. -1.
         11    1    1    2    0    0 -0.45517306092E+02 -0.34362876961E+02  0.14802237732E+03  0.15862930579E+03  0.00000000000E+00 0.  1.
</event>
<event>
 7    1  0.2693725E-009  0.1000078E+03  0.7561462E-02  0.1280279E+00
         -3   -1    0    0    0  501 -0.00000000000E+00  0.00000000000E+00  0.49224575214E+02  0.49224575214E+02  0.00000000000E+00 0.  1.
          3   -1    0    0  501    0  0.00000000000E+00 -0.00000000000E+00 -0.59350642202E+03  0.59350642202E+03  0.00000000000E+00 0. -1.
         25    2    1    2    0    0  0.25165708470E+02 -0.48271367875E+02 -0.51967374951E+03  0.53728178065E+03  0.12508983993E+03 0.  0.
          5    1    3    3  502    0 -0.22920027790E+01  0.26915485302E+02 -0.33310002908E+03  0.33421968584E+03  0.41800000000E+01 0.  1.
         -5    1    3    3    0  502  0.27457711249E+02 -0.75186853178E+02 -0.18657372043E+03  0.20306209482E+03  0.41800000000E+01 0.  1.
        -11    1    1    2    0    0 -0.51762895270E+02  0.26471427106E+02  0.72270632615E+01  0.58586382575E+02  0.00000000000E+00 0.  1.
         11    1    1    2    0    0  0.26597186800E+02  0.21799940769E+02 -0.31835160560E+02  0.46862834006E+02  0.00000000000E+00 0. -1.
</event>
<event>
 7    1  0.2693725E-009  0.9459249E+02  0.7561462E-02  0.1292097E+00
          1   -1    0    0  501    0  0.00000000000E+00  0.00000000000E+00  0.27427487985E+03  0.27427487985E+03  0.00000000000E+00 0. -1.
         -1   -1    0    0    0  501 -0.00000000000E+00 -0.00000000000E+00 -0.77467163520E+02  0.77467163520E+02  0.00000000000E+00 0.  1.
         25    2    1    2    0    0 -0.68221366646E+02  0.61956565722E+02  0.16821329171E+03  0.22898976397E+03  0.12509128504E+03 0.  0.
          5    1    3    3  502    0 -0.62953084451E+02  0.48528987285E+02  0.22792605821E+02  0.82795704773E+02  0.41800000000E+01 0. -1.
         -5    1    3    3    0  502 -0.52682821951E+01  0.13427578436E+02  0.14542068589E+03  0.14619405920E+03  0.41800000000E+01 0. -1.
        -11    1    1    2    0    0  0.41969056886E+01 -0.13892958421E+02  0.39381947971E+02  0.41971015440E+02  0.00000000000E+00 0. -1.
         11    1    1    2    0    0  0.64024460957E+02 -0.48063607300E+02 -0.10787523348E+02  0.80781263964E+02  0.00000000000E+00 0.  1.
</event>
<event>
 7    1  0.2693725E-009  0.1141024E+03  0.7561462E-02  0.1253156E+00
          1   -1    0    0  501    0  0.00000000000E+00  0.00000000000E+00  0.38852622320E+03  0.38852622320E+03  0.00000000000E+00 0. -1.
         -1   -1    0    0    0  501 -0.00000000000E+00 -0.00000000000E+00 -0.43796466147E+02  0.43796466147E+02  0.00000000000E+00 0.  1.
         25    2    1    2    0    0 -0.61451732123E+02  0.19197646029E+02  0.24063795978E+03  0.27874538730E+03  0.12508996066E+03 0.  0.
          5    1    3    3  502    0  0.36509821716E+02  0.17303932983E+01  0.98852878874E+02  0.10547665810E+03  0.41800000000E+01 0.  1.
         -5    1    3    3    0  502 -0.97961553839E+02  0.17467252731E+02  0.14178508091E+03  0.17326872920E+03  0.41800000000E+01 0.  1.
        -11    1    1    2    0    0  0.74258751293E+02 -0.24154682376E+02  0.39440390168E+02  0.87483456727E+02  0.00000000000E+00 0.  1.
         11    1    1    2    0    0 -0.12807019170E+02  0.49570363473E+01  0.64651407103E+02  0.66093845325E+02  0.00000000000E+00 0. -1.
</event>
<event>
 7    1  0.2693725E-009  0.1335639E+03  0.7561462E-02  0.1222261E+00
         -2   -1    0    0    0  501 -0.00000000000E+00  0.00000000000E+00  0.15274967670E+03  0.15274967670E+03  0.00000000000E+00 0.  1.
          2   -1    0    0  501    0  0.00000000000E+00 -0.00000000000E+00 -0.15462382101E+03  0.15462382101E+03  0.00000000000E+00 0. -1.
         25    2    1    2    0    0 -0.10737819278E+03 -0.12448077929E+02 -0.16898915856E+02  0.16618707183E+03  0.12509012174E+03 0.  0.
          5    1    3    3  502    0 -0.13211687880E+03 -0.13208382075E+02  0.49147573448E+01  0.13293215661E+03  0.41800000000E+01 0. -1.
         -5    1    3    3    0  502  0.24738686015E+02  0.76030414617E+00 -0.21813673200E+02  0.33254915225E+02  0.41800000000E+01 0. -1.
        -11    1    1    2    0    0  0.38281469019E+02 -0.29465358408E+01  0.49338568192E+02  0.62517575568E+02  0.00000000000E+00 0.  1.
         11    1    1    2    0    0  0.69096723765E+02  0.15394613770E+02 -0.34313796643E+02  0.78668850305E+02  0.00000000000E+00 0. -1.
</event>
<event>
 7    1  0.2693725E-009  0.1365715E+03  0.7561462E-02  0.1218018E+00
         -2   -1    0    0    0  501 -0.00000000000E+00  0.00000000000E+00  0.41743397142E+03  0.41743397142E+03  0.00000000000E+00 0.  1.
          2   -1    0    0  501    0  0.00000000000E+00 -0.00000000000E+00 -0.76948433233E+02  0.76948433233E+02  0.00000000000E+00 0. -1.
         25    2    1    2    0    0  0.64841108127E+02  0.91731691287E+02  0.30133049690E+03  0.34506083445E+03  0.12509132112E+03 0.  0.
          5    1    3    3  502    0 -0.36225400858E+00  0.52860305884E+02  0.24438799469E+03  0.25007460389E+03  0.41800000000E+01 0. -1.
         -5    1    3    3    0  502  0.65203362135E+02  0.38871385403E+02  0.56942502217E+02  0.94986230558E+02  0.41800000000E+01 0. -1.
        -11    1    1    2    0    0 -0.79893530465E+01  0.18450339751E+02  0.49917643278E+01  0.20716237837E+02  0.00000000000E+00 0. -1.
         11    1    1    2    0    0 -0.56851755080E+02 -0.11018203104E+03  0.34163276954E+02  0.12860533236E+03  0.00000000000E+00 0.  1.
</event>
<event>
 7    1  0.2693725E-009  0.7651883E+02  0.7561462E-02  0.1339231E+00
          2   -1    0    0  501    0  0.00000000000E+00  0.00000000000E+00  0.13905096086E+03  0.13905096086E+03  0.00000000000E+00 0. -1.
         -2   -1    0    0    0  501 -0.00000000000E+00 -0.00000000000E+00 -0.97080539285E+02  0.97080539285E+02  0.00000000000E+00 0.  1.
         25    2    1    2    0    0  0.11437268258E+02  0.15761079921E+02  0.62246924177E+02  0.14107057219E+03  0.12508798512E+03 0.  0.
          5    1    3    3  502    0 -0.22717134484E+02  0.17536909255E+02 -0.30526029205E+02  0.42106083223E+02  0.41800000000E+01 0.  1.
         -5    1    3    3    0  502  0.34154402742E+02 -0.17758293334E+01  0.92772953382E+02  0.98964488963E+02  0.41800000000E+01 0.  1.
        -11    1    1    2    0    0 -0.39897826675E+02  0.19384125177E+02  0.24952006284E+01  0.44427546730E+02  0.00000000000E+00 0. -1.
         11    1    1    2    0    0  0.28460558417E+02 -0.35145205098E+02 -0.22771703230E+02  0.50633381230E+02  0.00000000000E+00 0.  1.
</event>
<event>
 7    1  0.3288951E-009  0.1255308E+03  0.7561462E-02  0.1234242E+00
          1   -1    0    0  501    0  0.00000000000E+00  0.00000000000E+00  0.75122078712E+03  0.75122078712E+03  0.00000000000E+00 0. -1.
         -1   -1    0    0    0  501 -0.00000000000E+00 -0.00000000000E+00 -0.22570798820E+02  0.22570798820E+02  0.00000000000E+00 0.  1.
         25    2    1    2    0    0 -0.65017055049E+02  0.59586457134E+01  0.31486967009E+03  0.34504073672E+03  0.12508987948E+03 0.  0.
          5    1    3    3  502    0  0.23445644241E+02  0.37776906956E+02  0.73860928935E+02  0.86311657128E+02  0.41800000000E+01 0. -1.
         -5    1    3    3    0  502 -0.88462699290E+02 -0.31818261243E+02  0.24100874116E+03  0.25872907960E+03  0.41800000000E+01 0. -1.
        -11    1    1    2    0    0  0.44465962067E+02 -0.48045357717E+02  0.24366424286E+03  0.25230505629E+03  0.00000000000E+00 0.  1.
         11    1    1    2    0    0  0.20551092982E+02  0.42086712004E+02  0.17011607535E+03  0.17644579293E+03  0.00000000000E+00 0. -1.
</event>
<event>
 7    1  0.2693725E-009  0.1640544E+03  0.7561462E-02  0.1184194E+00
         -2   -1    0    0    0  501 -0.00000000000E+00  0.00000000000E+00  0.24123558480E+03  0.24123558480E+03  0.00000000000E+00 0.  1.
          2   -1    0    0  501    0  0.00000000000E+00 -0.00000000000E+00 -0.13040295690E+03  0.13040295690E+03  0.00000000000E+00 0. -1.
         25    2    1    2    0    0  0.41407912226E+02 -0.13224031738E+03  0.39675213786E+02  0.19085065483E+03  0.12509089944E+03 0.  0.
          5    1    3    3  502    0  0.21927398178E+02  0.11058255717E+02  0.38874548911E+02  0.46171406339E+02  0.41800000000E+01 0.  1.
         -5    1    3    3    0  502  0.19480514048E+02 -0.14329857310E+03  0.80066487539E+00  0.14467924849E+03  0.41800000000E+01 0.  1.
        -11    1    1    2    0    0 -0.53063001852E+01  0.12041447808E+03  0.28866417516E+02  0.12393979754E+03  0.00000000000E+00 0.  1.
         11    1    1    2    0    0 -0.36101612041E+02  0.11825839301E+02  0.42290996601E+02  0.56848089331E+02  0.00000000000E+00 0. -1.
</event>
<event>
 7    1  0.3399889E-009  0.1301261E+03  0.7561462E-02  0.1227269E+00
          1   -1    0    0  501    0  0.00000000000E+00  0.00000000000E+00  0.27400937374E+03  0.27400937374E+03  0.00000000000E+00 0. -1.
         -1   -1    0    0    0  501 -0.00000000000E+00 -0.00000000000E+00 -0.11850665454E+03  0.11850665454E+03  0.00000000000E+00 0.  1.
         25    2    1    2    0    0  0.52095245618E+02  0.11320158169E+03  0.48133142602E+01  0.17662129109E+03  0.12507357738E+03 0.  0.
          5    1    3    3  502    0  0.76197072019E+01  0.39507504134E+02  0.61399491626E+02  0.73527360844E+02  0.41800000000E+01 0. -1.
         -5    1    3    3    0  502  0.44475538416E+02  0.73694077560E+02 -0.56586177366E+02  0.10309393025E+03  0.41800000000E+01 0. -1.
        -11    1    1    2    0    0 -0.55931935560E+02 -0.67063729831E+02  0.40274320146E+02  0.96166242194E+02  0.00000000000E+00 0.  1.
         11    1    1    2    0    0  0.38366899424E+01 -0.46137851862E+02  0.11041508480E+03  0.11972849500E+03  0.00000000000E+00 0. -1.
</event>
<event>
 7    1  0.2693725E-009  0.1723343E+03  0.7561462E-02  0.1175435E+00
         -3   -1    0    0    0  501 -0.00000000000E+00  0.00000000000E+00  0.13983281106E+03  0.13983281106E+03  0.00000000000E+00 0. -1.
          3   -1    0    0  501    0  0.00000000000E+00 -0.00000000000E+00 -0.25592994297E+03  0.25592994297E+03  0.00000000000E+00 0.  1.
         25    2    1    2    0    0 -0.14574957642E+03 -0.42086960170E+02 -0.92524385337E+02  0.21730698307E+03  0.12508921521E+03 0.  0.
          5    1    3    3  502    0 -0.15200304089E+03 -0.13390526421E+02 -0.41341195607E+02  0.15814802399E+03  0.41800000000E+01 0. -1.
         -5    1    3    3    0  502  0.62534644680E+01 -0.28696433749E+02 -0.51183189730E+02  0.59158959074E+02  0.41800000000E+01 0. -1.
        -11    1    1    2    0    0  0.13912093488E+03  0.53583464775E+02  0.26054563453E+01  0.14910603818E+03  0.00000000000E+00 0. -1.
         11    1    1    2    0    0  0.66286415427E+01 -0.11496504605E+02 -0.26178202913E+02  0.29349732785E+02  0.00000000000E+00 0.  1.
</event>
<event>
 7    1  0.2693725E-009  0.8816043E+02  0.7561462E-02  0.1307369E+00
         -1   -1    0    0    0  501 -0.00000000000E+00  0.00000000000E+00  0.24827304416E+03  0.24827304416E+03  0.00000000000E+00 0.  1.
          1   -1    0    0  501    0  0.00000000000E+00 -0.00000000000E+00 -0.70808315423E+02  0.70808315423E+02  0.00000000000E+00 0. -1.
         25    2    1    2    0    0  0.52722361123E+02 -0.40024164629E+01  0.38294930554E+02  0.14110384153E+03  0.12509246855E+03 0.  0.
          5    1    3    3  502    0  0.66415510086E+02  0.30153037700E+02  0.63094261796E+02  0.96532812733E+02  0.41800000000E+01 0.  1.
         -5    1    3    3    0  502 -0.13693148962E+02 -0.34155454163E+02 -0.24799331242E+02  0.44571028793E+02  0.41800000000E+01 0.  1.
        -11    1    1    2    0    0 -0.35203889009E+02  0.21675833215E+02  0.51435474846E+01  0.41660672434E+02  0.00000000000E+00 0. -1.
         11    1    1    2    0    0 -0.17518472115E+02 -0.17673416752E+02  0.13402625070E+03  0.13631684562E+03  0.00000000000E+00 0.  1.
</event>
<event>
 7    1  0.2693725E-009  0.3764955E+03  0.7561462E-02  0.1052237E+00
         -2   -1    0    0    0  501 -0.00000000000E+00  0.00000000000E+00  0.77866225886E+02  0.77866225886E+02  0.00000000000E+00 0.  1.
          2   -1    0    0  501    0  0.00000000000E+00 -0.00000000000E+00 -0.21018510182E+04  0.21018510182E+04  0.00000000000E+00 0. -1.
         25    2    1    2    0    0 -0.36825648249E+03 -0.47879254892E+02 -0.71118436412E+03  0.81199511239E+03  0.12509037869E+03 0.  0.
          5    1    3    3  502    0 -0.71949041167E+02 -0.35582898872E+02 -0.25929639626E+03  0.27146804734E+03  0.41800000000E+01 0. -1.
         -5    1    3    3    0  502 -0.29630744132E+03 -0.12296356020E+02 -0.45188796786E+03  0.54052706505E+03  0.41800000000E+01 0. -1.
        -11    1    1    2    0    0  0.20158087149E+03 -0.34904612118E+01 -0.56630899807E+03  0.60112636971E+03  0.00000000000E+00 0. -1.
         11    1    1    2    0    0  0.16667561099E+03  0.51369716103E+02 -0.74649143010E+03  0.76659576196E+03  0.00000000000E+00 0.  1.
</event>
<event>
 7    1  0.2693725E-009  0.1270460E+03  0.7561462E-02  0.1231906E+00
         -1   -1    0    0    0  501 -0.00000000000E+00  0.00000000000E+00  0.30640341264E+02  0.30640341264E+02  0.00000000000E+00 0.  1.
          1   -1    0    0  501    0  0.00000000000E+00 -0.00000000000E+00 -0.74183170210E+03  0.74183170210E+03  0.00000000000E+00 0. -1.
         25    2    1    2    0    0  0.88195680905E+02  0.36560381518E+02 -0.49646979737E+03  0.52081181771E+03  0.12509016806E+03 0.  0.
          5    1    3    3  502    0  0.16748876417E+02 -0.36207986633E+02 -0.26252322843E+03  0.26557006801E+03  0.41800000000E+01 0. -1.
         -5    1    3    3    0  502  0.71446804488E+02  0.72768368151E+02 -0.23394656894E+03  0.25524174971E+03  0.41800000000E+01 0. -1.
        -11    1    1    2    0    0 -0.78771470841E+01 -0.30350125253E+02 -0.13399403697E+03  0.13761388554E+03  0.00000000000E+00 0. -1.
         11    1    1    2    0    0 -0.80318533821E+02 -0.62102562651E+01 -0.80727526493E+02  0.11404634011E+03  0.00000000000E+00 0.  1.
</event>
<event>
 7    1  0.2693725E-009  0.1365969E+03  0.7561462E-02  0.1217983E+00
          1   -1    0    0  501    0  0.00000000000E+00  0.00000000000E+00  0.22630377841E+03  0.22630377841E+03  0.00000000000E+00 0. -1.
         -1   -1    0    0    0  501 -0.00000000000E+00 -0.00000000000E+00 -0.97886255983E+02  0.97886255983E+02  0.00000000000E+00 0.  1.
         25    2    1    2    0    0 -0.98282928824E+02  0.93260294065E+01  0.11790444673E+03  0.19823391113E+03  0.12509482819E+03 0.  0.
          5    1    3    3  502    0 -0.10392790751E+03 -0.36054227423E+02  0.63670787991E+02  0.12717058983E+03  0.41800000000E+01 0.  1.
         -5    1    3    3    0  502  0.56449786846E+01  0.45380256830E+02  0.54233658737E+02  0.71063321301E+02  0.41800000000E+01 0.  1.
        -11    1    1    2    0    0  0.49516072035E+02  0.26982586716E+02  0.27626766474E+02  0.62794423331E+02  0.00000000000E+00 0. -1.
         11    1    1    2    0    0  0.48766856789E+02 -0.36308616122E+02 -0.17113690778E+02  0.63161699928E+02  0.00000000000E+00 0.  1.
</event>
<event>
 7    1  0.2693725E-009  0.1546831E+03  0.7561462E-02  0.1194834E+00
          1   -1    0    0  501    0  0.00000000000E+00  0.00000000000E+00  0.76398911869E+03  0.76398911869E+03  0.00000000000E+00 0. -1.
         -1   -1    0    0    0  501 -0.00000000000E+00 -0.00000000000E+00 -0.55452092205E+02  0.55452092205E+02  0.00000000000E+00 0.  1.
         25    2    1    2    0    0  0.83750715053E+02 -0.96032817367E+02  0.60760885580E+03  0.63330280046E+03  0.12508969238E+03 0.  0.
          5    1    3    3  502    0  0.85409345401E+01 -0.81022806836E+02  0.16484667737E+03  0.18392808984E+03  0.41800000000E+01 0. -1.
         -5    1    3    3    0  502  0.75209780513E+02 -0.15010010531E+02  0.44276217842E+03  0.44937471062E+03  0.41800000000E+01 0. -1.
        -11    1    1    2    0    0 -0.48139912838E+02 -0.44324643303E+00  0.56181705384E+02  0.73986699448E+02  0.00000000000E+00 0. -1.
         11    1    1    2    0    0 -0.35610802215E+02  0.96476063800E+02  0.44746465305E+02  0.11215171099E+03  0.00000000000E+00 0.  1.
</event>
<event>
 7    1  0.2693725E-009  0.1426789E+03  0.7561462E-02  0.1209769E+00
          1   -1    0    0  501    0  0.00000000000E+00  0.00000000000E+00  0.35223879614E+02  0.35223879614E+02  0.00000000000E+00 0. -1.
         -1   -1    0    0    0  501 -0.00000000000E+00 -0.00000000000E+00 -0.78323715878E+03  0.78323715878E+03  0.00000000000E+00 0.  1.
         25    2    1    2    0    0  0.18722296695E+02 -0.11145373006E+03 -0.53316599706E+03  0.55918415470E+03  0.12509388515E+03 0.  0.
          5    1    3    3  502    0 -0.33723464129E+02  0.10633732623E+02 -0.10789517144E+03  0.11361861081E+03  0.41800000000E+01 0.  1.
         -5    1    3    3    0  502  0.52445760824E+02 -0.12208746268E+03 -0.42527082563E+03  0.44556554389E+03  0.41800000000E+01 0.  1.
        -11    1    1    2    0    0 -0.19225925346E+02  0.31836904593E+02 -0.15573295859E+03  0.16011239518E+03  0.00000000000E+00 0.  1.
         11    1    1    2    0    0  0.50362865077E+00  0.79616825462E+02 -0.59114323512E+02  0.99164488517E+02  0.00000000000E+00 0. -1.
</event>
<event>
 7    1  0.2693725E-009  0.1122975E+03  0.7561462E-02  0.1256374E+00
          2   -1    0    0  501    0  0.00000000000E+00  0.00000000000E+00  0.50193152129E+03  0.50193152129E+03  0.00000000000E+00 0. -1.
         -2   -1    0    0    0  501 -0.00000000000E+00 -0.00000000000E+00 -0.30490116327E+02  0.30490116327E+02  0.00000000000E+00 0.  1.
         25    2    1    2    0    0 -0.25028099209E+02 -0.43275004313E+02  0.29277074362E+03  0.32227634190E+03  0.12509276750E+03 0.  0.
          5    1    3    3  502    0  0.35765107500E+02 -0.42616127596E+02  0.61168942792E+02  0.82791238716E+02  0.41800000000E+01 0. -1.
         -5    1    3    3    0  502 -0.60793206710E+02 -0.65887671735E+00  0.23160180082E+03  0.23948510318E+03  0.41800000000E+01 0. -1.
        -11    1    1    2    0    0 -0.18435033331E+02 -0.22460842916E+02  0.71005322395E+02  0.76720894982E+02  0.00000000000E+00 0. -1.
         11    1    1    2    0    0  0.43463132540E+02  0.65735847229E+02  0.10766533895E+03  0.13342440074E+03  0.00000000000E+00 0.  1.
</event>
<event>
 7    1  0.2693725E-009  0.8768814E+02  0.7561462E-02  0.1308549E+00
          2   -1    0    0  501    0  0.00000000000E+00  0.00000000000E+00  0.46648859203E+03  0.46648859203E+03  0.00000000000E+00 0.  1.
         -2   -1    0    0    0  501 -0.00000000000E+00 -0.00000000000E+00 -0.40707905090E+02  0.40707905090E+02  0.00000000000E+00 0. -1.
         25    2    1    2    0    0  0.66817846527E+02 -0.15405388056E+01  0.13353259928E+03  0.19479474961E+03  0.12508813505E+03 0.  0.
          5    1    3    3  502    0  0.20936355051E+02  0.13820056177E+02  0.14306112162E+03  0.14530410124E+03  0.41800000000E+01 0.  1.
         -5    1    3    3    0  502  0.45881491475E+02 -0.15360594983E+02 -0.95285223456E+01  0.49490648373E+02  0.41800000000E+01 0.  1.
        -11    1    1    2    0    0  0.38175286790E+01  0.26265646418E+02  0.14299275253E+03  0.14543515732E+03  0.00000000000E+00 0.  1.
         11    1    1    2    0    0 -0.70635375206E+02 -0.24725107612E+02  0.14925533513E+03  0.16696659019E+03  0.00000000000E+00 0. -1.
</event>
<event>
 7    1  0.2693725E-009  0.8547049E+02  0.7561462E-02  0.1314207E+00
         -1   -1    0    0    0  501 -0.00000000000E+00  0.00000000000E+00  0.21989255213E+02  0.21989255213E+02  0.00000000000E+00 0.  1.
          1   -1    0    0  501    0  0.00000000000E+00 -0.00000000000E+00 -0.63512478125E+03  0.63512478125E+03  0.00000000000E+00 0. -1.
         25    2    1    2    0    0 -0.39257253361E+02 -0.22520315797E+02 -0.37901256272E+03  0.40168114596E+03  0.12509565840E+03 0.  0.
          5    1    3    3  502    0 -0.12611414890E+02  0.24494914837E+02 -0.11422415575E+02  0.30116318101E+02  0.41800000000E+01 0.  1.
         -5    1    3    3    0  502 -0.26645838472E+02 -0.47015230633E+02 -0.36759014715E+03  0.37156482786E+03  0.41800000000E+01 0.  1.
        -11    1    1    2    0    0  0.61014411171E+02  0.55247775218E+01 -0.91193646921E+02  0.10986156187E+03  0.00000000000E+00 0.  1.
         11    1    1    2    0    0 -0.21757157810E+02  0.16995538275E+02 -0.14292931640E+03  0.14557132864E+03  0.00000000000E+00 0. -1.
</event>
<event>
 7    1  0.2693725E-009  0.1086801E+03  0.7561462E-02  0.1263034E+00
         -1   -1    0    0    0  501 -0.00000000000E+00  0.00000000000E+00  0.47773738740E+03  0.47773738740E+03  0.00000000000E+00 0.  1.
          1   -1    0    0  501    0  0.00000000000E+00 -0.00000000000E+00 -0.44316592357E+02  0.44316592357E+02  0.00000000000E+00 0. -1.
         25    2    1    2    0    0 -0.45419534736E+02  0.45042526089E+02  0.35512298977E+03  0.38190652015E+03  0.12509392062E+03 0.  0.
          5    1    3    3  502    0 -0.68186236933E+02  0.73784903531E+01  0.31433199763E+03  0.32175438172E+03  0.41800000000E+01 0.  1.
         -5    1    3    3    0  502  0.22766702196E+02  0.37664035735E+02  0.40790992143E+02  0.60152138422E+02  0.41800000000E+01 0.  1.
        -11    1    1    2    0    0  0.69622473212E+02 -0.29104716531E+02  0.81406736952E+02  0.11100193747E+03  0.00000000000E+00 0.  1.
         11    1    1    2    0    0 -0.24202938476E+02 -0.15937809557E+02 -0.31089316835E+01  0.29145522136E+02  0.00000000000E+00 0. -1.
</event>
<event>
 7    1  0.2693725E-009  0.9564953E+02  0.7561462E-02  0.1289720E+00
         -2   -1    0    0    0  501 -0.00000000000E+00  0.00000000000E+00  0.20571223941E+02  0.20571223941E+02  0.00000000000E+00 0.  1.
          2   -1    0    0  501    0  0.00000000000E+00 -0.00000000000E+00 -0.64185859842E+03  0.64185859842E+03  0.00000000000E+00 0. -1.
         25    2    1    2    0    0  0.22957052666E+02 -0.14915855337E+01 -0.44028841550E+03  0.45829121677E+03  0.12509076485E+03 0.  0.
          5    1    3    3  502    0  0.57296928783E+02 -0.16257793581E+02 -0.10410906203E+03  0.12001426206E+03  0.41800000000E+01 0.  1.
         -5    1    3    3    0  502 -0.34339876117E+02  0.14766208047E+02 -0.33617935347E+03  0.33827695471E+03  0.41800000000E+01 0.  1.
        -11    1    1    2    0    0  0.19928052120E+02  0.34514522517E+02 -0.86413281375E+02  0.95161098795E+02  0.00000000000E+00 0. -1.
         11    1    1    2    0    0 -0.42885104786E+02 -0.33022936983E+02 -0.94585677599E+02  0.10897750679E+03  0.00000000000E+00 0.  1.
</event>
<event>
 7    1  0.2693725E-009  0.1418914E+03  0.7561462E-02  0.1210806E+00
         -1   -1    0    0    0  501 -0.00000000000E+00  0.00000000000E+00  0.16030873013E+03  0.16030873013E+03  0.00000000000E+00 0.  1.
          1   -1    0    0  501    0  0.00000000000E+00 -0.00000000000E+00 -0.24088556537E+03  0.24088556537E+03  0.00000000000E+00 0. -1.
         25    2    1    2    0    0  0.46510130846E+02 -0.10279170149E+03  0.76871436855E+02  0.18516701774E+03  0.12509308729E+03 0.  0.
          5    1    3    3  502    0  0.52644292800E+02 -0.12221876084E+03  0.33839848408E+02  0.13737341375E+03  0.41800000000E+01 0.  1.
         -5    1    3    3    0  502 -0.61341619539E+01  0.19427059349E+02  0.43031588447E+02  0.47793603987E+02  0.41800000000E+01 0.  1.
        -11    1    1    2    0    0 -0.60078638834E+02  0.59814449214E+02 -0.47446964806E+02  0.97151560194E+02  0.00000000000E+00 0.  1.
         11    1    1    2    0    0  0.13568507988E+02  0.42977252280E+02 -0.11000130729E+03  0.11887571757E+03  0.00000000000E+00 0. -1.
</event>
<event>
 7    1  0.2693725E-009  0.1511690E+03  0.7561462E-02  0.1199044E+00
          1   -1    0    0  501    0  0.00000000000E+00  0.00000000000E+00  0.43224149224E+03  0.43224149224E+03  0.00000000000E+00 0. -1.
         -1   -1    0    0    0  501 -0.00000000000E+00 -0.00000000000E+00 -0.73818659288E+02  0.73818659288E+02  0.00000000000E+00 0.  1.
         25    2    1    2    0    0 -0.41941376244E+02 -0.11754590658E+03  0.28265088117E+03  0.33334126696E+03  0.12509500566E+03 0.  0.
          5    1    3    3  502    0 -0.84738361451E+02 -0.84811992371E+02  0.22017273259E+03  0.25073326171E+03  0.41800000000E+01 0. -1.
         -5    1    3    3    0  502  0.42796985207E+02 -0.32733914205E+02  0.62478148578E+02  0.82608005252E+02  0.41800000000E+01 0. -1.
        -11    1    1    2    0    0  0.30323213837E+02  0.41464317918E+02 -0.15187930273E+02  0.53567342512E+02  0.00000000000E+00 0.  1.
         11    1    1    2    0    0  0.11618162407E+02  0.76081588658E+02  0.90959882057E+02  0.11915154206E+03  0.00000000000E+00 0. -1.
</event>
<event>
 7    1  0.2693725E-009  0.1645880E+03  0.7561462E-02  0.1183612E+00
         -2   -1    0    0    0  501 -0.00000000000E+00  0.00000000000E+00  0.24629579867E+03  0.24629579867E+03  0.00000000000E+00 0.  1.
          2   -1    0    0  501    0  0.00000000000E+00 -0.00000000000E+00 -0.12508787275E+03  0.12508787275E+03  0.00000000000E+00 0. -1.
         25    2    1    2    0    0  0.45330236761E+02  0.13442272617E+03  0.50780624417E+02  0.19583376181E+03  0.12509152959E+03 0.  0.
          5    1    3    3  502    0  0.79874492406E+02  0.12282453740E+03  0.19958260790E+02  0.14792432558E+03  0.41800000000E+01 0.  1.
         -5    1    3    3    0  502 -0.34544255644E+02  0.11598188767E+02  0.30822363627E+02  0.47909436234E+02  0.41800000000E+01 0.  1.
        -11    1    1    2    0    0  0.57058272610E+01 -0.11823475062E+02 -0.13197871569E+02  0.18615446308E+02  0.00000000000E+00 0. -1.
         11    1    1    2    0    0 -0.51036064022E+02 -0.12259925110E+03  0.83625173071E+02  0.15693446331E+03  0.00000000000E+00 0.  1.
</event>
<event>
 7    1  0.2693725E-009  0.8528319E+02  0.7561462E-02  0.1314694E+00
          2   -1    0    0  501    0  0.00000000000E+00  0.00000000000E+00  0.41095123654E+03  0.41095123654E+03  0.00000000000E+00 0. -1.
         -2   -1    0    0    0  501 -0.00000000000E+00 -0.00000000000E+00 -0.29360440121E+02  0.29360440121E+02  0.00000000000E+00 0.  1.
         25    2    1    2    0    0 -0.22310498193E+02 -0.45308271808E+02  0.30437463912E+03  0.33293081811E+03  0.12509360849E+03 0.  0.
          5    1    3    3  502    0 -0.35413504951E+02  0.25338907830E+02  0.41201571088E+02  0.60093414307E+02  0.41800000000E+01 0.  1.
         -5    1    3    3    0  502  0.13103006758E+02 -0.70647179638E+02  0.26317306803E+03  0.27283740380E+03  0.41800000000E+01 0.  1.
        -11    1    1    2    0    0  0.19924633678E+02  0.16303346552E+02  0.73699007003E+02  0.78066214006E+02  0.00000000000E+00 0. -1.
         11    1    1    2    0    0  0.23858645152E+01  0.29004925256E+02  0.35171502971E+01  0.29314644545E+02  0.00000000000E+00 0.  1.
</event>
<event>
 7    1  0.2693725E-009  0.1497694E+03  0.7561462E-02  0.1200757E+00
          2   -1    0    0  501    0  0.00000000000E+00  0.00000000000E+00  0.31960040346E+03  0.31960040346E+03  0.00000000000E+00 0.  1.
         -2   -1    0    0    0  501 -0.00000000000E+00 -0.00000000000E+00 -0.13688671776E+03  0.13688671776E+03  0.00000000000E+00 0. -1.
         25    2    1    2    0    0 -0.80302289438E+01 -0.10762525909E+03  0.24593987122E+03  0.29627841356E+03  0.12508715807E+03 0.  0.
          5    1    3    3  502    0 -0.44602966131E+01  0.27695025051E+02  0.58702449090E+02  0.65194774236E+02  0.41800000000E+01 0.  1.
         -5    1    3    3    0  502 -0.35699323307E+01 -0.13532028414E+03  0.18723742213E+03  0.23108363932E+03  0.41800000000E+01 0.  1.
        -11    1    1    2    0    0  0.43439155213E+02  0.38351624268E+02  0.30219339502E+01  0.58025333902E+02  0.00000000000E+00 0.  1.
         11    1    1    2    0    0 -0.35408926269E+02  0.69273634821E+02 -0.66248119472E+02  0.10218337377E+03  0.00000000000E+00 0. -1.
</event>
<event>
 7    1  0.2693725E-009  0.9292788E+02  0.7561462E-02  0.1295912E+00
         -2   -1    0    0    0  501 -0.00000000000E+00  0.00000000000E+00  0.35189703201E+02  0.35189703201E+02  0.00000000000E+00 0.  1.
          2   -1    0    0  501    0  0.00000000000E+00 -0.00000000000E+00 -0.35400872043E+03  0.35400872043E+03  0.00000000000E+00 0. -1.
         25    2    1    2    0    0 -0.37358940286E+01 -0.28237161618E+02 -0.18289292926E+03  0.22340345530E+03  0.12509191048E+03 0.  0.
          5    1    3    3  502    0  0.44634228940E+02 -0.57442485641E+01 -0.15681225394E+02  0.47839147301E+02  0.41800000000E+01 0. -1.
         -5    1    3    3    0  502 -0.48370122969E+02 -0.22492913053E+02 -0.16721170386E+03  0.17556430799E+03  0.41800000000E+01 0. -1.
        -11    1    1    2    0    0 -0.78290961642E+01 -0.28341751870E+02 -0.17966028153E+02  0.34457623444E+02  0.00000000000E+00 0.  1.
         11    1    1    2    0    0  0.11564990193E+02  0.56578913488E+02 -0.11796005982E+03  0.13133734489E+03  0.00000000000E+00 0. -1.
</event>
<event>
 7    1  0.2693725E-009  0.1915779E+03  0.7561462E-02  0.1157046E+00
         -2   -1    0    0    0  501 -0.00000000000E+00  0.00000000000E+00  0.18899774396E+03  0.18899774396E+03  0.00000000000E+00 0.  1.
          2   -1    0    0  501    0  0.00000000000E+00 -0.00000000000E+00 -0.30958754995E+03  0.30958754995E+03  0.00000000000E+00 0. -1.
         25    2    1    2    0    0  0.13619363043E+03  0.13121914708E+03 -0.16348578809E+03  0.27953860099E+03  0.12508819692E+03 0.  0.
          5    1    3    3  502    0  0.94351967719E+02  0.95254428679E+02 -0.33489067192E+02  0.13825588601E+03  0.41800000000E+01 0.  1.
         -5    1    3    3    0  502  0.41841662710E+02  0.35964718398E+02 -0.12999672090E+03  0.14128271498E+03  0.41800000000E+01 0.  1.
        -11    1    1    2    0    0 -0.40902399130E+02 -0.67921495697E+02  0.65009121864E+02  0.10253058938E+03  0.00000000000E+00 0.  1.
         11    1    1    2    0    0 -0.95291231299E+02 -0.63297651381E+02 -0.22113139761E+02  0.11651610353E+03  0.00000000000E+00 0. -1.
</event>
<event>
 7    1  0.2693725E-009  0.1400209E+03  0.7561462E-02  0.1213301E+00
         -2   -1    0    0    0  501 -0.00000000000E+00  0.00000000000E+00  0.60083181280E+02  0.60083181280E+02  0.00000000000E+00 0.  1.
          2   -1    0    0  501    0  0.00000000000E+00 -0.00000000000E+00 -0.42149261590E+03  0.42149261590E+03  0.00000000000E+00 0. -1.
         25    2    1    2    0    0  0.96775504748E+02 -0.57442166755E+02 -0.15173215683E+03  0.22657933305E+03  0.12510174222E+03 0.  0.
          5    1    3    3  502    0  0.11461037344E+03 -0.95613545528E+01 -0.12011087656E+03  0.16634618201E+03  0.41800000000E+01 0. -1.
         -5    1    3    3    0  502 -0.17834868689E+02 -0.47880812202E+02 -0.31621280273E+02  0.60233151042E+02  0.41800000000E+01 0. -1.
        -11    1    1    2    0    0 -0.53387778513E+02  0.22300894123E+02 -0.26758947274E+02  0.63746576634E+02  0.00000000000E+00 0.  1.
         11    1    1    2    0    0 -0.43387726235E+02  0.35141272632E+02 -0.18291833052E+03  0.19124988750E+03  0.00000000000E+00 0. -1.
</event>
<event>
 7    1  0.2693725E-009  0.1779148E+03  0.7561462E-02  0.1169837E+00
          2   -1    0    0  501    0  0.00000000000E+00  0.00000000000E+00  0.10800548426E+04  0.10800548426E+04  0.00000000000E+00 0. -1.
         -2   -1    0    0    0  501 -0.00000000000E+00 -0.00000000000E+00 -0.31052815875E+02  0.31052815875E+02  0.00000000000E+00 0.  1.
         25    2    1    2    0    0 -0.12062185955E+03  0.82547881413E+02  0.48969506558E+03  0.52613113854E+03  0.12509569121E+03 0.  0.
          5    1    3    3  502    0 -0.32043114931E+02 -0.27979441080E+02  0.18823736856E+03  0.19302950464E+03  0.41800000000E+01 0.  1.
         -5    1    3    3    0  502 -0.88578744622E+02  0.11052732249E+03  0.30145769701E+03  0.33310163390E+03  0.41800000000E+01 0.  1.
        -11    1    1    2    0    0  0.13025131626E+03 -0.53555737698E+02  0.46128901947E+03  0.48230818146E+03  0.00000000000E+00 0.  1.
         11    1    1    2    0    0 -0.96294567049E+01 -0.28992143715E+02  0.98017941671E+02  0.10266833846E+03  0.00000000000E+00 0. -1.
</event>
<event>
 7    1  0.2693725E-009  0.1496589E+03  0.7561462E-02  0.1200893E+00
          1   -1    0    0  501    0  0.00000000000E+00  0.00000000000E+00  0.63377794988E+03  0.63377794988E+03  0.00000000000E+00 0. -1.
         -1   -1    0    0    0  501 -0.00000000000E+00 -0.00000000000E+00 -0.40928688838E+02  0.40928688838E+02  0.00000000000E+00 0.  1.
         25    2    1    2    0    0  0.30492987708E+02 -0.11962693273E+03  0.37450131759E+03  0.41368987393E+03  0.12509056554E+03 0.  0.
          5    1    3    3  502    0  0.54937221158E+02 -0.12244417206E+03  0.22420326226E+03  0.26133359667E+03  0.41800000000E+01 0. -1.
         -5    1    3    3    0  502 -0.24444233450E+02  0.28172393296E+01  0.15029805533E+03  0.15235627726E+03  0.41800000000E+01 0. -1.
        -11    1    1    2    0    0 -0.18071917800E+02 -0.16792845908E+01  0.13493144820E+02  0.22615905174E+02  0.00000000000E+00 0.  1.
         11    1    1    2    0    0 -0.12421069908E+02  0.12130621732E+03  0.20485479864E+03  0.23840085961E+03  0.00000000000E+00 0. -1.
</event>
<event>
 7    1  0.2693725E-009  0.1552607E+03  0.7561462E-02  0.1194154E+00
          2   -1    0    0  501    0  0.00000000000E+00  0.00000000000E+00  0.95969736013E+03  0.95969736013E+03  0.00000000000E+00 0. -1.
         -2   -1    0    0    0  501 -0.00000000000E+00 -0.00000000000E+00 -0.29273035952E+02  0.29273035952E+02  0.00000000000E+00 0.  1.
         25    2    1    2    0    0  0.10533167400E+03  0.51809446644E+02  0.35659908768E+03  0.39571569097E+03  0.12509603684E+03 0.  0.
          5    1    3    3  502    0  0.21041063223E+02  0.70334964735E+02  0.23717408474E+03  0.24831180495E+03  0.41800000000E+01 0. -1.
         -5    1    3    3    0  502  0.84290610775E+02 -0.18525518091E+02  0.11942500295E+03  0.14740388602E+03  0.41800000000E+01 0. -1.
        -11    1    1    2    0    0 -0.58304692877E+02  0.22623357044E+02  0.23759120735E+03  0.24568442219E+03  0.00000000000E+00 0. -1.
         11    1    1    2    0    0 -0.47026981121E+02 -0.74432803688E+02  0.33623402915E+03  0.34757028293E+03  0.00000000000E+00 0.  1.
</event>
<event>
 7    1  0.2693725E-009  0.7502587E+02  0.7561462E-02  0.1343791E+00
          1   -1    0    0  501    0  0.00000000000E+00  0.00000000000E+00  0.17754999970E+03  0.17754999970E+03  0.00000000000E+00 0. -1.
         -1   -1    0    0    0  501 -0.00000000000E+00 -0.00000000000E+00 -0.95812649775E+02  0.95812649775E+02  0.00000000000E+00 0.  1.
         25    2    1    2    0    0  0.56762356416E+02  0.16691450413E+02  0.67946968953E+02  0.15416654264E+03  0.12509981077E+03 0.  0.
          5    1    3    3  502    0  0.23864802607E+02 -0.42543068933E+01  0.10033086247E+03  0.10330238281E+03  0.41800000000E+01 0.  1.
         -5    1    3    3    0  502  0.32897553809E+02  0.20945757306E+02 -0.32383893514E+02  0.50864159827E+02  0.41800000000E+01 0.  1.
        -11    1    1    2    0    0 -0.29064933358E+02  0.23529135669E+02 -0.34237775668E+02  0.50701241199E+02  0.00000000000E+00 0.  1.
         11    1    1    2    0    0 -0.27697423058E+02 -0.40220586082E+02  0.48028156639E+02  0.68494865640E+02  0.00000000000E+00 0. -1.
</event>
<event>
 7    1  0.2693725E-009  0.1036131E+03  0.7561462E-02  0.1272876E+00
          1   -1    0    0  501    0  0.00000000000E+00  0.00000000000E+00  0.36511074988E+03  0.36511074988E+03  0.00000000000E+00 0. -1.
         -1   -1    0    0    0  501 -0.00000000000E+00 -0.00000000000E+00 -0.42351875111E+02  0.42351875111E+02  0.00000000000E+00 0.  1.
         25    2    1    2    0    0  0.48567095515E+02 -0.17681520804E+02  0.23745134787E+03  0.27331542630E+03  0.12508709248E+03 0.  0.
          5    1    3    3  502    0 -0.86703061228E+01 -0.58483925279E+02  0.14832390326E+03  0.15972788235E+03  0.41800000000E+01 0. -1.
         -5    1    3    3    0  502  0.57237401637E+02  0.40802404475E+02  0.89127444615E+02  0.11358754395E+03  0.41800000000E+01 0. -1.
        -11    1    1    2    0    0 -0.84445908524E+01 -0.20488839396E+02 -0.96899078932E+01  0.24186731268E+02  0.00000000000E+00 0.  1.
         11    1    1    2    0    0 -0.40122504662E+02  0.38170360199E+02  0.94997434792E+02  0.10996046742E+03  0.00000000000E+00 0. -1.
</event>
<event>
 7    1  0.2693725E-009  0.1063747E+03  0.7561462E-02  0.1267435E+00
          2   -1    0    0  501    0  0.00000000000E+00  0.00000000000E+00  0.36837453742E+03  0.36837453742E+03  0.00000000000E+00 0. -1.
         -2   -1    0    0    0  501 -0.00000000000E+00 -0.00000000000E+00 -0.43347357114E+02  0.43347357114E+02  0.00000000000E+00 0.  1.
         25    2    1    2    0    0 -0.16778417672E+02 -0.57762072240E+02  0.21410605042E+03  0.25515431528E+03  0.12507738201E+03 0.  0.
          5    1    3    3  502    0 -0.35315810610E+01  0.25048932470E+02  0.50820413544E+00  0.25644721760E+02  0.41800000000E+01 0.  1.
         -5    1    3    3    0  502 -0.13246836611E+02 -0.82811004710E+02  0.21359784629E+03  0.22950959352E+03  0.41800000000E+01 0.  1.
        -11    1    1    2    0    0 -0.79481972721E+01 -0.20011464131E+02  0.37418739960E+01  0.21854842885E+02  0.00000000000E+00 0.  1.
         11    1    1    2    0    0  0.24726614944E+02  0.77773536371E+02  0.10717925589E+03  0.13471273637E+03  0.00000000000E+00 0. -1.
</event>
<event>
 7    1  0.2693725E-009  0.1171638E+03  0.7561462E-02  0.1247851E+00
          1   -1    0    0  501    0  0.00000000000E+00  0.00000000000E+00  0.19636115178E+03  0.19636115178E+03  0.00000000000E+00 0.  1.
         -1   -1    0    0    0  501 -0.00000000000E+00 -0.00000000000E+00 -0.86435878351E+02  0.86435878351E+02  0.00000000000E+00 0. -1.
         25    2    1    2    0    0  0.77186818775E+02  0.57736393075E+02  0.91042623171E+02  0.18228450074E+03  0.12509030297E+03 0.  0.
          5    1    3    3  502    0  0.54950257487E+02 -0.17094990371E+02  0.86496277694E+02  0.10397522757E+03  0.41800000000E+01 0. -1.
         -5    1    3    3    0  502  0.22236561288E+02  0.74831383445E+02  0.45463454766E+01  0.78309273164E+02  0.41800000000E+01 0. -1.
        -11    1    1    2    0    0 -0.54665433544E+02 -0.51448115261E+02  0.11194143636E+02  0.75898135947E+02  0.00000000000E+00 0.  1.
         11    1    1    2    0    0 -0.22521385231E+02 -0.62882778132E+01  0.76885066174E+01  0.24614393443E+02  0.00000000000E+00 0. -1.
</event>
<event>
 7    1  0.2693725E-009  0.2507330E+03  0.7561462E-02  0.1112842E+00
          3   -1    0    0  501    0  0.00000000000E+00  0.00000000000E+00  0.70690734658E+03  0.70690734658E+03  0.00000000000E+00 0. -1.
         -3   -1    0    0    0  501 -0.00000000000E+00 -0.00000000000E+00 -0.11668600467E+03  0.11668600467E+03  0.00000000000E+00 0.  1.
         25    2    1    2    0    0 -0.20941498440E+03  0.86227252660E+02  0.50007368608E+03  0.56303815836E+03  0.12509397055E+03 0.  0.
          5    1    3    3  502    0 -0.20331242387E+03  0.11166510038E+03  0.44115594942E+03  0.49843864261E+03  0.41800000000E+01 0.  1.
         -5    1    3    3    0  502 -0.61025605311E+01 -0.25437847717E+02  0.58917736663E+02  0.64599515749E+02  0.41800000000E+01 0.  1.
        -11    1    1    2    0    0  0.15727630742E+03 -0.10323973733E+03  0.81522607063E+02  0.20503710811E+03  0.00000000000E+00 0.  1.
         11    1    1    2    0    0  0.52138676977E+02  0.17012484671E+02  0.86250487644E+01  0.55518084781E+02  0.00000000000E+00 0. -1.
</event>
<event>
 7    1  0.2693725E-009  0.1008653E+03  0.7561462E-02  0.1278487E+00
         -1   -1    0    0    0  501 -0.00000000000E+00  0.00000000000E+00  0.49803329053E+02  0.49803329053E+02  0.00000000000E+00 0.  1.
          1   -1    0    0  501    0  0.00000000000E+00 -0.00000000000E+00 -0.52582675068E+03  0.52582675068E+03  0.00000000000E+00 0. -1.
         25    2    1    2    0    0  0.35058766333E+02  0.60467506910E+02 -0.79248825825E+02  0.16375154767E+03  0.12509498983E+03 0.  0.
          5    1    3    3  502    0  0.49834649695E+02  0.16666535767E+02 -0.99896430049E+02  0.11295147127E+03  0.41800000000E+01 0. -1.
         -5    1    3    3    0  502 -0.14775883362E+02  0.43800971143E+02  0.20647604225E+02  0.50800076402E+02  0.41800000000E+01 0. -1.
        -11    1    1    2    0    0 -0.45190078432E+02 -0.41494716105E+01 -0.10256451057E+03  0.11215542846E+03  0.00000000000E+00 0.  1.
         11    1    1    2    0    0  0.10131312099E+02 -0.56318035300E+02 -0.29421008523E+03  0.29972310361E+03  0.00000000000E+00 0. -1.
</event>
<event>
 7    1  0.2693725E-009  0.1163155E+03  0.7561462E-02  0.1249302E+00
         -1   -1    0    0    0  501 -0.00000000000E+00  0.00000000000E+00  0.15776631994E+03  0.15776631994E+03  0.00000000000E+00 0.  1.
          1   -1    0    0  501    0  0.00000000000E+00 -0.00000000000E+00 -0.12457371476E+03  0.12457371476E+03  0.00000000000E+00 0. -1.
         25    2    1    2    0    0  0.39108688000E+02 -0.67967958656E+02 -0.22391504466E+02  0.14932580369E+03  0.12509070028E+03 0.  0.
          5    1    3    3  502    0 -0.25531208182E+02 -0.60730151441E+02  0.22995642718E+02  0.69901830228E+02  0.41800000000E+01 0. -1.
         -5    1    3    3    0  502  0.64639896182E+02 -0.72378072149E+01 -0.45387147184E+02  0.79423973467E+02  0.41800000000E+01 0. -1.
        -11    1    1    2    0    0 -0.30433399631E+01 -0.12710189959E+02  0.41521700840E+02  0.43530018236E+02  0.00000000000E+00 0.  1.
         11    1    1    2    0    0 -0.36065348037E+02  0.80678148615E+02  0.14062408804E+02  0.89484212766E+02  0.00000000000E+00 0. -1.
</event>
<event>
 7    1  0.2693725E-009  0.1075235E+03  0.7561462E-02  0.1265226E+00
         -2   -1    0    0    0  501 -0.00000000000E+00  0.00000000000E+00  0.16064144200E+03  0.16064144200E+03  0.00000000000E+00 0. -1.
          2   -1    0    0  501    0  0.00000000000E+00 -0.00000000000E+00 -0.78469080806E+02  0.78469080806E+02  0.00000000000E+00 0.  1.
         25    2    1    2    0    0  0.33063138492E+01 -0.19700883822E+02  0.15137726846E+02  0.12756289359E+03  0.12507631475E+03 0.  0.
          5    1    3    3  502    0  0.85484479995E+01 -0.72279249798E+02  0.15615720936E+02  0.74556616439E+02  0.41800000000E+01 0.  1.
         -5    1    3    3    0  502 -0.52421341503E+01  0.52578365975E+02 -0.47799408999E+00  0.53006277151E+02  0.41800000000E+01 0.  1.
        -11    1    1    2    0    0 -0.47203029510E+00 -0.34681061785E+02  0.24980303266E+02  0.42743589114E+02  0.00000000000E+00 0.  1.
         11    1    1    2    0    0 -0.28342835541E+01  0.54381945607E+02  0.42054331079E+02  0.68804040098E+02  0.00000000000E+00 0. -1.
</event>
<event>
 7    1  0.2693725E-009  0.1485932E+03  0.7561462E-02  0.1202212E+00
         -1   -1    0    0    0  501 -0.00000000000E+00  0.00000000000E+00  0.23450377764E+02  0.23450377764E+02  0.00000000000E+00 0.  1.
          1   -1    0    0  501    0  0.00000000000E+00 -0.00000000000E+00 -0.94557514458E+03  0.94557514458E+03  0.00000000000E+00 0. -1.
         25    2    1    2    0    0 -0.23836473798E+02  0.99966300020E+02 -0.48044865966E+03  0.50699047680E+03  0.12508793057E+03 0.  0.
          5    1    3    3  502    0  0.27644295238E+02 -0.17763717954E+02 -0.10906423092E+03  0.11398348828E+03  0.41800000000E+01 0. -1.
         -5    1    3    3    0  502 -0.51480769037E+02  0.11773001797E+03 -0.37138442874E+03  0.39300698852E+03  0.41800000000E+01 0. -1.
        -11    1    1    2    0    0  0.46612939060E+02 -0.17245124480E+02 -0.17228465477E+03  0.17931024141E+03  0.00000000000E+00 0.  1.
         11    1    1    2    0    0 -0.22776465262E+02 -0.82721175540E+02 -0.26939145239E+03  0.28272480413E+03  0.00000000000E+00 0. -1.
</event>
<event>
 7    1  0.2693725E-009  0.1185239E+03  0.7561462E-02  0.1245552E+00
         -2   -1    0    0    0  501 -0.00000000000E+00  0.00000000000E+00  0.62375364231E+02  0.62375364231E+02  0.00000000000E+00 0.  1.
          2   -1    0    0  501    0  0.00000000000E+00 -0.00000000000E+00 -0.41656508520E+03  0.41656508520E+03  0.00000000000E+00 0. -1.
         25    2    1    2    0    0  0.38501430114E+02 -0.29600167102E+02 -0.30365712657E+03  0.33198497988E+03  0.12509135197E+03 0.  0.
          5    1    3    3  502    0  0.53912675621E+02  0.11607066493E+02 -0.27214437762E+03  0.27770728340E+03  0.41800000000E+01 0. -1.
         -5    1    3    3    0  502 -0.15411245507E+02 -0.41207233594E+02 -0.31512748949E+02  0.54277696478E+02  0.41800000000E+01 0. -1.
        -11    1    1    2    0    0  0.46800578640E+02 -0.13103158060E+01 -0.11660117238E+02  0.48249035458E+02  0.00000000000E+00 0. -1.
         11    1    1    2    0    0 -0.85302008754E+02  0.30910482908E+02 -0.38872477165E+02  0.98706434097E+02  0.00000000000E+00 0.  1.
</event>
<event>
 7    1  0.2693725E-009  0.2465521E+03  0.7561462E-02  0.1115503E+00
          1   -1    0    0  501    0  0.00000000000E+00  0.00000000000E+00  0.45875847410E+03  0.45875847410E+03  0.00000000000E+00 0. -1.
         -1   -1    0    0    0  501 -0.00000000000E+00 -0.00000000000E+00 -0.15090402976E+03  0.15090402976E+03  0.00000000000E+00 0.  1.
         25    2    1    2    0    0 -0.17377706520E+03  0.13966739396E+03  0.25882407496E+03  0.36379188758E+03  0.12509670805E+03 0.  0.
          5    1    3    3  502    0 -0.47067885056E+02 -0.17706695280E+02  0.30861772372E+02  0.59150944669E+02  0.41800000000E+01 0. -1.
         -5    1    3    3    0  502 -0.12670918014E+03  0.15737408924E+03  0.22796230258E+03  0.30464094291E+03  0.41800000000E+01 0. -1.
        -11    1    1    2    0    0  0.14459601714E+01  0.11334994969E+02 -0.54780091995E+00  0.11439973672E+02  0.00000000000E+00 0.  1.
         11    1    1    2    0    0  0.17233110503E+03 -0.15100238893E+03  0.49578170305E+02  0.23443064261E+03  0.00000000000E+00 0. -1.
</event>
<event>
 7    1  0.2693725E-009  0.9587261E+02  0.7561462E-02  0.1289223E+00
          1   -1    0    0  501    0  0.00000000000E+00  0.00000000000E+00  0.30893169874E+03  0.30893169874E+03  0.00000000000E+00 0. -1.
         -1   -1    0    0    0  501 -0.00000000000E+00 -0.00000000000E+00 -0.49020285688E+02  0.49020285688E+02  0.00000000000E+00 0.  1.
         25    2    1    2    0    0  0.51206044565E+01 -0.55151449501E+02  0.18423459459E+03  0.22946968430E+03  0.12508416045E+03 0.  0.
          5    1    3    3  502    0 -0.41654868375E+02 -0.22525692954E+02  0.13508154415E+02  0.49421427924E+02  0.41800000000E+01 0.  1.
         -5    1    3    3    0  502  0.46775472831E+02 -0.32625756548E+02  0.17072644017E+03  0.18004825637E+03  0.41800000000E+01 0.  1.
        -11    1    1    2    0    0 -0.30348345466E+01 -0.15775824684E+02 -0.86721155348E+01  0.18256298996E+02  0.00000000000E+00 0.  1.
         11    1    1    2    0    0 -0.20857699099E+01  0.70927274185E+02  0.84348933996E+02  0.11022600113E+03  0.00000000000E+00 0. -1.
</event>
<event>
 7    1  0.2693725E-009  0.2321189E+03  0.7561462E-02  0.1125157E+00
          2   -1    0    0  501    0  0.00000000000E+00  0.00000000000E+00  0.12691610862E+04  0.12691610862E+04  0.00000000000E+00 0. -1.
         -2   -1    0    0    0  501 -0.00000000000E+00 -0.00000000000E+00 -0.51560697714E+02  0.51560697714E+02  0.00000000000E+00 0.  1.
         25    2    1    2    0    0  0.19095476081E+03 -0.10226695080E+03  0.41588211575E+03  0.48531135517E+03  0.12508767866E+03 0.  0.
          5    1    3    3  502    0  0.17592076930E+03 -0.11869793306E+03  0.41033187243E+03  0.46198163850E+03  0.41800000000E+01 0.  1.
         -5    1    3    3    0  502  0.15033991510E+02  0.16430982260E+02  0.55502433226E+01  0.23329716666E+02  0.41800000000E+01 0.  1.
        -11    1    1    2    0    0 -0.16585503773E+03  0.53158435073E+02  0.52143984903E+03  0.54975742734E+03  0.00000000000E+00 0.  1.
         11    1    1    2    0    0 -0.25099723080E+02  0.49108515724E+02  0.28027842367E+03  0.28565300137E+03  0.00000000000E+00 0. -1.
</event>
<event>
 7    1  0.2693725E-009  0.1428116E+03  0.7561462E-02  0.1209595E+00
          1   -1    0    0  501    0  0.00000000000E+00  0.00000000000E+00  0.54930157874E+03  0.54930157874E+03  0.00000000000E+00 0. -1.
         -1   -1    0    0    0  501 -0.00000000000E+00 -0.00000000000E+00 -0.54170034495E+02  0.54170034495E+02  0.00000000000E+00 0.  1.
         25    2    1    2    0    0 -0.10347959177E+03  0.44204936130E+02  0.13809990565E+03  0.21767159356E+03  0.12508891404E+03 0.  0.
          5    1    3    3  502    0 -0.10627070794E+01 -0.36815676524E+02  0.37937461299E+02  0.53040048586E+02  0.41800000000E+01 0.  1.
         -5    1    3    3    0  502 -0.10241688469E+03  0.81020612654E+02  0.10016244435E+03  0.16463154498E+03  0.41800000000E+01 0.  1.
        -11    1    1    2    0    0  0.42856043444E+02  0.25304579745E-01  0.35567255176E+02  0.55692645302E+02  0.00000000000E+00 0.  1.
         11    1    1    2    0    0  0.60623548322E+02 -0.44230240710E+02  0.32146438342E+03  0.33010737437E+03  0.00000000000E+00 0. -1.
</event>
<event>
 7    1  0.2693725E-009  0.1657660E+03  0.7561462E-02  0.1182337E+00
          1   -1    0    0  501    0  0.00000000000E+00  0.00000000000E+00  0.12005283555E+04  0.12005283555E+04  0.00000000000E+00 0. -1.
         -1   -1    0    0    0  501 -0.00000000000E+00 -0.00000000000E+00 -0.27966133894E+02  0.27966133894E+02  0.00000000000E+00 0.  1.
         25    2    1    2    0    0 -0.58908647058E+02 -0.13485022344E+03  0.68828845237E+03  0.71487343509E+03  0.12509285783E+03 0.  0.
          5    1    3    3  502    0 -0.55525370862E+02 -0.15164943772E+03  0.49308493720E+03  0.51887459609E+03  0.41800000000E+01 0.  1.
         -5    1    3    3    0  502 -0.33832761956E+01  0.16799214281E+02  0.19520351516E+03  0.19599883900E+03  0.41800000000E+01 0.  1.
        -11    1    1    2    0    0  0.24824621469E+01  0.52259304607E+02  0.69698855830E+02  0.87150031786E+02  0.00000000000E+00 0.  1.
         11    1    1    2    0    0  0.56426184911E+02  0.82590918836E+02  0.41457491345E+03  0.42647102255E+03  0.00000000000E+00 0. -1.
</event>
<event>
 7    1  0.2693725E-009  0.1743088E+03  0.7561462E-02  0.1173428E+00
          4   -1    0    0  501    0  0.00000000000E+00  0.00000000000E+00  0.22254926261E+03  0.22254926261E+03  0.00000000000E+00 0. -1.
         -4   -1    0    0    0  501 -0.00000000000E+00 -0.00000000000E+00 -0.15807406381E+03  0.15807406381E+03  0.00000000000E+00 0.  1.
         25    2    1    2    0    0 -0.11239962358E+03 -0.95707808833E+02 -0.49962717762E+01  0.19356580995E+03  0.12509636284E+03 0.  0.
          5    1    3    3  502    0 -0.66190435168E+02  0.86933961248E+01  0.31080751241E+02  0.73757944261E+02  0.41800000000E+01 0. -1.
         -5    1    3    3    0  502 -0.46209188408E+02 -0.10440120496E+03 -0.36077023018E+02  0.11980786568E+03  0.41800000000E+01 0. -1.
        -11    1    1    2    0    0  0.98541177613E+02  0.34008817228E+02  0.66706737749E+02  0.12376086698E+03  0.00000000000E+00 0.  1.
         11    1    1    2    0    0  0.13858445964E+02  0.61698991604E+02  0.27647328319E+01  0.63296649494E+02  0.00000000000E+00 0. -1.
</event>
<event>
 7    1  0.2693725E-009  0.1247533E+03  0.7561462E-02  0.1235455E+00
          3   -1    0    0  501    0  0.00000000000E+00  0.00000000000E+00  0.44978523439E+03  0.44978523439E+03  0.00000000000E+00 0. -1.
         -3   -1    0    0    0  501 -0.00000000000E+00 -0.00000000000E+00 -0.45131373391E+02  0.45131373391E+02  0.00000000000E+00 0.  1.
         25    2    1    2    0    0  0.88385674531E+02 -0.95868556732E+00  0.25342470099E+03  0.29611604606E+03  0.12509071556E+03 0.  0.
          5    1    3    3  502    0  0.60527708109E+02 -0.55971720075E+02  0.19193355639E+03  0.20893156623E+03  0.41800000000E+01 0.  1.
         -5    1    3    3    0  502  0.27857966422E+02  0.55013034508E+02  0.61491144599E+02  0.87184479828E+02  0.41800000000E+01 0.  1.
        -11    1    1    2    0    0 -0.48854625814E+02 -0.27854095804E+02  0.13663051826E+03  0.14775156052E+03  0.00000000000E+00 0. -1.
         11    1    1    2    0    0 -0.39531048717E+02  0.28812781371E+02  0.14598641748E+02  0.51049001203E+02  0.00000000000E+00 0.  1.
</event>
<event>
 7    1  0.2693725E-009  0.1532829E+03  0.7561462E-02  0.1196496E+00
         -1   -1    0    0    0  501 -0.00000000000E+00  0.00000000000E+00  0.24466972983E+03  0.24466972983E+03  0.00000000000E+00 0.  1.
          1   -1    0    0  501    0  0.00000000000E+00 -0.00000000000E+00 -0.11534578678E+03  0.11534578678E+03  0.00000000000E+00 0. -1.
         25    2    1    2    0    0  0.31128070099E+02 -0.11308277081E+03  0.12079037960E+03  0.20974968908E+03  0.12509175217E+03 0.  0.
          5    1    3    3  502    0 -0.32527233463E+02 -0.10140510265E+03  0.72652115561E+02  0.12898378990E+03  0.41800000000E+01 0.  1.
         -5    1    3    3    0  502  0.63655303562E+02 -0.11677668155E+02  0.48138264043E+02  0.80765899179E+02  0.41800000000E+01 0.  1.
        -11    1    1    2    0    0  0.19197262828E+02  0.55164256975E+02 -0.28587587907E+02  0.65029841842E+02  0.00000000000E+00 0.  1.
         11    1    1    2    0    0 -0.50325332927E+02  0.57918513835E+02  0.37121151352E+02  0.85235985691E+02  0.00000000000E+00 0. -1.
</event>
<event>
 7    1  0.2693725E-009  0.1942216E+03  0.7561462E-02  0.1154708E+00
          1   -1    0    0  501    0  0.00000000000E+00  0.00000000000E+00  0.40911093215E+03  0.40911093215E+03  0.00000000000E+00 0. -1.
         -1   -1    0    0    0  501 -0.00000000000E+00 -0.00000000000E+00 -0.11145361884E+03  0.11145361884E+03  0.00000000000E+00 0.  1.
         25    2    1    2    0    0  0.91299467259E+02 -0.14739899468E+03  0.80469496539E+02  0.22844201039E+03  0.12509338865E+03 0.  0.
          5    1    3    3  502    0 -0.13444078071E+02  0.47665820012E+01  0.35184555315E+02  0.38195403806E+02  0.41800000000E+01 0. -1.
         -5    1    3    3    0  502  0.10474354533E+03 -0.15216557668E+03  0.45284941224E+02  0.19024660658E+03  0.41800000000E+01 0. -1.
        -11    1    1    2    0    0 -0.86320136184E+02  0.69712120084E+02  0.89396665834E+02  0.14248757651E+03  0.00000000000E+00 0.  1.
         11    1    1    2    0    0 -0.49793310754E+01  0.77686874597E+02  0.12779115093E+03  0.14963496409E+03  0.00000000000E+00 0. -1.
</event>
<event>
 7    1  0.2693725E-009  0.1305488E+03  0.7561462E-02  0.1226644E+00
          2   -1    0    0  501    0  0.00000000000E+00  0.00000000000E+00  0.14659254302E+04  0.14659254302E+04  0.00000000000E+00 0. -1.
         -2   -1    0    0    0  501 -0.00000000000E+00 -0.00000000000E+00 -0.17120889717E+02  0.17120889717E+02  0.00000000000E+00 0.  1.
         25    2    1    2    0    0 -0.73495511090E+02  0.33398639401E+02  0.11551034543E+04  0.11646579515E+04  0.12508834733E+03 0.  0.
          5    1    3    3  502    0 -0.87440195423E+02  0.68304599558E+02  0.85297180588E+03  0.86016840219E+03  0.41800000000E+01 0.  1.
         -5    1    3    3    0  502  0.13944684333E+02 -0.34905960156E+02  0.30213164838E+03  0.30448954929E+03  0.41800000000E+01 0.  1.
        -11    1    1    2    0    0  0.54715379909E+02 -0.59016626404E+02  0.25958583570E+03  0.27177479847E+03  0.00000000000E+00 0. -1.
         11    1    1    2    0    0  0.18780131181E+02  0.25617987003E+02  0.34115250486E+02  0.46613569923E+02  0.00000000000E+00 0.  1.
</event>
<event>
 7    1  0.2693725E-009  0.1050875E+03  0.7561462E-02  0.1269947E+00
         -2   -1    0    0    0  501 -0.00000000000E+00  0.00000000000E+00  0.44816582829E+02  0.44816582829E+02  0.00000000000E+00 0. -1.
          2   -1    0    0  501    0  0.00000000000E+00 -0.00000000000E+00 -0.34587259857E+03  0.34587259857E+03  0.00000000000E+00 0.  1.
         25    2    1    2    0    0 -0.16190455339E+02  0.31216410349E+02 -0.24082135504E+03  0.27364106300E+03  0.12509161122E+03 0.  0.
          5    1    3    3  502    0 -0.55099867636E+02  0.49638824179E+02 -0.20307618374E+03  0.21623463432E+03  0.41800000000E+01 0. -1.
         -5    1    3    3    0  502  0.38909412297E+02 -0.18422413830E+02 -0.37745171296E+02  0.57406428672E+02  0.41800000000E+01 0. -1.
        -11    1    1    2    0    0 -0.28093534677E+02  0.12197902194E+02 -0.42798611547E+02  0.52628477642E+02  0.00000000000E+00 0.  1.
         11    1    1    2    0    0  0.44283990016E+02 -0.43414312543E+02 -0.17436049157E+02  0.64419640759E+02  0.00000000000E+00 0. -1.
</event>
<event>
 7    1  0.2693725E-009  0.2488283E+03  0.7561462E-02  0.1114048E+00
          2   -1    0    0  501    0  0.00000000000E+00  0.00000000000E+00  0.61417473392E+03  0.61417473392E+03  0.00000000000E+00 0. -1.
         -2   -1    0    0    0  501 -0.00000000000E+00 -0.00000000000E+00 -0.13508550688E+03  0.13508550688E+03  0.00000000000E+00 0.  1.
         25    2    1    2    0    0  0.95513416153E+02  0.22276046963E+03  0.99808401716E+02  0.29043966799E+03  0.12509374164E+03 0.  0.
          5    1    3    3  502    0  0.62085162251E+02  0.13110858711E+03 -0.75426140219E+01  0.14532168596E+03  0.41800000000E+01 0.  1.
         -5    1    3    3    0  502  0.33428253902E+02  0.91651882520E+02  0.10735101574E+03  0.14511798203E+03  0.41800000000E+01 0.  1.
        -11    1    1    2    0    0 -0.21422813562E+02 -0.14830816075E+03  0.25817793191E+03  0.29851313541E+03  0.00000000000E+00 0.  1.
         11    1    1    2    0    0 -0.74090602591E+02 -0.74452308880E+02  0.12110289341E+03  0.16030743739E+03  0.00000000000E+00 0. -1.
</event>
<event>
 7    1  0.4168131E-009  0.1030027E+03  0.7561462E-02  0.1274105E+00
          2   -1    0    0  501    0  0.00000000000E+00  0.00000000000E+00  0.77618658406E+03  0.77618658406E+03  0.00000000000E+00 0. -1.
         -2   -1    0    0    0  501 -0.00000000000E+00 -0.00000000000E+00 -0.26554643190E+02  0.26554643190E+02  0.00000000000E+00 0.  1.
         25    2    1    2    0    0 -0.53113581686E+02 -0.52088660434E+02  0.56823115067E+03  0.58657299156E+03  0.12508778011E+03 0.  0.
          5    1    3    3  502    0  0.17977672216E+02 -0.55759665939E+02  0.13099402496E+03  0.14355920040E+03  0.41800000000E+01 0. -1.
         -5    1    3    3    0  502 -0.71091253902E+02  0.36710055050E+01  0.43723712570E+03  0.44301379116E+03  0.41800000000E+01 0. -1.
        -11    1    1    2    0    0  0.29115398867E+02  0.17854474645E+02  0.16920552669E+03  0.17261807257E+03  0.00000000000E+00 0. -1.
         11    1    1    2    0    0  0.23998182819E+02  0.34234185789E+02  0.12195263510E+02  0.43550163115E+02  0.00000000000E+00 0.  1.
</event>
<event>
 7    1  0.2693725E-009  0.1415132E+03  0.7561462E-02  0.1211307E+00
         -1   -1    0    0    0  501 -0.00000000000E+00  0.00000000000E+00  0.51999147925E+02  0.51999147925E+02  0.00000000000E+00 0.  1.
          1   -1    0    0  501    0  0.00000000000E+00 -0.00000000000E+00 -0.68052241195E+03  0.68052241195E+03  0.00000000000E+00 0. -1.
         25    2    1    2    0    0 -0.49190519114E+02  0.12091592717E+03 -0.17247301817E+03  0.24987352769E+03  0.12509783862E+03 0.  0.
          5    1    3    3  502    0 -0.78445248955E+01  0.38945758899E+01 -0.11079425783E+03  0.11121845287E+03  0.41800000000E+01 0. -1.
         -5    1    3    3    0  502 -0.41345994218E+02  0.11702135128E+03 -0.61678760341E+02  0.13865507481E+03  0.41800000000E+01 0. -1.
        -11    1    1    2    0    0 -0.16787244923E+02 -0.47775849551E+02 -0.86861653995E+02  0.10054496669E+03  0.00000000000E+00 0.  1.
         11    1    1    2    0    0  0.65977764036E+02 -0.73140077622E+02 -0.36918859187E+03  0.38210306550E+03  0.00000000000E+00 0. -1.
</event>
<event>
 7    1  0.2693725E-009  0.6116040E+02  0.7561462E-02  0.1393026E+00
         -1   -1    0    0    0  501 -0.00000000000E+00  0.00000000000E+00  0.55029659968E+03  0.55029659968E+03  0.00000000000E+00 0.  1.
          1   -1    0    0  501    0  0.00000000000E+00 -0.00000000000E+00 -0.21159615080E+02  0.21159615080E+02  0.00000000000E+00 0. -1.
         25    2    1    2    0    0 -0.71157598223E+01  0.27466678063E+02  0.31762828544E+03  0.34254954639E+03  0.12508961417E+03 0.  0.
          5    1    3    3  502    0  0.32329498371E+01  0.44851574101E+02  0.31867946026E+03  0.32186361468E+03  0.41800000000E+01 0. -1.
         -5    1    3    3    0  502 -0.10348709659E+02 -0.17384896038E+02 -0.10511748199E+01  0.20685931702E+02  0.41800000000E+01 0. -1.
        -11    1    1    2    0    0 -0.11143400924E+02 -0.35012367588E+02  0.20475761170E+03  0.20802817314E+03  0.00000000000E+00 0.  1.
         11    1    1    2    0    0  0.18259160747E+02  0.75456895250E+01  0.67510874547E+01  0.20878495238E+02  0.00000000000E+00 0. -1.
</event>
<event>
 7    1  0.2693725E-009  0.1406600E+03  0.7561462E-02  0.1212444E+00
         -1   -1    0    0    0  501 -0.00000000000E+00  0.00000000000E+00  0.26668957040E+02  0.26668957040E+02  0.00000000000E+00 0.  1.
          1   -1    0    0  501    0  0.00000000000E+00 -0.00000000000E+00 -0.84208104246E+03  0.84208104246E+03  0.00000000000E+00 0. -1.
         25    2    1    2    0    0 -0.79229096782E+02 -0.64584680139E+02 -0.45748137543E+03  0.48516535010E+03  0.12509107636E+03 0.  0.
          5    1    3    3  502    0 -0.10474293188E+03 -0.64666560318E+02 -0.43059840787E+03  0.44786751061E+03  0.41800000000E+01 0. -1.
         -5    1    3    3    0  502  0.25513835094E+02  0.81880179024E-01 -0.26882967565E+02  0.37297839490E+02  0.41800000000E+01 0. -1.
        -11    1    1    2    0    0  0.12354511544E+02  0.64245389371E+02 -0.12294464047E+03  0.13926768696E+03  0.00000000000E+00 0.  1.
         11    1    1    2    0    0  0.66874585238E+02  0.33929076726E+00 -0.23498606952E+03  0.24431696244E+03  0.00000000000E+00 0. -1.
</event>
<event>
 7    1  0.2693725E-009  0.1396609E+03  0.7561462E-02  0.1213786E+00
          3   -1    0    0  501    0  0.00000000000E+00  0.00000000000E+00  0.50550429766E+02  0.50550429766E+02  0.00000000000E+00 0. -1.
         -3   -1    0    0    0  501 -0.00000000000E+00 -0.00000000000E+00 -0.41936677851E+03  0.41936677851E+03  0.00000000000E+00 0.  1.
         25    2    1    2    0    0  0.81650496631E+02  0.32569649372E+02 -0.26438149728E+03  0.30540389790E+03  0.12508548713E+03 0.  0.
          5    1    3    3  502    0  0.62765196645E+02  0.79721750101E+02 -0.18583990899E+03  0.21177575764E+03  0.41800000000E+01 0.  1.
         -5    1    3    3    0  502  0.18885299986E+02 -0.47152100729E+02 -0.78541588289E+02  0.93628140266E+02  0.41800000000E+01 0.  1.
        -11    1    1    2    0    0  0.17100625224E+01 -0.42787478227E+02 -0.40763450778E+02  0.59121498004E+02  0.00000000000E+00 0.  1.
         11    1    1    2    0    0 -0.83360559153E+02  0.10217828856E+02 -0.63671400681E+02  0.10539181237E+03  0.00000000000E+00 0. -1.
</event>
<event>
 7    1  0.2693725E-009  0.1685335E+03  0.7561462E-02  0.1179386E+00
          1   -1    0    0  501    0  0.00000000000E+00  0.00000000000E+00  0.40865092046E+03  0.40865092046E+03  0.00000000000E+00 0. -1.
         -1   -1    0    0    0  501 -0.00000000000E+00 -0.00000000000E+00 -0.10996093377E+03  0.10996093377E+03  0.00000000000E+00 0.  1.
         25    2    1    2    0    0  0.14185113705E+03  0.49415546475E+02  0.28188827898E+03  0.34303428886E+03  0.12509148729E+03 0.  0.
          5    1    3    3  502    0  0.98832927974E+02  0.63105625211E+02  0.95724868068E+02  0.15142981989E+03  0.41800000000E+01 0.  1.
         -5    1    3    3    0  502  0.43018209077E+02 -0.13690078736E+02  0.18616341091E+03  0.19160446898E+03  0.41800000000E+01 0.  1.
        -11    1    1    2    0    0 -0.11861575352E+03 -0.74602919177E+02  0.88867544199E+01  0.14040750314E+03  0.00000000000E+00 0. -1.
         11    1    1    2    0    0 -0.23235383526E+02  0.25187372702E+02  0.79149532959E+01  0.35170062225E+02  0.00000000000E+00 0.  1.
</event>
<event>
 7    1  0.2693725E-009  0.1669595E+03  0.7561462E-02  0.1181056E+00
          4   -1    0    0  501    0  0.00000000000E+00  0.00000000000E+00  0.48627791296E+03  0.48627791296E+03  0.00000000000E+00 0. -1.
         -4   -1    0    0    0  501 -0.00000000000E+00 -0.00000000000E+00 -0.71887864075E+02  0.71887864075E+02  0.00000000000E+00 0.  1.
         25    2    1    2    0    0 -0.43082158159E+02 -0.13697753716E+03  0.16478448009E+03  0.25183692747E+03  0.12509594366E+03 0.  0.
          5    1    3    3  502    0 -0.19247804297E+02 -0.15600780984E+03  0.12148015006E+03  0.19870534457E+03  0.41800000000E+01 0.  1.
         -5    1    3    3    0  502 -0.23834353861E+02  0.19030272678E+02  0.43304330030E+02  0.53131582901E+02  0.41800000000E+01 0.  1.
        -11    1    1    2    0    0  0.27359049194E+02  0.11854146334E+03  0.10804420118E+03  0.16270877516E+03  0.00000000000E+00 0.  1.
         11    1    1    2    0    0  0.15723108965E+02  0.18436073817E+02  0.14156136762E+03  0.14362007441E+03  0.00000000000E+00 0. -1.
</event>
<event>
 7    1  0.2693725E-009  0.1113948E+03  0.7561462E-02  0.1258009E+00
          3   -1    0    0  501    0  0.00000000000E+00  0.00000000000E+00  0.18100640511E+03  0.18100640511E+03  0.00000000000E+00 0. -1.
         -3   -1    0    0    0  501 -0.00000000000E+00 -0.00000000000E+00 -0.92430792810E+02  0.92430792810E+02  0.00000000000E+00 0.  1.
         25    2    1    2    0    0  0.15941541433E+01  0.40381922672E+02  0.10561196076E+03  0.16862485632E+03  0.12508882807E+03 0.  0.
          5    1    3    3  502    0 -0.56881618094E+02  0.44353894739E+02  0.51317075547E+02  0.88621109778E+02  0.41800000000E+01 0.  1.
         -5    1    3    3    0  502  0.58475772237E+02 -0.39719720667E+01  0.54294885208E+02  0.80003746541E+02  0.41800000000E+01 0.  1.
        -11    1    1    2    0    0 -0.38892974658E+02 -0.30587557499E+01 -0.31452585788E+02  0.50112719117E+02  0.00000000000E+00 0.  1.
         11    1    1    2    0    0  0.37298820515E+02 -0.37323166922E+02  0.14416237330E+02  0.54699622482E+02  0.00000000000E+00 0. -1.
</event>
<event>
 7    1  0.2693725E-009  0.8958655E+02  0.7561462E-02  0.1303856E+00
          4   -1    0    0  501    0  0.00000000000E+00  0.00000000000E+00  0.12539392287E+03  0.12539392287E+03  0.00000000000E+00 0. -1.
         -4   -1    0    0    0  501 -0.00000000000E+00 -0.00000000000E+00 -0.13054897795E+03  0.13054897795E+03  0.00000000000E+00 0.  1.
         25    2    1    2    0    0 -0.51845882547E+02  0.38115276360E+02  0.18274258115E+02  0.14185425492E+03  0.12509161163E+03 0.  0.
          5    1    3    3  502    0 -0.71935760997E+02  0.30147659089E+02 -0.33958812368E+02  0.85172227846E+02  0.41800000000E+01 0. -1.
         -5    1    3    3    0  502  0.20089878450E+02  0.79676172714E+01  0.52233070484E+02  0.56682027074E+02  0.41800000000E+01 0. -1.
        -11    1    1    2    0    0  0.26591619986E+02 -0.45533461657E+02 -0.52819836503E+02  0.74634747351E+02  0.00000000000E+00 0.  1.
         11    1    1    2    0    0  0.25254262561E+02  0.74181852973E+01  0.29390523302E+02  0.39453898547E+02  0.00000000000E+00 0. -1.
</event>
<event>
 7    1  0.2693725E-009  0.2694189E+03  0.7561462E-02  0.1101613E+00
          2   -1    0    0  501    0  0.00000000000E+00  0.00000000000E+00  0.12313004168E+04  0.12313004168E+04  0.00000000000E+00 0.  1.
         -2   -1    0    0    0  501 -0.00000000000E+00 -0.00000000000E+00 -0.74508909761E+02  0.74508909761E+02  0.00000000000E+00 0. -1.
         25    2    1    2    0    0 -0.93667040474E+01  0.25583337239E+03  0.84695438647E+03  0.89359857063E+03  0.12509285789E+03 0.  0.
          5    1    3    3  502    0 -0.50956263506E+02  0.22149826196E+03  0.73332499331E+03  0.76775063599E+03  0.41800000000E+01 0. -1.
         -5    1    3    3    0  502  0.41589559459E+02  0.34335110427E+02  0.11362939315E+03  0.12584793464E+03  0.41800000000E+01 0. -1.
        -11    1    1    2    0    0 -0.66331296382E+01 -0.16881407474E+03  0.26167458419E+03  0.31147355947E+03  0.00000000000E+00 0.  1.
         11    1    1    2    0    0  0.15999833686E+02 -0.87019297649E+02  0.48162536390E+02  0.10073719647E+03  0.00000000000E+00 0. -1.
</event>
<event>
 7    1  0.2693725E-009  0.1141846E+03  0.7561462E-02  0.1253011E+00
          2   -1    0    0  501    0  0.00000000000E+00  0.00000000000E+00  0.49830417348E+03  0.49830417348E+03  0.00000000000E+00 0. -1.
         -2   -1    0    0    0  501 -0.00000000000E+00 -0.00000000000E+00 -0.32938428369E+02  0.32938428369E+02  0.00000000000E+00 0.  1.
         25    2    1    2    0    0 -0.50586705309E+02 -0.14598960196E+02  0.17239477283E+03  0.21940897659E+03  0.12509275326E+03 0.  0.
          5    1    3    3  502    0 -0.86738627375E+02 -0.10194049922E+02  0.15688454337E+03  0.17960439995E+03  0.41800000000E+01 0.  1.
         -5    1    3    3    0  502  0.36151922066E+02 -0.44049102736E+01  0.15510229455E+02  0.39804576638E+02  0.41800000000E+01 0.  1.
        -11    1    1    2    0    0  0.39165173246E+02  0.52039846976E+02  0.21402630804E+03  0.22371704674E+03  0.00000000000E+00 0.  1.
         11    1    1    2    0    0  0.11421532063E+02 -0.37440886780E+02  0.78944664250E+02  0.88116578526E+02  0.00000000000E+00 0. -1.
</event>
<event>
 7    1  0.3895721E-009  0.9569154E+02  0.7561462E-02  0.1289626E+00
         -1   -1    0    0    0  501 -0.00000000000E+00  0.00000000000E+00  0.83752995081E+02  0.83752995081E+02  0.00000000000E+00 0.  1.
          1   -1    0    0  501    0  0.00000000000E+00 -0.00000000000E+00 -0.18946109511E+03  0.18946109511E+03  0.00000000000E+00 0. -1.
         25    2    1    2    0    0  0.27283275599E+02  0.53279324007E+02 -0.82410952394E+02  0.16131353063E+03  0.12508967422E+03 0.  0.
          5    1    3    3  502    0  0.67715593544E+02  0.21239567233E+02 -0.83347325220E+02  0.10954802530E+03  0.41800000000E+01 0.  1.
         -5    1    3    3    0  502 -0.40432317945E+02  0.32039756775E+02  0.93637282508E+00  0.51765505336E+02  0.41800000000E+01 0.  1.
        -11    1    1    2    0    0 -0.34277569199E+02 -0.35121139628E+02  0.28373235369E+02  0.56687623731E+02  0.00000000000E+00 0.  1.
         11    1    1    2    0    0  0.69942936001E+01 -0.18158184380E+02 -0.51670383004E+02  0.55212935827E+02  0.00000000000E+00 0. -1.
</event>
<event>
 7    1  0.2693725E-009  0.1374186E+03  0.7561462E-02  0.1216845E+00
         -2   -1    0    0    0  501 -0.00000000000E+00  0.00000000000E+00  0.26690901265E+02  0.26690901265E+02  0.00000000000E+00 0.  1.
          2   -1    0    0  501    0  0.00000000000E+00 -0.00000000000E+00 -0.12479333950E+04  0.12479333950E+04  0.00000000000E+00 0. -1.
         25    2    1    2    0    0  0.12276204176E+03  0.63549563439E+01 -0.91503122213E+03  0.93168700053E+03  0.12509046768E+03 0.  0.
          5    1    3    3  502    0  0.12373890618E+03  0.29751127467E+02 -0.49947246097E+03  0.51544801693E+03  0.41800000000E+01 0. -1.
         -5    1    3    3    0  502 -0.97686442194E+00 -0.23396171123E+02 -0.41555876116E+03  0.41623898359E+03  0.41800000000E+01 0. -1.
        -11    1    1    2    0    0 -0.59902402504E+02  0.38856236067E+01 -0.47632155762E+02  0.76630399706E+02  0.00000000000E+00 0.  1.
         11    1    1    2    0    0 -0.62859639255E+02 -0.10240579951E+02 -0.25857911579E+03  0.26630689598E+03  0.00000000000E+00 0. -1.
</event>
<event>
 7    1  0.2693725E-009  0.1422062E+03  0.7561462E-02  0.1210391E+00
          2   -1    0    0  501    0  0.00000000000E+00  0.00000000000E+00  0.80444841269E+02  0.80444841269E+02  0.00000000000E+00 0. -1.
         -2   -1    0    0    0  501 -0.00000000000E+00 -0.00000000000E+00 -0.27739051241E+03  0.27739051241E+03  0.00000000000E+00 0.  1.
         25    2    1    2    0    0  0.85986435561E+02 -0.51849579690E+02 -0.12862059737E+03  0.20560541757E+03  0.12509309993E+03 0.  0.
          5    1    3    3  502    0 -0.32214894031E+02 -0.18884236666E+02 -0.32297980786E+02  0.49548418287E+02  0.41800000000E+01 0.  1.
         -5    1    3    3    0  502  0.11820132959E+03 -0.32965343024E+02 -0.96322616586E+02  0.15605699928E+03  0.41800000000E+01 0.  1.
        -11    1    1    2    0    0 -0.69958139088E+02  0.18308657357E+00 -0.68816689985E+02  0.98132112817E+02  0.00000000000E+00 0. -1.
         11    1    1    2    0    0 -0.16028296473E+02  0.51666493116E+02  0.49161621579E+00  0.54097823295E+02  0.00000000000E+00 0.  1.
</event>
<event>
 7    1  0.2693725E-009  0.1115141E+03  0.7561462E-02  0.1257791E+00
         -3   -1    0    0    0  501 -0.00000000000E+00  0.00000000000E+00  0.26010702408E+03  0.26010702408E+03  0.00000000000E+00 0.  1.
          3   -1    0    0  501    0  0.00000000000E+00 -0.00000000000E+00 -0.49571668558E+02  0.49571668558E+02  0.00000000000E+00 0. -1.
         25    2    1    2    0    0  0.23372034585E+02 -0.25930578879E+02  0.12927060710E+03  0.18324113512E+03  0.12509107409E+03 0.  0.
          5    1    3    3  502    0 -0.28033742395E+02  0.38175932318E+02  0.45025166237E+02  0.65483055180E+02  0.41800000000E+01 0. -1.
         -5    1    3    3    0  502  0.51405776980E+02 -0.64106511197E+02  0.84245440867E+02  0.11775807994E+03  0.41800000000E+01 0. -1.
        -11    1    1    2    0    0 -0.55190550583E+02  0.26840669677E+02  0.36160139871E+02  0.71231833740E+02  0.00000000000E+00 0. -1.
         11    1    1    2    0    0  0.31818515998E+02 -0.91009079808E+00  0.45104608547E+02  0.55205723778E+02  0.00000000000E+00 0.  1.
</event>
<event>
 7    1  0.2693725E-009  0.2112507E+03  0.7561462E-02  0.1140579E+00
          2   -1    0    0  501    0  0.00000000000E+00  0.00000000000E+00  0.10911771658E+03  0.10911771658E+03  0.00000000000E+00 0. -1.
         -2   -1    0    0    0  501 -0.00000000000E+00 -0.00000000000E+00 -0.45390380705E+03  0.45390380705E+03  0.00000000000E+00 0.  1.
         25    2    1    2    0    0 -0.14222557595E+03  0.11171119079E+03 -0.90304880939E+02  0.23771793663E+03  0.12508933317E+03 0.  0.
          5    1    3    3  502    0 -0.52353094546E+02  0.11852499410E+03 -0.51305928459E+02  0.13942306635E+03  0.41800000000E+01 0. -1.
         -5    1    3    3    0  502 -0.89872481400E+02 -0.68138033104E+01 -0.38998952480E+02  0.98294870278E+02  0.41800000000E+01 0. -1.
        -11    1    1    2    0    0  0.12635125384E+03 -0.12802264102E+03 -0.22536423071E+03  0.28834609837E+03  0.00000000000E+00 0.  1.
         11    1    1    2    0    0  0.15874322105E+02  0.16311450231E+02 -0.29116978817E+02  0.36957488637E+02  0.00000000000E+00 0. -1.
</event>
<event>
 7    1  0.2693725E-009  0.1340136E+03  0.7561462E-02  0.1221619E+00
          2   -1    0    0  501    0  0.00000000000E+00  0.00000000000E+00  0.89462173985E+03  0.89462173985E+03  0.00000000000E+00 0. -1.
         -2   -1    0    0    0  501 -0.00000000000E+00 -0.00000000000E+00 -0.24264883324E+02  0.24264883324E+02  0.00000000000E+00 0.  1.
         25    2    1    2    0    0  0.21301581796E+01  0.10310659173E+03  0.44792958468E+03  0.47636551467E+03  0.12509070270E+03 0.  0.
          5    1    3    3  502    0 -0.13010437501E+02 -0.21470611233E+02  0.16328650098E+03  0.16525801776E+03  0.41800000000E+01 0.  1.
         -5    1    3    3    0  502  0.15140595680E+02  0.12457720297E+03  0.28464308370E+03  0.31110749691E+03  0.41800000000E+01 0.  1.
        -11    1    1    2    0    0 -0.28711550220E+02 -0.55602744926E+02  0.12106403903E+03  0.13628103281E+03  0.00000000000E+00 0.  1.
         11    1    1    2    0    0  0.26581392040E+02 -0.47503846807E+02  0.30136323282E+03  0.30624007569E+03  0.00000000000E+00 0. -1.
</event>
<event>
 7    1  0.2693725E-009  0.2478372E+03  0.7561462E-02  0.1114679E+00
         -2   -1    0    0    0  501 -0.00000000000E+00  0.00000000000E+00  0.63298089589E+02  0.63298089589E+02  0.00000000000E+00 0.  1.
          2   -1    0    0  501    0  0.00000000000E+00 -0.00000000000E+00 -0.10393036961E+04  0.10393036961E+04  0.00000000000E+00 0. -1.
         25    2    1    2    0    0  0.73821313569E+02 -0.21094498838E+03 -0.36638904933E+03  0.44702814479E+03  0.12508338142E+03 0.  0.
          5    1    3    3  502    0  0.10778866730E+03 -0.13945929544E+03 -0.23895116197E+03  0.29695525267E+03  0.41800000000E+01 0.  1.
         -5    1    3    3    0  502 -0.33967353730E+02 -0.71485692939E+02 -0.12743788736E+03  0.15007289212E+03  0.41800000000E+01 0.  1.
        -11    1    1    2    0    0 -0.29776509153E+02  0.18819642540E+03 -0.45779020701E+03  0.49585926296E+03  0.00000000000E+00 0. -1.
         11    1    1    2    0    0 -0.44044804416E+02  0.22748562980E+02 -0.15182635016E+03  0.15971437793E+03  0.00000000000E+00 0.  1.
</event>
<event>
 7    1  0.2693725E-009  0.1890617E+03  0.7561462E-02  0.1159310E+00
         -2   -1    0    0    0  501 -0.00000000000E+00  0.00000000000E+00  0.17157403116E+02  0.17157403116E+02  0.00000000000E+00 0.  1.
          2   -1    0    0  501    0  0.00000000000E+00 -0.00000000000E+00 -0.24362138755E+04  0.24362138755E+04  0.00000000000E+00 0. -1.
         25    2    1    2    0    0 -0.17807267687E+02 -0.16137395750E+03 -0.16126341858E+04  0.16256060529E+04  0.12508944537E+03 0.  0.
          5    1    3    3  502    0 -0.45627154573E+02 -0.15551056935E+02 -0.62478115862E+03  0.62665192984E+03  0.41800000000E+01 0. -1.
         -5    1    3    3    0  502  0.27819886886E+02 -0.14582290056E+03 -0.98785302714E+03  0.99895412310E+03  0.41800000000E+01 0. -1.
        -11    1    1    2    0    0  0.46804657371E+02  0.13155401235E+03 -0.69370518546E+03  0.70761855434E+03  0.00000000000E+00 0. -1.
         11    1    1    2    0    0 -0.28997389685E+02  0.29819945148E+02 -0.11271710120E+03  0.12014667136E+03  0.00000000000E+00 0.  1.
</event>
<event>
 7    1  0.2693725E-009  0.1185101E+03  0.7561462E-02  0.1245575E+00
         -1   -1    0    0    0  501 -0.00000000000E+00  0.00000000000E+00  0.38872384974E+02  0.38872384974E+02  0.00000000000E+00 0.  1.
          1   -1    0    0  501    0  0.00000000000E+00 -0.00000000000E+00 -0.64562724884E+03  0.64562724884E+03  0.00000000000E+00 0. -1.
         25    2    1    2    0    0 -0.93305778704E+02 -0.64532719262E+02 -0.30027900544E+03  0.34450491416E+03  0.12508283086E+03 0.  0.
          5    1    3    3  502    0 -0.43617898058E+02 -0.18025331555E+02 -0.12840393445E+02  0.49089527524E+02  0.41800000000E+01 0. -1.
         -5    1    3    3    0  502 -0.49687880645E+02 -0.46507387707E+02 -0.28743861199E+03  0.29541538663E+03  0.41800000000E+01 0. -1.
        -11    1    1    2    0    0  0.27872716367E+02 -0.22439008143E+01 -0.10945250929E+02  0.30028685060E+02  0.00000000000E+00 0.  1.
         11    1    1    2    0    0  0.65433062336E+02  0.66776620076E+02 -0.29553060750E+03  0.30996603460E+03  0.00000000000E+00 0. -1.
</event>
<event>
 7    1  0.2693725E-009  0.2314674E+03  0.7561462E-02  0.1125611E+00
         -4   -1    0    0    0  501 -0.00000000000E+00  0.00000000000E+00  0.25391727435E+03  0.25391727435E+03  0.00000000000E+00 0.  1.
          4   -1    0    0  501    0  0.00000000000E+00 -0.00000000000E+00 -0.34293192078E+03  0.34293192078E+03  0.00000000000E+00 0. -1.
         25    2    1    2    0    0 -0.26554277888E+02  0.22714106882E+03 -0.19882263963E+03  0.32783557321E+03  0.12509007242E+03 0.  0.
          5    1    3    3  502    0 -0.39328133835E+02  0.17422743377E+03 -0.20610155295E+03  0.27275854398E+03  0.41800000000E+01 0.  1.
         -5    1    3    3    0  502  0.12773855947E+02  0.52913635044E+02  0.72789133186E+01  0.55077029227E+02  0.41800000000E+01 0.  1.
        -11    1    1    2    0    0  0.29838740072E+01 -0.11736612451E+03  0.83731463679E+01  0.11770225259E+03  0.00000000000E+00 0.  1.
         11    1    1    2    0    0  0.23570403881E+02 -0.10977494431E+03  0.10143484683E+03  0.15131136933E+03  0.00000000000E+00 0. -1.
</event>
<event>
 7    1  0.2693725E-009  0.8860150E+02  0.7561462E-02  0.1306274E+00
         -3   -1    0    0    0  501 -0.00000000000E+00  0.00000000000E+00  0.62850963658E+02  0.62850963658E+02  0.00000000000E+00 0.  1.
          3   -1    0    0  501    0  0.00000000000E+00 -0.00000000000E+00 -0.24970519955E+03  0.24970519955E+03  0.00000000000E+00 0. -1.
         25    2    1    2    0    0 -0.58168879038E+02  0.22023375995E+02 -0.88723242363E+02  0.16549398148E+03  0.12509115313E+03 0.  0.
          5    1    3    3  502    0 -0.74508584622E+02  0.24051849519E+02 -0.33824217134E+01  0.78478875019E+02  0.41800000000E+01 0.  1.
         -5    1    3    3    0  502  0.16339705583E+02 -0.20284735247E+01 -0.85340820649E+02  0.87015106462E+02  0.41800000000E+01 0.  1.
        -11    1    1    2    0    0  0.25343435632E+02 -0.37704954059E+02 -0.33669962971E+01  0.45555350447E+02  0.00000000000E+00 0.  1.
         11    1    1    2    0    0  0.32825443406E+02  0.15681578065E+02 -0.94763997233E+02  0.10150683128E+03  0.00000000000E+00 0. -1.
</event>
<event>
 7    1  0.2693725E-009  0.7536856E+02  0.7561462E-02  0.1342733E+00
         -2   -1    0    0    0  501 -0.00000000000E+00  0.00000000000E+00  0.10255373227E+03  0.10255373227E+03  0.00000000000E+00 0.  1.
          2   -1    0    0  501    0  0.00000000000E+00 -0.00000000000E+00 -0.19600966685E+03  0.19600966685E+03  0.00000000000E+00 0. -1.
         25    2    1    2    0    0  0.26836362100E+02  0.83325604666E+01 -0.14099690636E+03  0.19057105734E+03  0.12509028098E+03 0.  0.
          5    1    3    3  502    0  0.13674507989E+02  0.34728166421E+02 -0.15367346670E+03  0.15819622144E+03  0.41800000000E+01 0.  1.
         -5    1    3    3    0  502  0.13161854111E+02 -0.26395605954E+02  0.12676560333E+02  0.32374835895E+02  0.41800000000E+01 0.  1.
        -11    1    1    2    0    0  0.17811503359E+02 -0.29124139672E+02 -0.66322575470E+01  0.34777176476E+02  0.00000000000E+00 0. -1.
         11    1    1    2    0    0 -0.44647865459E+02  0.20791579205E+02  0.54173229328E+02  0.73215165312E+02  0.00000000000E+00 0.  1.
</event>
<event>
 7    1  0.2693725E-009  0.8016630E+02  0.7561462E-02  0.1328580E+00
          2   -1    0    0  501    0  0.00000000000E+00  0.00000000000E+00  0.52511102232E+02  0.52511102232E+02  0.00000000000E+00 0. -1.
         -2   -1    0    0    0  501 -0.00000000000E+00 -0.00000000000E+00 -0.32510182490E+03  0.32510182490E+03  0.00000000000E+00 0.  1.
         25    2    1    2    0    0  0.34951108927E+02 -0.63479016468E+02 -0.16303530992E+03  0.21790267821E+03  0.12509955772E+03 0.  0.
          5    1    3    3  502    0  0.36526666142E+02 -0.28258088875E+02 -0.17453020288E+03  0.18058510748E+03  0.41800000000E+01 0. -1.
         -5    1    3    3    0  502 -0.15755572145E+01 -0.35220927594E+02  0.11494892955E+02  0.37317570729E+02  0.41800000000E+01 0. -1.
        -11    1    1    2    0    0 -0.32945626262E+02  0.28907863831E+02 -0.11642868439E+03  0.12440545578E+03  0.00000000000E+00 0.  1.
         11    1    1    2    0    0 -0.20054826651E+01  0.34571152638E+02  0.68732716431E+01  0.35304793138E+02  0.00000000000E+00 0. -1.
</event>
<event>
 7    1  0.2693725E-009  0.1082258E+03  0.7561462E-02  0.1263891E+00
         -1   -1    0    0    0  501 -0.00000000000E+00  0.00000000000E+00  0.45487814989E+02  0.45487814989E+02  0.00000000000E+00 0.  1.
          1   -1    0    0  501    0  0.00000000000E+00 -0.00000000000E+00 -0.49600223334E+03  0.49600223334E+03  0.00000000000E+00 0. -1.
         25    2    1    2    0    0  0.50270182029E+02  0.17046983139E+02 -0.40034713873E+03  0.42277984550E+03  0.12508907001E+03 0.  0.
          5    1    3    3  502    0  0.89384194326E+02 -0.69087951413E+01 -0.27138790370E+03  0.28584284549E+03  0.41800000000E+01 0. -1.
         -5    1    3    3    0  502 -0.39114012298E+02  0.23955778280E+02 -0.12895923504E+03  0.13693700001E+03  0.41800000000E+01 0. -1.
        -11    1    1    2    0    0 -0.38791609632E+02  0.18727302108E+02  0.13190973282E+02  0.45050001090E+02  0.00000000000E+00 0.  1.
         11    1    1    2    0    0 -0.11478572397E+02 -0.35774285247E+02 -0.63358252895E+02  0.73660201732E+02  0.00000000000E+00 0. -1.
</event>
<event>
 7    1  0.2693725E-009  0.1840881E+03  0.7561462E-02  0.1163904E+00
         -1   -1    0    0    0  501 -0.00000000000E+00  0.00000000000E+00  0.30963557299E+03  0.30963557299E+03  0.00000000000E+00 0.  1.
          1   -1    0    0  501    0  0.00000000000E+00 -0.00000000000E+00 -0.12374073520E+03  0.12374073520E+03  0.00000000000E+00 0. -1.
         25    2    1    2    0    0 -0.10324776885E+03 -0.12401103369E+03  0.75107221223E+02  0.21754890869E+03  0.12509034632E+03 0.  0.
          5    1    3    3  502    0 -0.11297882114E+03 -0.40760291699E+02  0.47052044972E+02  0.12906193374E+03  0.41800000000E+01 0. -1.
         -5    1    3    3    0  502  0.97310522853E+01 -0.83250741993E+02  0.28055176251E+02  0.88486974948E+02  0.41800000000E+01 0. -1.
        -11    1    1    2    0    0  0.34502113383E+01  0.18596675250E+02 -0.14692250168E+02  0.23950000076E+02  0.00000000000E+00 0. -1.
         11    1    1    2    0    0  0.99797557516E+02  0.10541435844E+03  0.12547986673E+03  0.19187739942E+03  0.00000000000E+00 0.  1.
</event>
<event>
 7    1  0.2693725E-009  0.2625415E+03  0.7561462E-02  0.1105626E+00
         -2   -1    0    0    0  501 -0.00000000000E+00  0.00000000000E+00  0.15483567096E+03  0.15483567096E+03  0.00000000000E+00 0.  1.
          2   -1    0    0  501    0  0.00000000000E+00 -0.00000000000E+00 -0.51944913283E+03  0.51944913283E+03  0.00000000000E+00 0. -1.
         25    2    1    2    0    0 -0.91277690303E+01 -0.25444008403E+03 -0.11344595844E+03  0.30551658832E+03  0.12508927900E+03 0.  0.
          5    1    3    3  502    0 -0.48180135940E+02 -0.10019284942E+03 -0.93067926270E+02  0.14504841907E+03  0.41800000000E+01 0. -1.
         -5    1    3    3    0  502  0.39052366909E+02 -0.15424723462E+03 -0.20378032166E+02  0.16046816925E+03  0.41800000000E+01 0. -1.
        -11    1    1    2    0    0  0.83284367357E+01  0.15984776236E+03 -0.21375515384E+03  0.26704294745E+03  0.00000000000E+00 0.  1.
         11    1    1    2    0    0  0.79933229456E+00  0.94592321671E+02 -0.37412349601E+02  0.10172526802E+03  0.00000000000E+00 0. -1.
</event>
<event>
 7    1  0.2693725E-009  0.1375740E+03  0.7561462E-02  0.1216631E+00
          1   -1    0    0  501    0  0.00000000000E+00  0.00000000000E+00  0.18499311127E+03  0.18499311127E+03  0.00000000000E+00 0. -1.
         -1   -1    0    0    0  501 -0.00000000000E+00 -0.00000000000E+00 -0.18710659097E+03  0.18710659097E+03  0.00000000000E+00 0.  1.
         25    2    1    2    0    0 -0.74076823799E+02  0.43719770753E+02 -0.12490459394E+03  0.19660155760E+03  0.12510883535E+03 0.  0.
          5    1    3    3  502    0 -0.70890873032E+01  0.75908285275E+02 -0.51776833170E+02  0.92253107185E+02  0.41800000000E+01 0. -1.
         -5    1    3    3    0  502 -0.66987736495E+02 -0.32188514522E+02 -0.73127760775E+02  0.10434845041E+03  0.41800000000E+01 0. -1.
        -11    1    1    2    0    0  0.36722407759E+01  0.25418153080E+02  0.16823496575E+02  0.30701757203E+02  0.00000000000E+00 0.  1.
         11    1    1    2    0    0  0.70404583023E+02 -0.69137923833E+02  0.10596761767E+03  0.14479638744E+03  0.00000000000E+00 0. -1.
</event>
<event>
 7    1  0.2693725E-009  0.1069091E+03  0.7561462E-02  0.1266403E+00
          1   -1    0    0  501    0  0.00000000000E+00  0.00000000000E+00  0.28028034455E+03  0.28028034455E+03  0.00000000000E+00 0. -1.
         -1   -1    0    0    0  501 -0.00000000000E+00 -0.00000000000E+00 -0.65712984534E+02  0.65712984534E+02  0.00000000000E+00 0.  1.
         25    2    1    2    0    0 -0.80301208284E+02  0.11922270193E+02  0.11565975312E+03  0.18871984947E+03  0.12509028146E+03 0.  0.
          5    1    3    3  502    0 -0.77180304301E+02 -0.26615618536E+02  0.18145891087E+02  0.83737305219E+02  0.41800000000E+01 0. -1.
         -5    1    3    3    0  502 -0.31209039832E+01  0.38537888729E+02  0.97513862034E+02  0.10498254425E+03  0.41800000000E+01 0. -1.
        -11    1    1    2    0    0  0.53969616518E+02 -0.29515335353E+02  0.10803183440E+03  0.12431714191E+03  0.00000000000E+00 0. -1.
         11    1    1    2    0    0  0.26331591766E+02  0.17593065160E+02 -0.91242275122E+01  0.32956337696E+02  0.00000000000E+00 0.  1.
</event>
<event>
 7    1  0.2693725E-009  0.1157979E+03  0.7561462E-02  0.1250195E+00
         -2   -1    0    0    0  501 -0.00000000000E+00  0.00000000000E+00  0.19377667656E+03  0.19377667656E+03  0.00000000000E+00 0.  1.
          2   -1    0    0  501    0  0.00000000000E+00 -0.00000000000E+00 -0.10113532061E+03  0.10113532061E+03  0.00000000000E+00 0. -1.
         25    2    1    2    0    0  0.28181520666E+02  0.68645862341E+02 -0.17289780552E+01  0.14545308264E+03  0.12508859804E+03 0.  0.
          5    1    3    3  502    0 -0.79266257168E+01 -0.32669950834E+02  0.14029105299E+02  0.36666678037E+02  0.41800000000E+01 0. -1.
         -5    1    3    3    0  502  0.36108146383E+02  0.10131581318E+03 -0.15758083354E+02  0.10878640460E+03  0.41800000000E+01 0. -1.
        -11    1    1    2    0    0 -0.12456971571E+02  0.59782447193E+01  0.67036410701E+02  0.68445568960E+02  0.00000000000E+00 0.  1.
         11    1    1    2    0    0 -0.15724549095E+02 -0.74624107060E+02  0.27333923298E+02  0.81013345578E+02  0.00000000000E+00 0. -1.
</event>
<event>
 7    1  0.2693725E-009  0.1761621E+03  0.7561462E-02  0.1171570E+00
          1   -1    0    0  501    0  0.00000000000E+00  0.00000000000E+00  0.11676996555E+04  0.11676996555E+04  0.00000000000E+00 0. -1.
         -1   -1    0    0    0  501 -0.00000000000E+00 -0.00000000000E+00 -0.30765442419E+02  0.30765442419E+02  0.00000000000E+00 0.  1.
         25    2    1    2    0    0 -0.17920375228E+02  0.15263181822E+03  0.52867195508E+03  0.56458602554E+03  0.12508290198E+03 0.  0.
          5    1    3    3  502    0 -0.58550928650E+02  0.60468512487E+02  0.14326950131E+03  0.16621755219E+03  0.41800000000E+01 0. -1.
         -5    1    3    3    0  502  0.40630553423E+02  0.92163305734E+02  0.38540245377E+03  0.39836847336E+03  0.41800000000E+01 0. -1.
        -11    1    1    2    0    0 -0.24546914707E+02 -0.72644788022E+02  0.39185191192E+03  0.39928403064E+03  0.00000000000E+00 0. -1.
         11    1    1    2    0    0  0.42467289934E+02 -0.79987030198E+02  0.21641034604E+03  0.23459504169E+03  0.00000000000E+00 0.  1.
</event>
<event>
 7    1  0.2693725E-009  0.1612277E+03  0.7561462E-02  0.1187318E+00
          1   -1    0    0  501    0  0.00000000000E+00  0.00000000000E+00  0.34082691953E+03  0.34082691953E+03  0.00000000000E+00 0. -1.
         -1   -1    0    0    0  501 -0.00000000000E+00 -0.00000000000E+00 -0.10868430423E+03  0.10868430423E+03  0.00000000000E+00 0.  1.
         25    2    1    2    0    0  0.19900717194E+02  0.14689534417E+03  0.18755320061E+03  0.26981164481E+03  0.12509132636E+03 0.  0.
          5    1    3    3  502    0  0.72345190389E+01  0.28458089332E+02  0.13729591783E+03  0.14046295799E+03  0.41800000000E+01 0. -1.
         -5    1    3    3    0  502  0.12666198155E+02  0.11843725484E+03  0.50257282781E+02  0.12934868682E+03  0.41800000000E+01 0. -1.
        -11    1    1    2    0    0 -0.40863225668E+02 -0.14707581146E+03  0.43426804651E+02  0.15870407962E+03  0.00000000000E+00 0.  1.
         11    1    1    2    0    0  0.20962508474E+02  0.18046728226E+00  0.11626100380E+01  0.20995499329E+02  0.00000000000E+00 0. -1.
</event>
<event>
 7    1  0.2693725E-009  0.1130072E+03  0.7561462E-02  0.1255100E+00
          2   -1    0    0  501    0  0.00000000000E+00  0.00000000000E+00  0.52711442795E+03  0.52711442795E+03  0.00000000000E+00 0. -1.
         -2   -1    0    0    0  501 -0.00000000000E+00 -0.00000000000E+00 -0.47312529148E+02  0.47312529148E+02  0.00000000000E+00 0.  1.
         25    2    1    2    0    0  0.43542652880E+02  0.45393121381E+02  0.86180459839E+02  0.16441210835E+03  0.12509105333E+03 0.  0.
          5    1    3    3  502    0 -0.25361230464E+02 -0.17617974295E+02  0.59578093402E+02  0.67235456735E+02  0.41800000000E+01 0. -1.
         -5    1    3    3    0  502  0.68903883344E+02  0.63011095676E+02  0.26602366437E+02  0.97176651611E+02  0.41800000000E+01 0. -1.
        -11    1    1    2    0    0  0.23519075329E+02 -0.13647462797E+02  0.37946174949E+02  0.46683105492E+02  0.00000000000E+00 0.  1.
         11    1    1    2    0    0 -0.67061728209E+02 -0.31745658584E+02  0.35567526401E+03  0.36333174326E+03  0.00000000000E+00 0. -1.
</event>
<event>
 7    1  0.2693725E-009  0.9562085E+02  0.7561462E-02  0.1289784E+00
          3   -1    0    0  501    0  0.00000000000E+00  0.00000000000E+00  0.70964509412E+02  0.70964509412E+02  0.00000000000E+00 0. -1.
         -3   -1    0    0    0  501 -0.00000000000E+00 -0.00000000000E+00 -0.20466739633E+03  0.20466739633E+03  0.00000000000E+00 0.  1.
         25    2    1    2    0    0  0.15122707993E+02 -0.34742759667E+02 -0.88344742952E+02  0.15776079035E+03  0.12509163728E+03 0.  0.
          5    1    3    3  502    0  0.33790109992E+02  0.10455808145E+02  0.18534675678E+02  0.40150990769E+02  0.41800000000E+01 0. -1.
         -5    1    3    3    0  502 -0.18667401999E+02 -0.45198567812E+02 -0.10687941863E+03  0.11760979958E+03  0.41800000000E+01 0. -1.
        -11    1    1    2    0    0 -0.88202654246E+01  0.70088550676E+02 -0.18471310287E+02  0.73016377079E+02  0.00000000000E+00 0. -1.
         11    1    1    2    0    0 -0.63024425685E+01 -0.35345791009E+02 -0.26886833677E+02  0.44854738317E+02  0.00000000000E+00 0.  1.
</event>
<event>
 7    1  0.2693725E-009  0.1080796E+03  0.7561462E-02  0.1264168E+00
          1   -1    0    0  501    0  0.00000000000E+00  0.00000000000E+00  0.59318247508E+03  0.59318247508E+03  0.00000000000E+00 0. -1.
         -1   -1    0    0    0  501 -0.00000000000E+00 -0.00000000000E+00 -0.24626834809E+02  0.24626834809E+02  0.00000000000E+00 0.  1.
         25    2    1    2    0    0 -0.32506452160E+02 -0.42149937041E+00  0.43131700691E+03  0.45026521605E+03  0.12509019644E+03 0.  0.
          5    1    3    3  502    0  0.76272200788E+01 -0.55024151392E+02  0.13070201302E+03  0.14207857097E+03  0.41800000000E+01 0.  1.
         -5    1    3    3    0  502 -0.40133672239E+02  0.54602652022E+02  0.30061499389E+03  0.30818664508E+03  0.41800000000E+01 0.  1.
        -11    1    1    2    0    0 -0.20381279906E+02  0.26628263195E+02  0.72839473230E+02  0.80187591507E+02  0.00000000000E+00 0.  1.
         11    1    1    2    0    0  0.52887732066E+02 -0.26206763825E+02  0.64399160138E+02  0.87356502332E+02  0.00000000000E+00 0. -1.
</event>
<event>
 7    1  0.2693725E-009  0.1160744E+03  0.7561462E-02  0.1249717E+00
         -2   -1    0    0    0  501 -0.00000000000E+00  0.00000000000E+00  0.37313290499E+03  0.37313290499E+03  0.00000000000E+00 0. -1.
          2   -1    0    0  501    0  0.00000000000E+00 -0.00000000000E+00 -0.49420519673E+02  0.49420519673E+02  0.00000000000E+00 0.  1.
         25    2    1    2    0    0 -0.50718741882E+02 -0.47386577192E+02  0.11153848016E+03  0.18140106796E+03  0.12509051293E+03 0.  0.
          5    1    3    3  502    0 -0.78067454583E+02 -0.59173108860E+02  0.43996693204E+02  0.10746704467E+03  0.41800000000E+01 0. -1.
         -5    1    3    3    0  502  0.27348712701E+02  0.11786531668E+02  0.67541786951E+02  0.73934023289E+02  0.41800000000E+01 0. -1.
        -11    1    1    2    0    0 -0.20905280357E+02  0.12530087746E+02  0.10398263849E+03  0.10680085652E+03  0.00000000000E+00 0. -1.
         11    1    1    2    0    0  0.71624022239E+02  0.34856489445E+02  0.10819126667E+03  0.13435150019E+03  0.00000000000E+00 0.  1.
</event>
<event>
 7    1  0.2693725E-009  0.1029254E+03  0.7561462E-02  0.1274262E+00
          2   -1    0    0  501    0  0.00000000000E+00  0.00000000000E+00  0.14522226501E+03  0.14522226501E+03  0.00000000000E+00 0. -1.
         -2   -1    0    0    0  501 -0.00000000000E+00 -0.00000000000E+00 -0.12351010907E+03  0.12351010907E+03  0.00000000000E+00 0.  1.
         25    2    1    2    0    0 -0.68238806162E+02 -0.42835001273E+02  0.92064713807E+01  0.14907098710E+03  0.12508408403E+03 0.  0.
          5    1    3    3  502    0  0.23760189713E+02 -0.12649376170E+02  0.39097645128E+02  0.47651354517E+02  0.41800000000E+01 0. -1.
         -5    1    3    3    0  502 -0.91998995876E+02 -0.30185625102E+02 -0.29891173748E+02  0.10141963258E+03  0.41800000000E+01 0. -1.
        -11    1    1    2    0    0  0.35385174755E+02  0.14247017640E+02  0.49518502964E+02  0.62507361485E+02  0.00000000000E+00 0. -1.
         11    1    1    2    0    0  0.32853631407E+02  0.28587983632E+02 -0.37012818405E+02  0.57154025502E+02  0.00000000000E+00 0.  1.
</event>
<event>
 7    1  0.2693725E-009  0.1022296E+03  0.7561462E-02  0.1275676E+00
         -2   -1    0    0    0  501 -0.00000000000E+00  0.00000000000E+00  0.29467914298E+02  0.29467914298E+02  0.00000000000E+00 0.  1.
          2   -1    0    0  501    0  0.00000000000E+00 -0.00000000000E+00 -0.91583163160E+03  0.91583163160E+03  0.00000000000E+00 0. -1.
         25    2    1    2    0    0  0.91532819397E+02  0.36255609808E+02 -0.67901730658E+03  0.69742725867E+03  0.12509017641E+03 0.  0.
          5    1    3    3  502    0  0.68586246624E+02  0.39516403642E+02 -0.16687807658E+03  0.18474681114E+03  0.41800000000E+01 0. -1.
         -5    1    3    3    0  502  0.22946572773E+02 -0.32607938342E+01 -0.51213922999E+03  0.51268044753E+03  0.41800000000E+01 0. -1.
        -11    1    1    2    0    0 -0.71988314890E+02 -0.16505198309E+02 -0.20732388720E+03  0.22008619505E+03  0.00000000000E+00 0. -1.
         11    1    1    2    0    0 -0.19544504507E+02 -0.19750411499E+02 -0.22523525768E-01  0.27786092171E+02  0.00000000000E+00 0.  1.
</event>
<event>
 7    1  0.2693725E-009  0.1730680E+03  0.7561462E-02  0.1174686E+00
          1   -1    0    0  501    0  0.00000000000E+00  0.00000000000E+00  0.14795412457E+04  0.14795412457E+04  0.00000000000E+00 0. -1.
         -1   -1    0    0    0  501 -0.00000000000E+00 -0.00000000000E+00 -0.30058222634E+02  0.30058222634E+02  0.00000000000E+00 0.  1.
         25    2    1    2    0    0 -0.15228439578E+03  0.62859193161E+02  0.10202572109E+04  0.10410160810E+04  0.12509152289E+03 0.  0.
          5    1    3    3  502    0 -0.78882774833E+02  0.28259157245E+02  0.20193112350E+03  0.21866577960E+03  0.41800000000E+01 0.  1.
         -5    1    3    3    0  502 -0.73401620944E+02  0.34600035916E+02  0.81832608743E+03  0.82235030140E+03  0.41800000000E+01 0.  1.
        -11    1    1    2    0    0  0.12436412708E+03 -0.80327127623E+02  0.29110052638E+03  0.32658597642E+03  0.00000000000E+00 0.  1.
         11    1    1    2    0    0  0.27920268700E+02  0.17467934462E+02  0.13812528571E+03  0.14199741086E+03  0.00000000000E+00 0. -1.
</event>
<event>
 7    1  0.2693725E-009  0.8578453E+02  0.7561462E-02  0.1313394E+00
          1   -1    0    0  501    0  0.00000000000E+00  0.00000000000E+00  0.13048740334E+03  0.13048740334E+03  0.00000000000E+00 0. -1.
         -1   -1    0    0    0  501 -0.00000000000E+00 -0.00000000000E+00 -0.91018458192E+02  0.91018458192E+02  0.00000000000E+00 0.  1.
         25    2    1    2    0    0 -0.67659826007E+01 -0.84257221117E+01  0.27600107028E+02  0.12854850981E+03  0.12508469992E+03 0.  0.
          5    1    3    3  502    0  0.18024350911E+01 -0.62411902144E+02 -0.81413034317E+01  0.63105051486E+02  0.41800000000E+01 0.  1.
         -5    1    3    3    0  502 -0.85684176918E+01  0.53986180032E+02  0.35741410460E+02  0.65443458327E+02  0.41800000000E+01 0.  1.
        -11    1    1    2    0    0 -0.15440496955E+02 -0.15255402459E+02 -0.31825569507E+02  0.38522761127E+02  0.00000000000E+00 0.  1.
         11    1    1    2    0    0  0.22206479556E+02  0.23681124571E+02  0.43694407630E+02  0.54434590596E+02  0.00000000000E+00 0. -1.
</event>
<event>
 7    1  0.2693725E-009  0.1268831E+03  0.7561462E-02  0.1232155E+00
         -1   -1    0    0    0  501 -0.00000000000E+00  0.00000000000E+00  0.65528059889E+02  0.65528059889E+02  0.00000000000E+00 0.  1.
          1   -1    0    0  501    0  0.00000000000E+00 -0.00000000000E+00 -0.31604989843E+03  0.31604989843E+03  0.00000000000E+00 0. -1.
         25    2    1    2    0    0  0.81550057064E+02  0.26386829789E+02 -0.19798955420E+03  0.24938597026E+03  0.12508725753E+03 0.  0.
          5    1    3    3  502    0  0.55649017016E+02  0.75943878701E+02 -0.10781133773E+03  0.14319581960E+03  0.41800000000E+01 0. -1.
         -5    1    3    3    0  502  0.25901040047E+02 -0.49557048912E+02 -0.90178216462E+02  0.10619015066E+03  0.41800000000E+01 0. -1.
        -11    1    1    2    0    0 -0.89105642005E+02 -0.15882340835E+02 -0.14051911724E+02  0.91594325209E+02  0.00000000000E+00 0.  1.
         11    1    1    2    0    0  0.75555849409E+01 -0.10504488954E+02 -0.38480372624E+02  0.40597662854E+02  0.00000000000E+00 0. -1.
</event>
<event>
 7    1  0.2693725E-009  0.8415969E+02  0.7561462E-02  0.1317645E+00
          1   -1    0    0  501    0  0.00000000000E+00  0.00000000000E+00  0.15666399469E+04  0.15666399469E+04  0.00000000000E+00 0. -1.
         -1   -1    0    0    0  501 -0.00000000000E+00 -0.00000000000E+00 -0.18072085478E+02  0.18072085478E+02  0.00000000000E+00 0.  1.
         25    2    1    2    0    0 -0.39166105643E+02 -0.59257972612E+02  0.13177128619E+04  0.13255412282E+04  0.12508745059E+03 0.  0.
          5    1    3    3  502    0 -0.47652672926E+02 -0.57808775105E+02  0.35791122389E+03  0.36569187618E+03  0.41800000000E+01 0. -1.
         -5    1    3    3    0  502  0.84865672833E+01 -0.14491975070E+01  0.95980163797E+03  0.95984935206E+03  0.41800000000E+01 0. -1.
        -11    1    1    2    0    0  0.36751954936E+02  0.15494174920E+02  0.21566415475E+02  0.45341878264E+02  0.00000000000E+00 0.  1.
         11    1    1    2    0    0  0.24141507064E+01  0.43763797692E+02  0.20928858405E+03  0.21382892583E+03  0.00000000000E+00 0. -1.
</event>
<event>
 7    1  0.2693725E-009  0.1181486E+03  0.7561462E-02  0.1246183E+00
         -1   -1    0    0    0  501 -0.00000000000E+00  0.00000000000E+00  0.60032314932E+02  0.60032314932E+02  0.00000000000E+00 0.  1.
          1   -1    0    0  501    0  0.00000000000E+00 -0.00000000000E+00 -0.38835701601E+03  0.38835701601E+03  0.00000000000E+00 0. -1.
         25    2    1    2    0    0  0.17682788529E+02 -0.10540642773E+03 -0.16492580505E+03  0.23296250668E+03  0.12509121604E+03 0.  0.
          5    1    3    3  502    0 -0.12804348231E+02 -0.23907766244E+02  0.16278038328E+02  0.31905791829E+02  0.41800000000E+01 0.  1.
         -5    1    3    3    0  502  0.30487136760E+02 -0.81498661488E+02 -0.18120384338E+03  0.20105671485E+03  0.41800000000E+01 0.  1.
        -11    1    1    2    0    0  0.19152117016E+02  0.61590381115E+02 -0.31789627708E+02  0.71907990251E+02  0.00000000000E+00 0.  1.
         11    1    1    2    0    0 -0.36834905545E+02  0.43816046617E+02 -0.13160926833E+03  0.14351883401E+03  0.00000000000E+00 0. -1.
</event>
<event>
 7    1  0.3430483E-009  0.1131982E+03  0.7561462E-02  0.1254759E+00
          2   -1    0    0  501    0  0.00000000000E+00  0.00000000000E+00  0.87095514094E+03  0.87095514094E+03  0.00000000000E+00 0. -1.
         -2   -1    0    0    0  501 -0.00000000000E+00 -0.00000000000E+00 -0.18404032531E+02  0.18404032531E+02  0.00000000000E+00 0.  1.
         25    2    1    2    0    0  0.38000557682E+02  0.46720102432E+02  0.56322190008E+03  0.58008064076E+03  0.12509128948E+03 0.  0.
          5    1    3    3  502    0  0.76923801411E+02  0.30318535802E+02  0.47522461121E+03  0.48238199421E+03  0.41800000000E+01 0. -1.
         -5    1    3    3    0  502 -0.38923243729E+02  0.16401566629E+02  0.87997288875E+02  0.97698646559E+02  0.41800000000E+01 0. -1.
        -11    1    1    2    0    0 -0.28401140807E+02  0.19371505229E+02  0.49102022795E+02  0.59940709509E+02  0.00000000000E+00 0.  1.
         11    1    1    2    0    0 -0.95994168756E+01 -0.66091607660E+02  0.24022718554E+03  0.24933782320E+03  0.00000000000E+00 0. -1.
</event>
<event>
 7    1  0.2693725E-009  0.1074182E+03  0.7561462E-02  0.1265427E+00
          2   -1    0    0  501    0  0.00000000000E+00  0.00000000000E+00  0.13581204058E+04  0.13581204058E+04  0.00000000000E+00 0. -1.
         -2   -1    0    0    0  501 -0.00000000000E+00 -0.00000000000E+00 -0.11777771083E+02  0.11777771083E+02  0.00000000000E+00 0.  1.
         25    2    1    2    0    0  0.64547959899E+01 -0.48257487258E+02  0.98953090261E+03  0.99859370138E+03  0.12509006255E+03 0.  0.
          5    1    3    3  502    0  0.39818059696E+02 -0.74312475658E+02  0.79486048897E+03  0.79933002648E+03  0.41800000000E+01 0. -1.
         -5    1    3    3    0  502 -0.33363263706E+02  0.26054988400E+02  0.19467041365E+03  0.19926367490E+03  0.41800000000E+01 0. -1.
        -11    1    1    2    0    0 -0.19106424817E+02 -0.14425440895E+02  0.30437045831E+02  0.38724185895E+02  0.00000000000E+00 0.  1.
         11    1    1    2    0    0  0.12651628827E+02  0.62682928153E+02  0.32637468629E+03  0.33258028962E+03  0.00000000000E+00 0. -1.
</event>
<event>
 7    1  0.2693725E-009  0.9702600E+02  0.7561462E-02  0.1286677E+00
          4   -1    0    0  501    0  0.00000000000E+00  0.00000000000E+00  0.69413990410E+03  0.69413990410E+03  0.00000000000E+00 0. -1.
         -4   -1    0    0    0  501 -0.00000000000E+00 -0.00000000000E+00 -0.32358551529E+02  0.32358551529E+02  0.00000000000E+00 0.  1.
         25    2    1    2    0    0 -0.25382835450E+02  0.15349002193E+02  0.60337734622E+03  0.61692193012E+03  0.12509422736E+03 0.  0.
          5    1    3    3  502    0 -0.64445838047E+02  0.45318179102E+02  0.38966385233E+03  0.39757061462E+03  0.41800000000E+01 0.  1.
         -5    1    3    3    0  502  0.39063002597E+02 -0.29969176909E+02  0.21371349390E+03  0.21935131549E+03  0.41800000000E+01 0.  1.
        -11    1    1    2    0    0  0.77927887756E+01  0.22606160520E+02  0.63101926297E+02  0.67480509428E+02  0.00000000000E+00 0. -1.
         11    1    1    2    0    0  0.17590046674E+02 -0.37955162713E+02 -0.46979199465E+01  0.42096016087E+02  0.00000000000E+00 0.  1.
</event>
<event>
 7    1  0.2693725E-009  0.6349496E+02  0.7561462E-02  0.1383724E+00
          3   -1    0    0  501    0  0.00000000000E+00  0.00000000000E+00  0.13074936161E+03  0.13074936161E+03  0.00000000000E+00 0. -1.
         -3   -1    0    0    0  501 -0.00000000000E+00 -0.00000000000E+00 -0.93530176138E+02  0.93530176138E+02  0.00000000000E+00 0.  1.
         25    2    1    2    0    0 -0.86746841042E+01  0.12727751721E+02  0.50446218326E+01  0.12613479951E+03  0.12508914274E+03 0.  0.
          5    1    3    3  502    0 -0.34189592627E+02 -0.64102304753E+01  0.55892882589E+02  0.65965945933E+02  0.41800000000E+01 0.  1.
         -5    1    3    3    0  502  0.25514908522E+02  0.19137982196E+02 -0.50848260756E+02  0.60168853582E+02  0.41800000000E+01 0.  1.
        -11    1    1    2    0    0  0.32163435982E+02  0.17218457537E+01 -0.20856034226E+02  0.38372197365E+02  0.00000000000E+00 0.  1.
         11    1    1    2    0    0 -0.23488751878E+02 -0.14449597474E+02  0.53030597869E+02  0.59772540872E+02  0.00000000000E+00 0. -1.
</event>
<event>
 7    1  0.2693725E-009  0.1099511E+03  0.7561462E-02  0.1260661E+00
         -2   -1    0    0    0  501 -0.00000000000E+00  0.00000000000E+00  0.20265525345E+03  0.20265525345E+03  0.00000000000E+00 0.  1.
          2   -1    0    0  501    0  0.00000000000E+00 -0.00000000000E+00 -0.83503503463E+02  0.83503503463E+02  0.00000000000E+00 0. -1.
         25    2    1    2    0    0 -0.45299357192E+02  0.54180235765E+02  0.77619778832E+02  0.16327920286E+03  0.12509092018E+03 0.  0.
          5    1    3    3  502    0 -0.58306717742E+02  0.86740994786E+02  0.40832421604E+02  0.11228727695E+03  0.41800000000E+01 0.  1.
         -5    1    3    3    0  502  0.13007360549E+02 -0.32560759021E+02  0.36787357229E+02  0.50991925914E+02  0.41800000000E+01 0.  1.
        -11    1    1    2    0    0  0.51746519087E+01 -0.35245304240E+02  0.63925039853E+02  0.73180729797E+02  0.00000000000E+00 0.  1.
         11    1    1    2    0    0  0.40124705284E+02 -0.18934931525E+02 -0.22393068703E+02  0.49698824250E+02  0.00000000000E+00 0. -1.
</event>
<event>
 7    1  0.2693725E-009  0.9389628E+02  0.7561462E-02  0.1293681E+00
         -1   -1    0    0    0  501 -0.00000000000E+00  0.00000000000E+00  0.24660249260E+03  0.24660249260E+03  0.00000000000E+00 0.  1.
          1   -1    0    0  501    0  0.00000000000E+00 -0.00000000000E+00 -0.57717230341E+02  0.57717230341E+02  0.00000000000E+00 0. -1.
         25    2    1    2    0    0  0.16030122383E+02 -0.11498615827E+02  0.47562388110E+02  0.13527421707E+03  0.12509096711E+03 0.  0.
          5    1    3    3  502    0  0.19229909409E+02  0.39521540404E+02  0.67155457662E+02  0.80368336212E+02  0.41800000000E+01 0.  1.
         -5    1    3    3    0  502 -0.31997870257E+01 -0.51020156231E+02 -0.19593069552E+02  0.54905880862E+02  0.41800000000E+01 0.  1.
        -11    1    1    2    0    0 -0.46462213418E+01 -0.39665347260E+02  0.69037716058E+02  0.79756713727E+02  0.00000000000E+00 0.  1.
         11    1    1    2    0    0 -0.11383901041E+02  0.51163963087E+02  0.72285158091E+02  0.89288792140E+02  0.00000000000E+00 0. -1.
</event>
<event>
 7    1  0.2832366E-009  0.1309197E+03  0.7561462E-02  0.1226097E+00
         -2   -1    0    0    0  501 -0.00000000000E+00  0.00000000000E+00  0.29094377741E+02  0.29094377741E+02  0.00000000000E+00 0. -1.
          2   -1    0    0  501    0  0.00000000000E+00 -0.00000000000E+00 -0.76309337978E+03  0.76309337978E+03  0.00000000000E+00 0.  1.
         25    2    1    2    0    0 -0.60787515107E+02  0.71902866294E+02 -0.29574776219E+03  0.33463255441E+03  0.12508822268E+03 0.  0.
          5    1    3    3  502    0 -0.77214578834E+02  0.82266312868E+02 -0.29370711826E+03  0.31466042194E+03  0.41800000000E+01 0. -1.
         -5    1    3    3    0  502  0.16427063727E+02 -0.10363446574E+02 -0.20406439286E+01  0.19972132466E+02  0.41800000000E+01 0. -1.
        -11    1    1    2    0    0 -0.19488035845E+02 -0.36407021490E+02 -0.18409170756E+03  0.18866640281E+03  0.00000000000E+00 0.  1.
         11    1    1    2    0    0  0.80275550952E+02 -0.35495844804E+02 -0.25415953228E+03  0.26888880030E+03  0.00000000000E+00 0. -1.
</event>
<event>
 7    1  0.2693725E-009  0.1049005E+03  0.7561462E-02  0.1270316E+00
         -1   -1    0    0    0  501 -0.00000000000E+00  0.00000000000E+00  0.10485887039E+03  0.10485887039E+03  0.00000000000E+00 0.  1.
          1   -1    0    0  501    0  0.00000000000E+00 -0.00000000000E+00 -0.16800417486E+03  0.16800417486E+03  0.00000000000E+00 0. -1.
         25    2    1    2    0    0 -0.46343422167E+02 -0.47412535647E+02  0.63212264978E+01  0.14171505342E+03  0.12509011611E+03 0.  0.
          5    1    3    3  502    0  0.26243685275E+02 -0.51037834088E+02 -0.24654542447E+02  0.62601201175E+02  0.41800000000E+01 0.  1.
         -5    1    3    3    0  502 -0.72587107442E+02  0.36252984409E+01  0.30975768945E+02  0.79113852247E+02  0.41800000000E+01 0.  1.
        -11    1    1    2    0    0  0.44882932915E+02  0.15453053597E+02 -0.83628095455E+02  0.96160973798E+02  0.00000000000E+00 0. -1.
         11    1    1    2    0    0  0.14604892523E+01  0.31959482051E+02  0.14161564485E+02  0.34987018028E+02  0.00000000000E+00 0.  1.
</event>
<event>
 7    1  0.2693725E-009  0.9243091E+02  0.7561462E-02  0.1297069E+00
         -1   -1    0    0    0  501 -0.00000000000E+00  0.00000000000E+00  0.15772340063E+03  0.15772340063E+03  0.00000000000E+00 0.  1.
          1   -1    0    0  501    0  0.00000000000E+00 -0.00000000000E+00 -0.92840176874E+02  0.92840176874E+02  0.00000000000E+00 0. -1.
         25    2    1    2    0    0  0.35776063596E+02 -0.22166286784E+02  0.68884852751E+02  0.14887689373E+03  0.12509170857E+03 0.  0.
          5    1    3    3  502    0  0.39174504793E+02  0.25214473983E+02 -0.17714079835E+02  0.50016722688E+02  0.41800000000E+01 0.  1.
         -5    1    3    3    0  502 -0.33984411964E+01 -0.47380760767E+02  0.86598932586E+02  0.98860171042E+02  0.41800000000E+01 0.  1.
        -11    1    1    2    0    0 -0.61357266548E+02  0.10356058055E+02 -0.24467176623E+02  0.66862581677E+02  0.00000000000E+00 0. -1.
         11    1    1    2    0    0  0.25581202951E+02  0.11810228729E+02  0.20465547624E+02  0.34824102094E+02  0.00000000000E+00 0.  1.
</event>
<event>
 7    1  0.2693725E-009  0.1062230E+03  0.7561462E-02  0.1267729E+00
          2   -1    0    0  501    0  0.00000000000E+00  0.00000000000E+00  0.39647873541E+03  0.39647873541E+03  0.00000000000E+00 0. -1.
         -2   -1    0    0    0  501 -0.00000000000E+00 -0.00000000000E+00 -0.34741389290E+02  0.34741389290E+02  0.00000000000E+00 0.  1.
         25    2    1    2    0    0 -0.16863779802E+02 -0.84722148498E+01  0.27864258207E+03  0.30601555213E+03  0.12509062358E+03 0.  0.
          5    1    3    3  502    0 -0.59334345913E+02  0.30526436268E+02  0.17505928031E+03  0.18739170723E+03  0.41800000000E+01 0. -1.
         -5    1    3    3    0  502  0.42470566111E+02 -0.38998651118E+02  0.10358330176E+03  0.11862384490E+03  0.41800000000E+01 0. -1.
        -11    1    1    2    0    0 -0.33870378199E+02  0.14189016672E+02  0.14015809669E+02  0.39306152625E+02  0.00000000000E+00 0.  1.
         11    1    1    2    0    0  0.50734158001E+02 -0.57168018221E+01  0.69078954384E+02  0.85898419950E+02  0.00000000000E+00 0. -1.
</event>
<event>
 7    1  0.3804197E-009  0.2236613E+03  0.7561462E-02  0.1131182E+00
          1   -1    0    0  501    0  0.00000000000E+00  0.00000000000E+00  0.11607404451E+04  0.11607404451E+04  0.00000000000E+00 0.  1.
         -1   -1    0    0    0  501 -0.00000000000E+00 -0.00000000000E+00 -0.47849680927E+02  0.47849680927E+02  0.00000000000E+00 0. -1.
         25    2    1    2    0    0  0.17397572368E+03 -0.11044833294E+03  0.66065796022E+03  0.70326569362E+03  0.12508920313E+03 0.  0.
          5    1    3    3  502    0  0.71766730728E+02 -0.96574157088E+02  0.48313720633E+03  0.49791170301E+03  0.41800000000E+01 0.  1.
         -5    1    3    3    0  502  0.10220899295E+03 -0.13874175849E+02  0.17752075389E+03  0.20535399060E+03  0.41800000000E+01 0.  1.
        -11    1    1    2    0    0 -0.40088982298E+02  0.75249576449E+02  0.14246153943E+03  0.16602685166E+03  0.00000000000E+00 0.  1.
         11    1    1    2    0    0 -0.13388674138E+03  0.35198756488E+02  0.30977126457E+03  0.33929758079E+03  0.00000000000E+00 0. -1.
</event>
<event>
 7    1  0.2693725E-009  0.8633697E+02  0.7561462E-02  0.1311973E+00
          2   -1    0    0  501    0  0.00000000000E+00  0.00000000000E+00  0.49892539761E+03  0.49892539761E+03  0.00000000000E+00 0.  1.
         -2   -1    0    0    0  501 -0.00000000000E+00 -0.00000000000E+00 -0.26755610272E+02  0.26755610272E+02  0.00000000000E+00 0. -1.
         25    2    1    2    0    0 -0.33156767120E+02 -0.21263090150E+02  0.26419491561E+03  0.29495429225E+03  0.12509033085E+03 0.  0.
          5    1    3    3  502    0  0.10098948219E+02 -0.30905375352E+02  0.64701619723E+01  0.33413565759E+02  0.41800000000E+01 0. -1.
         -5    1    3    3    0  502 -0.43255715339E+02  0.96422852020E+01  0.25772475364E+03  0.26154072649E+03  0.41800000000E+01 0. -1.
        -11    1    1    2    0    0 -0.28158692811E+02  0.19099642830E+02  0.43805767370E+02  0.55467590464E+02  0.00000000000E+00 0. -1.
         11    1    1    2    0    0  0.61315459931E+02  0.21634473193E+01  0.16416910435E+03  0.17525912517E+03  0.00000000000E+00 0.  1.
</event>
<event>
 7    1  0.2693725E-009  0.1642814E+03  0.7561462E-02  0.1183946E+00
          1   -1    0    0  501    0  0.00000000000E+00  0.00000000000E+00  0.23209718786E+04  0.23209718786E+04  0.00000000000E+00 0. -1.
         -1   -1    0    0    0  501 -0.00000000000E+00 -0.00000000000E+00 -0.17589557075E+02  0.17589557075E+02  0.00000000000E+00 0.  1.
         25    2    1    2    0    0  0.52556587252E+02  0.14110795733E+03  0.16578695976E+04  0.16693871562E+04  0.12509286306E+03 0.  0.
          5    1    3    3  502    0  0.11259204681E+02  0.65437872030E+02  0.12824469979E+04  0.12841715850E+04  0.41800000000E+01 0.  1.
         -5    1    3    3    0  502  0.41297382571E+02  0.75670085302E+02  0.37542259964E+03  0.38521557126E+03  0.41800000000E+01 0.  1.
        -11    1    1    2    0    0 -0.10261369092E+02 -0.13207856500E+03  0.51016562640E+03  0.52708539099E+03  0.00000000000E+00 0. -1.
         11    1    1    2    0    0 -0.42295218160E+02 -0.90293923343E+01  0.13534709757E+03  0.14208888847E+03  0.00000000000E+00 0.  1.
</event>
<event>
 7    1  0.2693725E-009  0.1035977E+03  0.7561462E-02  0.1272907E+00
         -4   -1    0    0    0  501 -0.00000000000E+00  0.00000000000E+00  0.29600759403E+03  0.29600759403E+03  0.00000000000E+00 0.  1.
          4   -1    0    0  501    0  0.00000000000E+00 -0.00000000000E+00 -0.47337555942E+02  0.47337555942E+02  0.00000000000E+00 0. -1.
         25    2    1    2    0    0 -0.18380571763E+02  0.32205904948E+02  0.18752630306E+03  0.22844587593E+03  0.12508532350E+03 0.  0.
          5    1    3    3  502    0 -0.22899339024E+01 -0.46044545776E+02  0.42611881177E+02  0.62917317254E+02  0.41800000000E+01 0. -1.
         -5    1    3    3    0  502 -0.16090637861E+02  0.78250450724E+02  0.14491442189E+03  0.16552855867E+03  0.41800000000E+01 0. -1.
        -11    1    1    2    0    0  0.15190066421E+02  0.21930532686E+02 -0.72207471825E+01  0.27637394444E+02  0.00000000000E+00 0. -1.
         11    1    1    2    0    0  0.31905053429E+01 -0.54136437634E+02  0.68364482202E+02  0.87261879597E+02  0.00000000000E+00 0.  1.
</event>
<event>
 7    1  0.2693725E-009  0.2271125E+03  0.7561462E-02  0.1128689E+00
          1   -1    0    0  501    0  0.00000000000E+00  0.00000000000E+00  0.41464684849E+03  0.41464684849E+03  0.00000000000E+00 0. -1.
         -1   -1    0    0    0  501 -0.00000000000E+00 -0.00000000000E+00 -0.15468204555E+03  0.15468204555E+03  0.00000000000E+00 0.  1.
         25    2    1    2    0    0  0.50859353729E+01  0.20983085186E+03  0.32281202729E+02  0.24646479464E+03  0.12509182953E+03 0.  0.
          5    1    3    3  502    0  0.43172528121E+02  0.19894352517E+03  0.19110965773E+02  0.20451184515E+03  0.41800000000E+01 0. -1.
         -5    1    3    3    0  502 -0.38086592748E+02  0.10887326689E+02  0.13170236956E+02  0.41952949492E+02  0.41800000000E+01 0. -1.
        -11    1    1    2    0    0 -0.85616256474E+01 -0.39837528761E+02  0.10661425631E+03  0.11413557631E+03  0.00000000000E+00 0. -1.
         11    1    1    2    0    0  0.34756902745E+01 -0.16999332310E+03  0.12106934390E+03  0.20872852310E+03  0.00000000000E+00 0.  1.
</event>
<event>
 7    1  0.2693725E-009  0.1160385E+03  0.7561462E-02  0.1249779E+00
         -1   -1    0    0    0  501 -0.00000000000E+00  0.00000000000E+00  0.32073810150E+02  0.32073810150E+02  0.00000000000E+00 0.  1.
          1   -1    0    0  501    0  0.00000000000E+00 -0.00000000000E+00 -0.66063892081E+03  0.66063892081E+03  0.00000000000E+00 0. -1.
         25    2    1    2    0    0 -0.97510216542E+02 -0.34784920350E+01 -0.33839397080E+03  0.37373402961E+03  0.12508518368E+03 0.  0.
          5    1    3    3  502    0 -0.84491823019E+02 -0.35689576062E+02 -0.32247333645E+03  0.33528963467E+03  0.41800000000E+01 0.  1.
         -5    1    3    3    0  502 -0.13018393524E+02  0.32211084027E+02 -0.15920634351E+02  0.38444394939E+02  0.41800000000E+01 0.  1.
        -11    1    1    2    0    0  0.26814727986E+02  0.19031981454E+02 -0.18290665777E+02  0.37627043594E+02  0.00000000000E+00 0.  1.
         11    1    1    2    0    0  0.70695488556E+02 -0.15553489419E+02 -0.27188047409E+03  0.28135165776E+03  0.00000000000E+00 0. -1.
</event>
<event>
 7    1  0.2693725E-009  0.1311949E+03  0.7561462E-02  0.1225693E+00
          2   -1    0    0  501    0  0.00000000000E+00  0.00000000000E+00  0.12891932469E+04  0.12891932469E+04  0.00000000000E+00 0. -1.
         -2   -1    0    0    0  501 -0.00000000000E+00 -0.00000000000E+00 -0.29691120600E+02  0.29691120600E+02  0.00000000000E+00 0.  1.
         25    2    1    2    0    0 -0.49607282670E+02 -0.41654333944E+02  0.10649126905E+04  0.10741888969E+04  0.12508709742E+03 0.  0.
          5    1    3    3  502    0 -0.54430722675E+02  0.33842961436E+02  0.54843210874E+03  0.55218049577E+03  0.41800000000E+01 0.  1.
         -5    1    3    3    0  502  0.48234400044E+01 -0.75497295380E+02  0.51648058173E+03  0.52200840116E+03  0.41800000000E+01 0.  1.
        -11    1    1    2    0    0  0.82341509459E+02  0.29040846198E+02  0.60832276465E+02  0.10641457037E+03  0.00000000000E+00 0.  1.
         11    1    1    2    0    0 -0.32734226788E+02  0.12613487746E+02  0.13375715935E+03  0.13828090018E+03  0.00000000000E+00 0. -1.
</event>
<event>
 7    1  0.2693725E-009  0.1262126E+03  0.7561462E-02  0.1233186E+00
         -1   -1    0    0    0  501 -0.00000000000E+00  0.00000000000E+00  0.15852557365E+03  0.15852557365E+03  0.00000000000E+00 0.  1.
          1   -1    0    0  501    0  0.00000000000E+00 -0.00000000000E+00 -0.15567660950E+03  0.15567660950E+03  0.00000000000E+00 0. -1.
         25    2    1    2    0    0 -0.42367923504E+02  0.64764059647E+02 -0.80407032722E+02  0.16763846867E+03  0.12509172995E+03 0.  0.
          5    1    3    3  502    0 -0.40000035637E+02  0.10195097643E+03 -0.59396805818E+02  0.12465735994E+03  0.41800000000E+01 0. -1.
         -5    1    3    3    0  502 -0.23678878666E+01 -0.37186916784E+02 -0.21010226904E+02  0.42981108727E+02  0.41800000000E+01 0. -1.
        -11    1    1    2    0    0  0.11243893750E+02 -0.72414266301E+02  0.20497196378E+02  0.76094586995E+02  0.00000000000E+00 0. -1.
         11    1    1    2    0    0  0.31124029754E+02  0.76502066534E+01  0.62758800495E+02  0.70469127492E+02  0.00000000000E+00 0.  1.
</event>
<event>
 7    1  0.2693725E-009  0.5470045E+02  0.7561462E-02  0.1421521E+00
         -2   -1    0    0    0  501 -0.00000000000E+00  0.00000000000E+00  0.17200724997E+03  0.17200724997E+03  0.00000000000E+00 0.  1.
          2   -1    0    0  501    0  0.00000000000E+00 -0.00000000000E+00 -0.96279934947E+02  0.96279934947E+02  0.00000000000E+00 0. -1.
         25    2    1    2    0    0  0.37080351384E+02 -0.31301111852E+02  0.94952200314E+02  0.16437370686E+03  0.12509229832E+03 0.  0.
          5    1    3    3  502    0  0.12472408359E+02 -0.12382539479E+02 -0.30293582465E+02  0.35271260153E+02  0.41800000000E+01 0.  1.
         -5    1    3    3    0  502  0.24607943025E+02 -0.18918572373E+02  0.12524578278E+03  0.12910244670E+03  0.41800000000E+01 0.  1.
        -11    1    1    2    0    0 -0.29792109364E+02  0.20415853151E+01  0.32440669722E+02  0.44092345174E+02  0.00000000000E+00 0.  1.
         11    1    1    2    0    0 -0.72882420196E+01  0.29259526537E+02 -0.51665555014E+02  0.59821132886E+02  0.00000000000E+00 0. -1.
</event>
<event>
 7    1  0.2693725E-009  0.1454962E+03  0.7561462E-02  0.1206119E+00
         -1   -1    0    0    0  501 -0.00000000000E+00  0.00000000000E+00  0.95471711469E+02  0.95471711469E+02  0.00000000000E+00 0.  1.
          1   -1    0    0  501    0  0.00000000000E+00 -0.00000000000E+00 -0.30856283472E+03  0.30856283472E+03  0.00000000000E+00 0. -1.
         25    2    1    2    0    0 -0.59634405382E+02 -0.10836989747E+03 -0.16604935908E+03  0.24191203042E+03  0.12509493925E+03 0.  0.
          5    1    3    3  502    0  0.32415057124E+02 -0.27139565440E+02 -0.10595894318E+02  0.43783984710E+02  0.41800000000E+01 0. -1.
         -5    1    3    3    0  502 -0.92049462507E+02 -0.81230332031E+02 -0.15545346476E+03  0.19812804571E+03  0.41800000000E+01 0. -1.
        -11    1    1    2    0    0  0.53315557831E+02  0.76896977498E+02  0.12574565248E+02  0.94412994584E+02  0.00000000000E+00 0.  1.
         11    1    1    2    0    0  0.63188475512E+01  0.31472919973E+02 -0.59616329427E+02  0.67709521194E+02  0.00000000000E+00 0. -1.
</event>
<event>
 7    1  0.2903927E-009  0.1335825E+03  0.7561462E-02  0.1222235E+00
         -1   -1    0    0    0  501 -0.00000000000E+00  0.00000000000E+00  0.45912455348E+02  0.45912455348E+02  0.00000000000E+00 0.  1.
          1   -1    0    0  501    0  0.00000000000E+00 -0.00000000000E+00 -0.91251422725E+03  0.91251422725E+03  0.00000000000E+00 0. -1.
         25    2    1    2    0    0  0.17214655247E+02 -0.10556956734E+03 -0.77094987919E+03  0.78832132407E+03  0.12508203654E+03 0.  0.
          5    1    3    3  502    0  0.37238382696E+02 -0.12385480549E+03 -0.51925429365E+03  0.53513475299E+03  0.41800000000E+01 0. -1.
         -5    1    3    3    0  502 -0.20023727449E+02  0.18285238152E+02 -0.25169558554E+03  0.25318657108E+03  0.41800000000E+01 0. -1.
        -11    1    1    2    0    0 -0.24618282508E+02  0.83229851041E+02 -0.17571483267E+02  0.88555208555E+02  0.00000000000E+00 0.  1.
         11    1    1    2    0    0  0.74036272613E+01  0.22339716295E+02 -0.78080409453E+02  0.81550149976E+02  0.00000000000E+00 0. -1.
</event>
<event>
 7    1  0.2693725E-009  0.9488129E+02  0.7561462E-02  0.1291444E+00
          1   -1    0    0  501    0  0.00000000000E+00  0.00000000000E+00  0.17202907192E+03  0.17202907192E+03  0.00000000000E+00 0. -1.
         -1   -1    0    0    0  501 -0.00000000000E+00 -0.00000000000E+00 -0.10051458962E+03  0.10051458962E+03  0.00000000000E+00 0.  1.
         25    2    1    2    0    0  0.50853767275E+02 -0.34726063836E+02  0.84657382533E+02  0.16311348741E+03  0.12508849748E+03 0.  0.
          5    1    3    3  502    0  0.65481134225E+02 -0.22569482281E+02  0.11066750183E+03  0.13062131844E+03  0.41800000000E+01 0.  1.
         -5    1    3    3    0  502 -0.14627366950E+02 -0.12156581556E+02 -0.26010119293E+02  0.32492168974E+02  0.41800000000E+01 0.  1.
        -11    1    1    2    0    0 -0.37886681252E+02 -0.21252748423E+02 -0.25892377956E+02  0.50571683460E+02  0.00000000000E+00 0.  1.
         11    1    1    2    0    0 -0.12967086023E+02  0.55978812259E+02  0.12749477720E+02  0.58858490671E+02  0.00000000000E+00 0. -1.
</event>
<event>
 7    1  0.2693725E-009  0.8562059E+02  0.7561462E-02  0.1313818E+00
         -1   -1    0    0    0  501 -0.00000000000E+00  0.00000000000E+00  0.36834550083E+03  0.36834550083E+03  0.00000000000E+00 0.  1.
          1   -1    0    0  501    0  0.00000000000E+00 -0.00000000000E+00 -0.33096491950E+02  0.33096491950E+02  0.00000000000E+00 0. -1.
         25    2    1    2    0    0  0.77387095398E+01 -0.19683734769E+02  0.21285052528E+03  0.24779108872E+03  0.12509092891E+03 0.  0.
          5    1    3    3  502    0  0.11266846225E+01 -0.55878262529E+02  0.34889310614E+02  0.66018073560E+02  0.41800000000E+01 0.  1.
         -5    1    3    3    0  502  0.66120249173E+01  0.36194527760E+02  0.17796121467E+03  0.18177301516E+03  0.41800000000E+01 0.  1.
        -11    1    1    2    0    0  0.29710171393E+02  0.26840318780E+02  0.10375051549E+03  0.11120821220E+03  0.00000000000E+00 0.  1.
         11    1    1    2    0    0 -0.37448880933E+02 -0.71565840107E+01  0.18647968107E+02  0.42442691860E+02  0.00000000000E+00 0. -1.
</event>
<event>
 7    1  0.2693725E-009  0.1063768E+03  0.7561462E-02  0.1267430E+00
         -1   -1    0    0    0  501 -0.00000000000E+00  0.00000000000E+00  0.35696533012E+03  0.35696533012E+03  0.00000000000E+00 0.  1.
          1   -1    0    0  501    0  0.00000000000E+00 -0.00000000000E+00 -0.37533369019E+02  0.37533369019E+02  0.00000000000E+00 0. -1.
         25    2    1    2    0    0 -0.12636496241E+02 -0.38990801817E+02  0.18006960683E+03  0.22305071833E+03  0.12508635410E+03 0.  0.
          5    1    3    3  502    0 -0.11690763712E+02  0.38386089811E+02  0.11496135777E+03  0.12183493763E+03  0.41800000000E+01 0. -1.
         -5    1    3    3    0  502 -0.94573252905E+00 -0.77376891629E+02  0.65108249063E+02  0.10121578071E+03  0.41800000000E+01 0. -1.
        -11    1    1    2    0    0  0.11486237887E+02 -0.26776837179E+02  0.70172578364E+02  0.75981072804E+02  0.00000000000E+00 0.  1.
         11    1    1    2    0    0  0.11502583538E+01  0.65767638996E+02  0.69189775912E+02  0.95466908006E+02  0.00000000000E+00 0. -1.
</event>
<event>
 7    1  0.2693725E-009  0.1739666E+03  0.7561462E-02  0.1173773E+00
          1   -1    0    0  501    0  0.00000000000E+00  0.00000000000E+00  0.17956865147E+03  0.17956865147E+03  0.00000000000E+00 0. -1.
         -1   -1    0    0    0  501 -0.00000000000E+00 -0.00000000000E+00 -0.25832778871E+03  0.25832778871E+03  0.00000000000E+00 0.  1.
         25    2    1    2    0    0  0.85442019961E+01 -0.15434221065E+03 -0.14010095264E+03  0.24324942401E+03  0.12508990356E+03 0.  0.
          5    1    3    3  502    0 -0.22063137628E+02 -0.12010214222E+03 -0.32877416251E+02  0.12652945707E+03  0.41800000000E+01 0.  1.
         -5    1    3    3    0  502  0.30607339624E+02 -0.34240068432E+02 -0.10722353639E+03  0.11671996693E+03  0.41800000000E+01 0.  1.
        -11    1    1    2    0    0 -0.28272540793E+02  0.46560485530E+01 -0.60881003864E+01  0.29293007994E+02  0.00000000000E+00 0.  1.
         11    1    1    2    0    0  0.19728338797E+02  0.14968616210E+03  0.67429915783E+02  0.16535400817E+03  0.00000000000E+00 0. -1.
</event>
<event>
 7    1  0.2693725E-009  0.9406223E+02  0.7561462E-02  0.1293302E+00
         -1   -1    0    0    0  501 -0.00000000000E+00  0.00000000000E+00  0.29559742610E+02  0.29559742610E+02  0.00000000000E+00 0.  1.
          1   -1    0    0  501    0  0.00000000000E+00 -0.00000000000E+00 -0.57877551769E+03  0.57877551769E+03  0.00000000000E+00 0. -1.
         25    2    1    2    0    0  0.59504393951E+02  0.14138470769E+02 -0.39904296748E+03  0.42263893127E+03  0.12509079533E+03 0.  0.
          5    1    3    3  502    0  0.45172515476E+01 -0.16172005004E+02  0.13266720942E+01  0.17354301088E+02  0.41800000000E+01 0. -1.
         -5    1    3    3    0  502  0.54987142403E+02  0.30310475772E+02 -0.40036963958E+03  0.40528463019E+03  0.41800000000E+01 0. -1.
        -11    1    1    2    0    0 -0.80258418865E+02 -0.25527737530E+02 -0.12824824762E+03  0.15342976308E+03  0.00000000000E+00 0. -1.
         11    1    1    2    0    0  0.20754024914E+02  0.11389266762E+02 -0.21924559976E+02  0.32266565941E+02  0.00000000000E+00 0.  1.
</event>
<event>
 7    1  0.2693725E-009  0.1092396E+03  0.7561462E-02  0.1261984E+00
          3   -1    0    0  501    0  0.00000000000E+00  0.00000000000E+00  0.13154955612E+03  0.13154955612E+03  0.00000000000E+00 0. -1.
         -3   -1    0    0    0  501 -0.00000000000E+00 -0.00000000000E+00 -0.11543191700E+03  0.11543191700E+03  0.00000000000E+00 0.  1.
         25    2    1    2    0    0 -0.31486451477E+02 -0.14694169531E+02  0.56551142577E+02  0.14160964109E+03  0.12509174025E+03 0.  0.
          5    1    3    3  502    0 -0.76580082154E+02 -0.21192693088E+02  0.53244043184E+02  0.95739436794E+02  0.41800000000E+01 0. -1.
         -5    1    3    3    0  502  0.45093630677E+02  0.64985235571E+01  0.33070993925E+01  0.45870204299E+02  0.41800000000E+01 0. -1.
        -11    1    1    2    0    0  0.45244074207E+02 -0.24619543990E+02 -0.70417070267E+01  0.51987823911E+02  0.00000000000E+00 0. -1.
         11    1    1    2    0    0 -0.13757622730E+02  0.39313713521E+02 -0.33391796423E+02  0.53384008114E+02  0.00000000000E+00 0.  1.
</event>
<event>
 7    1  0.2693725E-009  0.1415160E+03  0.7561462E-02  0.1211303E+00
         -2   -1    0    0    0  501 -0.00000000000E+00  0.00000000000E+00  0.44330496240E+02  0.44330496240E+02  0.00000000000E+00 0.  1.
          2   -1    0    0  501    0  0.00000000000E+00 -0.00000000000E+00 -0.51807031577E+03  0.51807031577E+03  0.00000000000E+00 0. -1.
         25    2    1    2    0    0  0.92183357986E+02 -0.30657861060E+02 -0.25718341537E+03  0.30204384679E+03  0.12509796286E+03 0.  0.
          5    1    3    3  502    0  0.81228255272E+02 -0.65318245845E+02 -0.11516005628E+03  0.15538279717E+03  0.41800000000E+01 0.  1.
         -5    1    3    3    0  502  0.10955102714E+02  0.34660384785E+02 -0.14202335909E+03  0.14666104962E+03  0.41800000000E+01 0.  1.
        -11    1    1    2    0    0 -0.35939812911E+02 -0.38709620578E+02 -0.58517035033E+02  0.78831137671E+02  0.00000000000E+00 0. -1.
         11    1    1    2    0    0 -0.56243545075E+02  0.69367481637E+02 -0.15803936913E+03  0.18152582754E+03  0.00000000000E+00 0.  1.
</event>
<event>
 7    1  0.2693725E-009  0.1165445E+03  0.7561462E-02  0.1248909E+00
         -2   -1    0    0    0  501 -0.00000000000E+00  0.00000000000E+00  0.26287906891E+03  0.26287906891E+03  0.00000000000E+00 0. -1.
          2   -1    0    0  501    0  0.00000000000E+00 -0.00000000000E+00 -0.53881731955E+02  0.53881731955E+02  0.00000000000E+00 0.  1.
         25    2    1    2    0    0  0.21703230866E+02 -0.43363412353E+02  0.10279572555E+03  0.16901490629E+03  0.12509061354E+03 0.  0.
          5    1    3    3  502    0  0.38010643554E+02  0.34622672548E+02  0.24048776727E+02  0.56915327811E+02  0.41800000000E+01 0. -1.
         -5    1    3    3    0  502 -0.16307412688E+02 -0.77986084901E+02  0.78746948821E+02  0.11209957848E+03  0.41800000000E+01 0. -1.
        -11    1    1    2    0    0 -0.50558420444E+02  0.51061665114E+02  0.83947330447E+02  0.11050159189E+03  0.00000000000E+00 0.  1.
         11    1    1    2    0    0  0.28855189578E+02 -0.76982527613E+01  0.22254280964E+02  0.37244302684E+02  0.00000000000E+00 0. -1.
</event>
<event>
 7    1  0.2693725E-009  0.1061767E+03  0.7561462E-02  0.1267818E+00
          2   -1    0    0  501    0  0.00000000000E+00  0.00000000000E+00  0.24020413033E+03  0.24020413033E+03  0.00000000000E+00 0. -1.
         -2   -1    0    0    0  501 -0.00000000000E+00 -0.00000000000E+00 -0.57407526231E+02  0.57407526231E+02  0.00000000000E+00 0.  1.
         25    2    1    2    0    0 -0.29068677930E+02 -0.29070854654E+02  0.12720304357E+03  0.18307994202E+03  0.12509016048E+03 0.  0.
          5    1    3    3  502    0 -0.70156585912E+02  0.11383282077E+02  0.88160376579E+02  0.11331923957E+03  0.41800000000E+01 0.  1.
         -5    1    3    3    0  502  0.41087907981E+02 -0.40454136731E+02  0.39042666990E+02  0.69760702452E+02  0.41800000000E+01 0.  1.
        -11    1    1    2    0    0  0.53588959265E+02  0.19749724109E+02  0.47372632699E+01  0.57308549282E+02  0.00000000000E+00 0.  1.
         11    1    1    2    0    0 -0.24520281335E+02  0.93211305450E+01  0.50856297262E+02  0.57223165262E+02  0.00000000000E+00 0. -1.
</event>
<event>
 7    1  0.2693725E-009  0.1092425E+03  0.7561462E-02  0.1261979E+00
         -1   -1    0    0    0  501 -0.00000000000E+00  0.00000000000E+00  0.20186168109E+03  0.20186168109E+03  0.00000000000E+00 0.  1.
          1   -1    0    0  501    0  0.00000000000E+00 -0.00000000000E+00 -0.78748981122E+02  0.78748981122E+02  0.00000000000E+00 0. -1.
         25    2    1    2    0    0  0.27851477235E+02  0.56789639692E+02  0.68973240655E+02  0.15622207823E+03  0.12508901566E+03 0.  0.
          5    1    3    3  502    0 -0.37881212396E+02  0.57901782537E+02  0.14678499324E+02  0.70855722535E+02  0.41800000000E+01 0. -1.
         -5    1    3    3    0  502  0.65732689631E+02 -0.11121428455E+01  0.54294741331E+02  0.85366355692E+02  0.41800000000E+01 0. -1.
        -11    1    1    2    0    0 -0.19301161374E+01 -0.57331945502E+02 -0.71810895953E+01  0.57812155911E+02  0.00000000000E+00 0.  1.
         11    1    1    2    0    0 -0.25921361097E+02  0.54230581017E+00  0.61320548904E+02  0.66576428071E+02  0.00000000000E+00 0. -1.
</event>
<event>
 7    1  0.2693725E-009  0.1114340E+03  0.7561462E-02  0.1257937E+00
          2   -1    0    0  501    0  0.00000000000E+00  0.00000000000E+00  0.45848769603E+03  0.45848769603E+03  0.00000000000E+00 0. -1.
         -2   -1    0    0    0  501 -0.00000000000E+00 -0.00000000000E+00 -0.40565648311E+02  0.40565648311E+02  0.00000000000E+00 0.  1.
         25    2    1    2    0    0  0.15808085468E+02  0.63983054084E+02  0.13920984210E+03  0.19842154116E+03  0.12509197049E+03 0.  0.
          5    1    3    3  502    0  0.33095216571E+02  0.97666371150E+02  0.98400507971E+02  0.14259784635E+03  0.41800000000E+01 0.  1.
         -5    1    3    3    0  502 -0.17287131103E+02 -0.33683317066E+02  0.40809334129E+02  0.55823694811E+02  0.41800000000E+01 0.  1.
        -11    1    1    2    0    0  0.17371435447E+02 -0.20348666859E+02  0.13793763331E+02  0.30101543470E+02  0.00000000000E+00 0.  1.
         11    1    1    2    0    0 -0.33179520914E+02 -0.43634387224E+02  0.26491844229E+03  0.27053025972E+03  0.00000000000E+00 0. -1.
</event>
<event>
 7    1  0.2693725E-009  0.7484750E+02  0.7561462E-02  0.1344344E+00
         -1   -1    0    0    0  501 -0.00000000000E+00  0.00000000000E+00  0.97948864144E+02  0.97948864144E+02  0.00000000000E+00 0.  1.
          1   -1    0    0  501    0  0.00000000000E+00 -0.00000000000E+00 -0.13537832774E+03  0.13537832774E+03  0.00000000000E+00 0. -1.
         25    2    1    2    0    0 -0.35025508445E+02  0.70224063716E+01 -0.39569130624E+02  0.13597583023E+03  0.12509040680E+03 0.  0.
          5    1    3    3  502    0  0.26784357041E+02  0.45742670015E+01 -0.63752019938E+02  0.69427070707E+02  0.41800000000E+01 0.  1.
         -5    1    3    3    0  502 -0.61809865487E+02  0.24481393701E+01  0.24182889314E+02  0.66548759518E+02  0.41800000000E+01 0.  1.
        -11    1    1    2    0    0 -0.44480382135E+01  0.14553788505E+02 -0.35545910279E+02  0.38666646368E+02  0.00000000000E+00 0. -1.
         11    1    1    2    0    0  0.39473546659E+02 -0.21576194877E+02  0.37685577310E+02  0.58684715288E+02  0.00000000000E+00 0.  1.
</event>
<event>
 7    1  0.2693725E-009  0.1595551E+03  0.7561462E-02  0.1189200E+00
          2   -1    0    0  501    0  0.00000000000E+00  0.00000000000E+00  0.65891191050E+03  0.65891191050E+03  0.00000000000E+00 0. -1.
         -2   -1    0    0    0  501 -0.00000000000E+00 -0.00000000000E+00 -0.44038085136E+02  0.44038085136E+02  0.00000000000E+00 0.  1.
         25    2    1    2    0    0 -0.11679362145E+03  0.20243484285E+02  0.44210023276E+03  0.47450168313E+03  0.12509469544E+03 0.  0.
          5    1    3    3  502    0 -0.73635280391E+02  0.73107715116E+02  0.25805197797E+03  0.27816395931E+03  0.41800000000E+01 0. -1.
         -5    1    3    3    0  502 -0.43158341054E+02 -0.52864230831E+02  0.18404825479E+03  0.19633772382E+03  0.41800000000E+01 0. -1.
        -11    1    1    2    0    0 -0.29526899461E+01 -0.26802423164E+02  0.17068866840E+02  0.31912920277E+02  0.00000000000E+00 0.  1.
         11    1    1    2    0    0  0.11974631139E+03  0.65589388786E+01  0.15570472577E+03  0.19653539223E+03  0.00000000000E+00 0. -1.
</event>
<event>
 7    1  0.2693725E-009  0.1251846E+03  0.7561462E-02  0.1234781E+00
          2   -1    0    0  501    0  0.00000000000E+00  0.00000000000E+00  0.28901336943E+02  0.28901336943E+02  0.00000000000E+00 0. -1.
         -2   -1    0    0    0  501 -0.00000000000E+00 -0.00000000000E+00 -0.95065685504E+03  0.95065685504E+03  0.00000000000E+00 0.  1.
         25    2    1    2    0    0 -0.52181958623E+02  0.11211273922E+03 -0.51627181856E+03  0.54541438181E+03  0.12509210262E+03 0.  0.
          5    1    3    3  502    0 -0.53742961859E+02  0.10324187276E+03 -0.52139229186E+03  0.53424206559E+03  0.41800000000E+01 0.  1.
         -5    1    3    3    0  502  0.15610032362E+01  0.88708664596E+01  0.51204732938E+01  0.11172316215E+02  0.41800000000E+01 0.  1.
        -11    1    1    2    0    0  0.23436671818E+02 -0.60726933519E+02 -0.78854148560E+02  0.10224976668E+03  0.00000000000E+00 0. -1.
         11    1    1    2    0    0  0.28745286805E+02 -0.51385805701E+02 -0.32662955098E+03  0.33189404350E+03  0.00000000000E+00 0.  1.
</event>
<event>
 7    1  0.2693725E-009  0.8979146E+02  0.7561462E-02  0.1303357E+00
         -2   -1    0    0    0  501 -0.00000000000E+00  0.00000000000E+00  0.28172450889E+03  0.28172450889E+03  0.00000000000E+00 0. -1.
          2   -1    0    0  501    0  0.00000000000E+00 -0.00000000000E+00 -0.53686050479E+02  0.53686050479E+02  0.00000000000E+00 0.  1.
         25    2    1    2    0    0 -0.64895405104E+02  0.83506200686E+01  0.20294095642E+03  0.24721266153E+03  0.12509165347E+03 0.  0.
          5    1    3    3  502    0 -0.39714618733E+02 -0.32178106249E+02  0.19111618024E+03  0.19787760917E+03  0.41800000000E+01 0.  1.
         -5    1    3    3    0  502 -0.25180786371E+02  0.40528726317E+02  0.11824776179E+02  0.49335052355E+02  0.41800000000E+01 0.  1.
        -11    1    1    2    0    0  0.15642122963E+02  0.18562444467E+02  0.20695393895E+02  0.31898897847E+02  0.00000000000E+00 0. -1.
         11    1    1    2    0    0  0.49253282141E+02 -0.26913064536E+02  0.44021080961E+01  0.56298999992E+02  0.00000000000E+00 0.  1.
</event>
<event>
 7    1  0.2693725E-009  0.3115008E+03  0.7561462E-02  0.1079629E+00
         -2   -1    0    0    0  501 -0.00000000000E+00  0.00000000000E+00  0.11057348830E+03  0.11057348830E+03  0.00000000000E+00 0.  1.
          2   -1    0    0  501    0  0.00000000000E+00 -0.00000000000E+00 -0.94342670450E+03  0.94342670450E+03  0.00000000000E+00 0. -1.
         25    2    1    2    0    0 -0.58255283572E+02 -0.29497356230E+03 -0.54244711886E+03  0.63269205311E+03  0.12508907541E+03 0.  0.
          5    1    3    3  502    0  0.34749822068E+02 -0.10160871598E+03 -0.22711863964E+03  0.25126127869E+03  0.41800000000E+01 0.  1.
         -5    1    3    3    0  502 -0.93005105640E+02 -0.19336484631E+03 -0.31532847922E+03  0.38143077442E+03  0.41800000000E+01 0.  1.
        -11    1    1    2    0    0  0.49457951109E+02  0.26877977614E+03 -0.23949559289E+03  0.36338243766E+03  0.00000000000E+00 0.  1.
         11    1    1    2    0    0  0.87973324631E+01  0.26193786159E+02 -0.50910504452E+02  0.57925702027E+02  0.00000000000E+00 0. -1.
</event>
<event>
 7    1  0.2693725E-009  0.1360261E+03  0.7561462E-02  0.1218778E+00
         -2   -1    0    0    0  501 -0.00000000000E+00  0.00000000000E+00  0.18030964544E+02  0.18030964544E+02  0.00000000000E+00 0.  1.
          2   -1    0    0  501    0  0.00000000000E+00 -0.00000000000E+00 -0.12426079033E+04  0.12426079033E+04  0.00000000000E+00 0. -1.
         25    2    1    2    0    0 -0.11305573320E+02  0.86013242665E+02 -0.89406155687E+03  0.90692901151E+03  0.12509224819E+03 0.  0.
          5    1    3    3  502    0 -0.64469316239E+02  0.54745821425E+02 -0.38978240009E+03  0.39887490460E+03  0.41800000000E+01 0.  1.
         -5    1    3    3    0  502  0.53163742918E+02  0.31267421240E+02 -0.50427915678E+03  0.50805410692E+03  0.41800000000E+01 0.  1.
        -11    1    1    2    0    0  0.39912387330E+02 -0.88252912981E+02 -0.24217861031E+03  0.26082955086E+03  0.00000000000E+00 0.  1.
         11    1    1    2    0    0 -0.28606814010E+02  0.22396703156E+01 -0.88336771606E+02  0.92880305495E+02  0.00000000000E+00 0. -1.
</event>
<event>
 7    1  0.2693725E-009  0.9390372E+02  0.7561462E-02  0.1293664E+00
         -1   -1    0    0    0  501 -0.00000000000E+00  0.00000000000E+00  0.43543454840E+03  0.43543454840E+03  0.00000000000E+00 0.  1.
          1   -1    0    0  501    0  0.00000000000E+00 -0.00000000000E+00 -0.23855208842E+02  0.23855208842E+02  0.00000000000E+00 0. -1.
         25    2    1    2    0    0  0.44738775232E+01 -0.60690480113E+01  0.23573750503E+03  0.26697712018E+03  0.12509101686E+03 0.  0.
          5    1    3    3  502    0 -0.47048620234E+02  0.34727239025E+02  0.95708084473E+02  0.11223664121E+03  0.41800000000E+01 0. -1.
         -5    1    3    3    0  502  0.51522497758E+02 -0.40796287037E+02  0.14002942056E+03  0.15474047898E+03  0.41800000000E+01 0. -1.
        -11    1    1    2    0    0 -0.21317560377E+02 -0.21975340030E+02  0.14192577156E+03  0.14519049067E+03  0.00000000000E+00 0.  1.
         11    1    1    2    0    0  0.16843682854E+02  0.28044388042E+02  0.33916062967E+02  0.47122146385E+02  0.00000000000E+00 0. -1.
</event>
<event>
 7    1  0.2693725E-009  0.1026039E+03  0.7561462E-02  0.1274914E+00
          1   -1    0    0  501    0  0.00000000000E+00  0.00000000000E+00  0.10335165259E+03  0.10335165259E+03  0.00000000000E+00 0. -1.
         -1   -1    0    0    0  501 -0.00000000000E+00 -0.00000000000E+00 -0.18193746358E+03  0.18193746358E+03  0.00000000000E+00 0.  1.
         25    2    1    2    0    0  0.64886487536E+02  0.31498372935E+02 -0.85649827095E+02  0.16788410298E+03  0.12508707123E+03 0.  0.
          5    1    3    3  502    0 -0.10777292891E+02  0.21304067464E+02 -0.88109724929E+02  0.91382762924E+02  0.41800000000E+01 0. -1.
         -5    1    3    3    0  502  0.75663780428E+02  0.10194305472E+02  0.24598978343E+01  0.76501340054E+02  0.41800000000E+01 0. -1.
        -11    1    1    2    0    0 -0.75187662182E+02 -0.44923560836E+02  0.26622027151E+02  0.91542575844E+02  0.00000000000E+00 0. -1.
         11    1    1    2    0    0  0.10301174646E+02  0.13425187901E+02 -0.19558011051E+02  0.25862437347E+02  0.00000000000E+00 0.  1.
</event>
<event>
 7    1  0.2693725E-009  0.1051305E+03  0.7561462E-02  0.1269863E+00
         -1   -1    0    0    0  501 -0.00000000000E+00  0.00000000000E+00  0.24517267258E+02  0.24517267258E+02  0.00000000000E+00 0.  1.
          1   -1    0    0  501    0  0.00000000000E+00 -0.00000000000E+00 -0.48716708374E+03  0.48716708374E+03  0.00000000000E+00 0. -1.
         25    2    1    2    0    0  0.84914271761E+01 -0.17057479630E+02 -0.28981532292E+03  0.31623350994E+03  0.12509056505E+03 0.  0.
          5    1    3    3  502    0 -0.46554292421E+02  0.28619900680E+02 -0.12025562773E+03  0.13215630616E+03  0.41800000000E+01 0.  1.
         -5    1    3    3    0  502  0.55045719597E+02 -0.45677380310E+02 -0.16955969519E+03  0.18407720378E+03  0.41800000000E+01 0.  1.
        -11    1    1    2    0    0 -0.12458691900E+02  0.49537746935E+02 -0.64466527923E+02  0.82250474757E+02  0.00000000000E+00 0.  1.
         11    1    1    2    0    0  0.39672647243E+01 -0.32480267306E+02 -0.10836796564E+03  0.11320036630E+03  0.00000000000E+00 0. -1.
</event>
<event>
 7    1  0.3179769E-009  0.1023594E+03  0.7561462E-02  0.1275411E+00
          1   -1    0    0  501    0  0.00000000000E+00  0.00000000000E+00  0.30605058280E+02  0.30605058280E+02  0.00000000000E+00 0. -1.
         -1   -1    0    0    0  501 -0.00000000000E+00 -0.00000000000E+00 -0.46991484968E+03  0.46991484968E+03  0.00000000000E+00 0.  1.
         25    2    1    2    0    0  0.21623966669E+02  0.36953043880E+02 -0.18810803832E+03  0.22992600613E+03  0.12509280886E+03 0.  0.
          5    1    3    3  502    0  0.70656626405E+02  0.16348354843E+02 -0.72650568245E+02  0.10273852747E+03  0.41800000000E+01 0.  1.
         -5    1    3    3    0  502 -0.49032659736E+02  0.20604689037E+02 -0.11545747007E+03  0.12718747866E+03  0.41800000000E+01 0.  1.
        -11    1    1    2    0    0 -0.24388179907E+02  0.13716122104E+02 -0.21318575564E+02  0.35176654031E+02  0.00000000000E+00 0. -1.
         11    1    1    2    0    0  0.27642132380E+01 -0.50669165983E+02 -0.22988317751E+03  0.23541724779E+03  0.00000000000E+00 0.  1.
</event>
<event>
 7    1  0.2693725E-009  0.1159824E+03  0.7561462E-02  0.1249876E+00
         -1   -1    0    0    0  501 -0.00000000000E+00  0.00000000000E+00  0.46903999567E+03  0.46903999567E+03  0.00000000000E+00 0.  1.
          1   -1    0    0  501    0  0.00000000000E+00 -0.00000000000E+00 -0.41535255745E+02  0.41535255745E+02  0.00000000000E+00 0. -1.
         25    2    1    2    0    0 -0.75816801034E+02  0.45222457427E+02  0.24790958826E+03  0.29137583226E+03  0.12508978256E+03 0.  0.
          5    1    3    3  502    0 -0.26645266002E+02  0.64671068372E+02  0.22111007765E+03  0.23194709768E+03  0.41800000000E+01 0. -1.
         -5    1    3    3    0  502 -0.49171535033E+02 -0.19448610945E+02  0.26799510616E+02  0.59428734585E+02  0.41800000000E+01 0. -1.
        -11    1    1    2    0    0  0.20921591077E+02  0.16209618109E+02  0.10424595656E+03  0.10755316895E+03  0.00000000000E+00 0.  1.
         11    1    1    2    0    0  0.54895209957E+02 -0.61432075536E+02  0.75349195099E+02  0.11164625020E+03  0.00000000000E+00 0. -1.
</event>
<event>
 7    1  0.2693725E-009  0.1248656E+03  0.7561462E-02  0.1235280E+00
          2   -1    0    0  501    0  0.00000000000E+00  0.00000000000E+00  0.82569345556E+03  0.82569345556E+03  0.00000000000E+00 0. -1.
         -2   -1    0    0    0  501 -0.00000000000E+00 -0.00000000000E+00 -0.21704335816E+02  0.21704335816E+02  0.00000000000E+00 0.  1.
         25    2    1    2    0    0  0.29822343894E+02 -0.66077303322E+02  0.53939151150E+03  0.55843315920E+03  0.12509519737E+03 0.  0.
          5    1    3    3  502    0 -0.20254630415E+02  0.24493511728E+02  0.60497165828E+02  0.68465769865E+02  0.41800000000E+01 0.  1.
         -5    1    3    3    0  502  0.50076974308E+02 -0.90570815050E+02  0.47889434567E+03  0.48996738933E+03  0.41800000000E+01 0.  1.
        -11    1    1    2    0    0 -0.15989088496E+02  0.87306425926E+02  0.18066320769E+03  0.20128899019E+03  0.00000000000E+00 0.  1.
         11    1    1    2    0    0 -0.13833255397E+02 -0.21229122604E+02  0.83934400556E+02  0.87675641989E+02  0.00000000000E+00 0. -1.
</event>
<event>
 7    1  0.2693725E-009  0.1098097E+03  0.7561462E-02  0.1260923E+00
         -1   -1    0    0    0  501 -0.00000000000E+00  0.00000000000E+00  0.45632880879E+02  0.45632880879E+02  0.00000000000E+00 0.  1.
          1   -1    0    0  501    0  0.00000000000E+00 -0.00000000000E+00 -0.42385861881E+03  0.42385861881E+03  0.00000000000E+00 0. -1.
         25    2    1    2    0    0  0.86059955473E+02 -0.44827607268E+01 -0.29795238497E+03  0.33443878716E+03  0.12508903855E+03 0.  0.
          5    1    3    3  502    0  0.10276761141E+02 -0.41713360357E+02 -0.20198981969E+03  0.20655017770E+03  0.41800000000E+01 0. -1.
         -5    1    3    3    0  502  0.75783194332E+02  0.37230599630E+02 -0.95962565286E+02  0.12788860945E+03  0.41800000000E+01 0. -1.
        -11    1    1    2    0    0 -0.75194885620E+02 -0.77069572905E+01 -0.28529658925E+02  0.80793622598E+02  0.00000000000E+00 0.  1.
         11    1    1    2    0    0 -0.10865069853E+02  0.12189718017E+02 -0.51743694035E+02  0.54259089936E+02  0.00000000000E+00 0. -1.
</event>
<event>
 7    1  0.2693725E-009  0.2329561E+03  0.7561462E-02  0.1124576E+00
         -2   -1    0    0    0  501 -0.00000000000E+00  0.00000000000E+00  0.92112360957E+03  0.92112360957E+03  0.00000000000E+00 0.  1.
          2   -1    0    0  501    0  0.00000000000E+00 -0.00000000000E+00 -0.60759487848E+02  0.60759487848E+02  0.00000000000E+00 0. -1.
         25    2    1    2    0    0  0.18046115033E+03  0.10634294681E+03  0.51027212037E+03  0.56559796935E+03  0.12509347302E+03 0.  0.
          5    1    3    3  502    0  0.12207674296E+03  0.12931134472E+03  0.33346239866E+03  0.37794020527E+03  0.41800000000E+01 0. -1.
         -5    1    3    3    0  502  0.58384407371E+02 -0.22968397903E+02  0.17680972171E+03  0.18765776408E+03  0.41800000000E+01 0. -1.
        -11    1    1    2    0    0 -0.16135754526E+03 -0.55167956787E+02  0.26038285544E+03  0.31125390323E+03  0.00000000000E+00 0. -1.
         11    1    1    2    0    0 -0.19103605066E+02 -0.51174990027E+02  0.89709145910E+02  0.10503122484E+03  0.00000000000E+00 0.  1.
</event>
<event>
 7    1  0.2693725E-009  0.1518514E+03  0.7561462E-02  0.1198216E+00
          1   -1    0    0  501    0  0.00000000000E+00  0.00000000000E+00  0.20767392734E+03  0.20767392734E+03  0.00000000000E+00 0. -1.
         -1   -1    0    0    0  501 -0.00000000000E+00 -0.00000000000E+00 -0.15306449572E+03  0.15306449572E+03  0.00000000000E+00 0.  1.
         25    2    1    2    0    0  0.25704959754E+02  0.11997508011E+03  0.99806116374E+02  0.20165391989E+03  0.12509307630E+03 0.  0.
          5    1    3    3  502    0 -0.25313171288E+00 -0.18963045310E+02 -0.10717369642E+02  0.22180973269E+02  0.41800000000E+01 0.  1.
         -5    1    3    3    0  502  0.25958091467E+02  0.13893812542E+03  0.11052348602E+03  0.17947294662E+03  0.41800000000E+01 0.  1.
        -11    1    1    2    0    0  0.13288050287E+02 -0.96403252760E+02 -0.35883781474E+01  0.97380880468E+02  0.00000000000E+00 0. -1.
         11    1    1    2    0    0 -0.38993010041E+02 -0.23571827349E+02 -0.41608306607E+02  0.61703622708E+02  0.00000000000E+00 0.  1.
</event>
<event>
 7    1  0.2693725E-009  0.1662219E+03  0.7561462E-02  0.1181846E+00
         -3   -1    0    0    0  501 -0.00000000000E+00  0.00000000000E+00  0.24745685881E+02  0.24745685881E+02  0.00000000000E+00 0.  1.
          3   -1    0    0  501    0  0.00000000000E+00 -0.00000000000E+00 -0.12830494103E+04  0.12830494103E+04  0.00000000000E+00 0. -1.
         25    2    1    2    0    0  0.71326262576E+02  0.11534907054E+03 -0.80563290467E+03  0.82648987348E+03  0.12509312565E+03 0.  0.
          5    1    3    3  502    0  0.69840946791E+02  0.18327112568E+02 -0.51509938850E+03  0.52015237511E+03  0.41800000000E+01 0. -1.
         -5    1    3    3    0  502  0.14853157851E+01  0.97021957977E+02 -0.29053351617E+03  0.30633749837E+03  0.41800000000E+01 0. -1.
        -11    1    1    2    0    0  0.21896544146E+02 -0.23648736856E+02 -0.10602784985E+03  0.11081798746E+03  0.00000000000E+00 0. -1.
         11    1    1    2    0    0 -0.93222806722E+02 -0.91700333689E+02 -0.34664296993E+03  0.37048723526E+03  0.00000000000E+00 0.  1.
</event>
<event>
 7    1  0.2693725E-009  0.7437985E+02  0.7561462E-02  0.1345802E+00
         -1   -1    0    0    0  501 -0.00000000000E+00  0.00000000000E+00  0.50462846447E+02  0.50462846447E+02  0.00000000000E+00 0.  1.
          1   -1    0    0  501    0  0.00000000000E+00 -0.00000000000E+00 -0.48251317710E+03  0.48251317710E+03  0.00000000000E+00 0. -1.
         25    2    1    2    0    0  0.52021239763E+00 -0.65841739684E+02 -0.78820848021E+02  0.16184789209E+03  0.12508640528E+03 0.  0.
          5    1    3    3  502    0  0.10334665089E+01 -0.25734254678E+01 -0.96017966330E+02  0.96148909665E+02  0.41800000000E+01 0.  1.
         -5    1    3    3    0  502 -0.51325411131E+00 -0.63268314216E+02  0.17197118308E+02  0.65698982425E+02  0.41800000000E+01 0.  1.
        -11    1    1    2    0    0 -0.15035163760E+02  0.63954411100E+02 -0.35003422547E+03  0.35614629276E+03  0.00000000000E+00 0. -1.
         11    1    1    2    0    0  0.14514951362E+02  0.18873285839E+01 -0.31952571592E+01  0.14981838690E+02  0.00000000000E+00 0.  1.
</event>
<event>
 7    1  0.2693725E-009  0.1065420E+03  0.7561462E-02  0.1267111E+00
          1   -1    0    0  501    0  0.00000000000E+00  0.00000000000E+00  0.32980046431E+03  0.32980046431E+03  0.00000000000E+00 0. -1.
         -1   -1    0    0    0  501 -0.00000000000E+00 -0.00000000000E+00 -0.41588056046E+02  0.41588056046E+02  0.00000000000E+00 0.  1.
         25    2    1    2    0    0 -0.32521852399E+02  0.24641362533E+02  0.20809269919E+03  0.24620256325E+03  0.12509301766E+03 0.  0.
          5    1    3    3  502    0 -0.72832746883E+02  0.42779267616E+02  0.15840569690E+03  0.17956756936E+03  0.41800000000E+01 0.  1.
         -5    1    3    3    0  502  0.40310894484E+02 -0.18137905082E+02  0.49687002288E+02  0.66634993894E+02  0.41800000000E+01 0.  1.
        -11    1    1    2    0    0 -0.39871653910E+01  0.23420125805E+02  0.54812019301E+02  0.59739076327E+02  0.00000000000E+00 0. -1.
         11    1    1    2    0    0  0.36509017790E+02 -0.48061488338E+02  0.25307689778E+02  0.65446880775E+02  0.00000000000E+00 0.  1.
</event>
<event>
 7    1  0.2693725E-009  0.9396023E+02  0.7561462E-02  0.1293535E+00
          1   -1    0    0  501    0  0.00000000000E+00  0.00000000000E+00  0.30909704459E+03  0.30909704459E+03  0.00000000000E+00 0. -1.
         -1   -1    0    0    0  501 -0.00000000000E+00 -0.00000000000E+00 -0.60347633927E+02  0.60347633927E+02  0.00000000000E+00 0.  1.
         25    2    1    2    0    0 -0.17477704406E+02 -0.32193845951E+02  0.23460137647E+03  0.26837781703E+03  0.12508770108E+03 0.  0.
          5    1    3    3  502    0  0.40385291622E+02 -0.46577423416E+02  0.16741127137E+03  0.17845008919E+03  0.41800000000E+01 0.  1.
         -5    1    3    3    0  502 -0.57862996027E+02  0.14383577465E+02  0.67190105101E+02  0.89927727835E+02  0.41800000000E+01 0.  1.
        -11    1    1    2    0    0  0.28779527923E+02  0.42325233108E+02  0.44053114015E+02  0.67530463049E+02  0.00000000000E+00 0. -1.
         11    1    1    2    0    0 -0.11301823517E+02 -0.10131387157E+02 -0.29905079829E+02  0.33536398436E+02  0.00000000000E+00 0.  1.
</event>
<event>
 7    1  0.2693725E-009  0.1210683E+03  0.7561462E-02  0.1241345E+00
          1   -1    0    0  501    0  0.00000000000E+00  0.00000000000E+00  0.18272405908E+03  0.18272405908E+03  0.00000000000E+00 0. -1.
         -1   -1    0    0    0  501 -0.00000000000E+00 -0.00000000000E+00 -0.10144923477E+03  0.10144923477E+03  0.00000000000E+00 0.  1.
         25    2    1    2    0    0  0.73179871387E+02 -0.31320352883E+02  0.19720547309E+02  0.14957416418E+03  0.12508905837E+03 0.  0.
          5    1    3    3  502    0  0.91526465198E+02  0.40589084298E+01 -0.19213463376E+02  0.93702711509E+02  0.41800000000E+01 0. -1.
         -5    1    3    3    0  502 -0.18346593811E+02 -0.35379261313E+02  0.38934010684E+02  0.55871452670E+02  0.41800000000E+01 0. -1.
        -11    1    1    2    0    0 -0.89462083679E+02  0.27939932947E+02  0.29108019302E+02  0.98139599841E+02  0.00000000000E+00 0.  1.
         11    1    1    2    0    0  0.16282212292E+02  0.33804199365E+01  0.32446257702E+02  0.36459529823E+02  0.00000000000E+00 0. -1.
</event>
<event>
 7    1  0.2693725E-009  0.1043189E+03  0.7561462E-02  0.1271467E+00
         -4   -1    0    0    0  501 -0.00000000000E+00  0.00000000000E+00  0.17610823007E+02  0.17610823007E+02  0.00000000000E+00 0. -1.
          4   -1    0    0  501    0  0.00000000000E+00 -0.00000000000E+00 -0.67965477657E+03  0.67965477657E+03  0.00000000000E+00 0.  1.
         25    2    1    2    0    0 -0.16081078691E+02  0.60386491800E+01 -0.43645056069E+03  0.45434741247E+03  0.12508961951E+03 0.  0.
          5    1    3    3  502    0 -0.56857301612E+02  0.42134158385E+02 -0.22157898091E+03  0.23264298234E+03  0.41800000000E+01 0.  1.
         -5    1    3    3    0  502  0.40776222921E+02 -0.36095509205E+02 -0.21487157979E+03  0.22170443013E+03  0.41800000000E+01 0.  1.
        -11    1    1    2    0    0 -0.18791983265E+02  0.28441298246E+02 -0.49348997029E+02  0.59978075901E+02  0.00000000000E+00 0. -1.
         11    1    1    2    0    0  0.34873061955E+02 -0.34479947426E+02 -0.17624439584E+03  0.18294011121E+03  0.00000000000E+00 0.  1.
</event>
<event>
 7    1  0.2844509E-009  0.2048243E+03  0.7561462E-02  0.1145731E+00
          1   -1    0    0  501    0  0.00000000000E+00  0.00000000000E+00  0.11008572356E+04  0.11008572356E+04  0.00000000000E+00 0. -1.
         -1   -1    0    0    0  501 -0.00000000000E+00 -0.00000000000E+00 -0.45228552056E+02  0.45228552056E+02  0.00000000000E+00 0.  1.
         25    2    1    2    0    0  0.19340389563E+03 -0.20712305607E+02  0.55435769958E+03  0.60066106440E+03  0.12508872353E+03 0.  0.
          5    1    3    3  502    0  0.70956861067E+02 -0.72259861362E+01  0.66959811831E+02  0.97919251470E+02  0.41800000000E+01 0.  1.
         -5    1    3    3    0  502  0.12244703457E+03 -0.13486319471E+02  0.48739788775E+03  0.50274181293E+03  0.41800000000E+01 0.  1.
        -11    1    1    2    0    0 -0.61003813045E+01  0.26855646946E+02  0.67524362899E+02  0.72924481553E+02  0.00000000000E+00 0. -1.
         11    1    1    2    0    0 -0.18730351433E+03 -0.61433413387E+01  0.43374662108E+03  0.47250024172E+03  0.00000000000E+00 0.  1.
</event>
<event>
 7    1  0.2693725E-009  0.1708942E+03  0.7561462E-02  0.1176919E+00
         -1   -1    0    0    0  501 -0.00000000000E+00  0.00000000000E+00  0.10005649803E+04  0.10005649803E+04  0.00000000000E+00 0.  1.
          1   -1    0    0  501    0  0.00000000000E+00 -0.00000000000E+00 -0.30505485022E+02  0.30505485022E+02  0.00000000000E+00 0. -1.
         25    2    1    2    0    0  0.12244435402E+03  0.50570114056E+02  0.56650756552E+03  0.59508643078E+03  0.12508829698E+03 0.  0.
          5    1    3    3  502    0  0.12942067966E+03  0.75965651786E+02  0.41657397351E+03  0.44280000043E+03  0.41800000000E+01 0. -1.
         -5    1    3    3    0  502 -0.69763256422E+01 -0.25395537731E+02  0.14993359201E+03  0.15228643035E+03  0.41800000000E+01 0. -1.
        -11    1    1    2    0    0 -0.43639305257E+02  0.29480989948E+02  0.13136307930E+03  0.14152659232E+03  0.00000000000E+00 0. -1.
         11    1    1    2    0    0 -0.78805048761E+02 -0.80051104003E+02  0.27218885043E+03  0.29445744219E+03  0.00000000000E+00 0.  1.
</event>
<event>
 7    1  0.2693725E-009  0.9287681E+02  0.7561462E-02  0.1296031E+00
         -1   -1    0    0    0  501 -0.00000000000E+00  0.00000000000E+00  0.34362435407E+03  0.34362435407E+03  0.00000000000E+00 0.  1.
          1   -1    0    0  501    0  0.00000000000E+00 -0.00000000000E+00 -0.52461411568E+02  0.52461411568E+02  0.00000000000E+00 0. -1.
         25    2    1    2    0    0 -0.38491587961E+02 -0.67101447971E+02  0.14043804530E+03  0.20335900213E+03  0.12509129672E+03 0.  0.
          5    1    3    3  502    0 -0.43323651133E+02 -0.38618022012E+02 -0.17418643158E+01  0.58213373575E+02  0.41800000000E+01 0.  1.
         -5    1    3    3    0  502  0.48320631725E+01 -0.28483425958E+02  0.14217990962E+03  0.14514562855E+03  0.41800000000E+01 0.  1.
        -11    1    1    2    0    0  0.54024480791E+02  0.40307226589E+02  0.41407659835E+02  0.79106961344E+02  0.00000000000E+00 0. -1.
         11    1    1    2    0    0 -0.15532892830E+02  0.26794221381E+02  0.10931723736E+03  0.11361980216E+03  0.00000000000E+00 0.  1.
</event>
<event>
 7    1  0.2693725E-009  0.1653337E+03  0.7561462E-02  0.1182803E+00
         -2   -1    0    0    0  501 -0.00000000000E+00  0.00000000000E+00  0.29932824751E+02  0.29932824751E+02  0.00000000000E+00 0.  1.
          2   -1    0    0  501    0  0.00000000000E+00 -0.00000000000E+00 -0.10938777903E+04  0.10938777903E+04  0.00000000000E+00 0. -1.
         25    2    1    2    0    0 -0.14239327738E+03  0.30260384024E+01 -0.64831819704E+03  0.67546047044E+03  0.12508141414E+03 0.  0.
          5    1    3    3  502    0 -0.17471215106E+02 -0.49467614687E+02 -0.21961049740E+03  0.22582854387E+03  0.41800000000E+01 0.  1.
         -5    1    3    3    0  502 -0.12492206227E+03  0.52493653089E+02 -0.42870769964E+03  0.44963192657E+03  0.41800000000E+01 0.  1.
        -11    1    1    2    0    0  0.12721892380E+02 -0.13031765803E+01  0.17996322473E+00  0.12789730321E+02  0.00000000000E+00 0.  1.
         11    1    1    2    0    0  0.12967138500E+03 -0.17228618221E+01 -0.41580673169E+03  0.43556041425E+03  0.00000000000E+00 0. -1.
</event>
<event>
 7    1  0.2693725E-009  0.1568092E+03  0.7561462E-02  0.1192347E+00
          1   -1    0    0  501    0  0.00000000000E+00  0.00000000000E+00  0.41447862157E+03  0.41447862157E+03  0.00000000000E+00 0. -1.
         -1   -1    0    0    0  501 -0.00000000000E+00 -0.00000000000E+00 -0.13804265975E+03  0.13804265975E+03  0.00000000000E+00 0.  1.
         25    2    1    2    0    0 -0.33492248311E+02 -0.15017118006E+03  0.30951382274E+03  0.36758597514E+03  0.12509008209E+03 0.  0.
          5    1    3    3  502    0 -0.11145819264E+02 -0.11047634175E+03  0.88964034796E+02  0.14234227503E+03  0.41800000000E+01 0. -1.
         -5    1    3    3    0  502 -0.22346429048E+02 -0.39694838309E+02  0.22054978794E+03  0.22524370011E+03  0.41800000000E+01 0. -1.
        -11    1    1    2    0    0  0.14813498972E+02  0.12238218875E+03 -0.64401851851E+02  0.13908428523E+03  0.00000000000E+00 0.  1.
         11    1    1    2    0    0  0.18678749340E+02  0.27788991303E+02  0.31323990930E+02  0.45851020952E+02  0.00000000000E+00 0. -1.
</event>
<event>
 7    1  0.2693725E-009  0.1229286E+03  0.7561462E-02  0.1238343E+00
          1   -1    0    0  501    0  0.00000000000E+00  0.00000000000E+00  0.34649651534E+02  0.34649651534E+02  0.00000000000E+00 0. -1.
         -1   -1    0    0    0  501 -0.00000000000E+00 -0.00000000000E+00 -0.53105824916E+03  0.53105824916E+03  0.00000000000E+00 0.  1.
         25    2    1    2    0    0 -0.54596389685E+02 -0.58865235013E+02 -0.30771681425E+03  0.34173568524E+03  0.12509100341E+03 0.  0.
          5    1    3    3  502    0  0.55966648323E+01 -0.68183217787E+02 -0.77039386793E+02  0.10311553405E+03  0.41800000000E+01 0. -1.
         -5    1    3    3    0  502 -0.60193054518E+02  0.93179827736E+01 -0.23067742746E+03  0.23862015119E+03  0.41800000000E+01 0. -1.
        -11    1    1    2    0    0  0.27527012260E+01  0.64097659310E+02 -0.73619154587E+02  0.97651765039E+02  0.00000000000E+00 0. -1.
         11    1    1    2    0    0  0.51843688459E+02 -0.52324242972E+01 -0.11507262879E+03  0.12632045041E+03  0.00000000000E+00 0.  1.
</event>
<event>
 7    1  0.2693725E-009  0.1459787E+03  0.7561462E-02  0.1205503E+00
         -1   -1    0    0    0  501 -0.00000000000E+00  0.00000000000E+00  0.99314352945E+03  0.99314352945E+03  0.00000000000E+00 0.  1.
          1   -1    0    0  501    0  0.00000000000E+00 -0.00000000000E+00 -0.31889835874E+02  0.31889835874E+02  0.00000000000E+00 0. -1.
         25    2    1    2    0    0 -0.13110314469E+03 -0.95207452997E+01  0.64515378581E+03  0.67018712349E+03  0.12509474013E+03 0.  0.
          5    1    3    3  502    0 -0.13560734049E+03  0.44923955574E+01  0.63969801383E+03  0.65394231680E+03  0.41800000000E+01 0.  1.
         -5    1    3    3    0  502  0.45041957961E+01 -0.14013140857E+02  0.54557719876E+01  0.16244806691E+02  0.41800000000E+01 0.  1.
        -11    1    1    2    0    0  0.50600862624E+02  0.28674187022E+02  0.22220938391E+03  0.22969472479E+03  0.00000000000E+00 0.  1.
         11    1    1    2    0    0  0.80502282070E+02 -0.19153441722E+02  0.93890523858E+02  0.12515151704E+03  0.00000000000E+00 0. -1.
</event>
<event>
 7    1  0.2693725E-009  0.1004052E+03  0.7561462E-02  0.1279446E+00
          1   -1    0    0  501    0  0.00000000000E+00  0.00000000000E+00  0.50162703670E+03  0.50162703670E+03  0.00000000000E+00 0. -1.
         -1   -1    0    0    0  501 -0.00000000000E+00 -0.00000000000E+00 -0.27296371230E+02  0.27296371230E+02  0.00000000000E+00 0.  1.
         25    2    1    2    0    0 -0.21283927491E+02  0.29255270309E+01  0.35961586630E+03  0.38135474962E+03  0.12508520888E+03 0.  0.
          5    1    3    3  502    0  0.41530993027E+02 -0.11883357185E+02  0.25270847752E+03  0.25640804311E+03  0.41800000000E+01 0. -1.
         -5    1    3    3    0  502 -0.62814920518E+02  0.14808884216E+02  0.10690738878E+03  0.12494670651E+03  0.41800000000E+01 0. -1.
        -11    1    1    2    0    0 -0.12870234644E+02 -0.40183981928E+02  0.48983375108E+02  0.64651112754E+02  0.00000000000E+00 0.  1.
         11    1    1    2    0    0  0.34154162135E+02  0.37258454897E+02  0.65731424064E+02  0.82917545561E+02  0.00000000000E+00 0. -1.
</event>
<event>
 7    1  0.2693725E-009  0.1060212E+03  0.7561462E-02  0.1268121E+00
          1   -1    0    0  501    0  0.00000000000E+00  0.00000000000E+00  0.52472215727E+02  0.52472215727E+02  0.00000000000E+00 0. -1.
         -1   -1    0    0    0  501 -0.00000000000E+00 -0.00000000000E+00 -0.29294104304E+03  0.29294104304E+03  0.00000000000E+00 0.  1.
         25    2    1    2    0    0  0.53103093319E+00  0.55295280990E+02 -0.16966208462E+03  0.21792230054E+03  0.12508819299E+03 0.  0.
          5    1    3    3  502    0  0.56484902168E+02  0.18236814393E+02 -0.39509638562E+02  0.71425552231E+02  0.41800000000E+01 0. -1.
         -5    1    3    3    0  502 -0.55953871235E+02  0.37058466597E+02 -0.13015244605E+03  0.14649674831E+03  0.41800000000E+01 0. -1.
        -11    1    1    2    0    0  0.32205111326E+02 -0.26944164446E+02 -0.72906295399E+02  0.84133733437E+02  0.00000000000E+00 0.  1.
         11    1    1    2    0    0 -0.32736142259E+02 -0.28351116544E+02  0.20995527041E+01  0.43357224783E+02  0.00000000000E+00 0. -1.
</event>
<event>
 7    1  0.2693725E-009  0.1562076E+03  0.7561462E-02  0.1193046E+00
         -2   -1    0    0    0  501 -0.00000000000E+00  0.00000000000E+00  0.57769717932E+02  0.57769717932E+02  0.00000000000E+00 0.  1.
          2   -1    0    0  501    0  0.00000000000E+00 -0.00000000000E+00 -0.58128860279E+03  0.58128860279E+03  0.00000000000E+00 0. -1.
         25    2    1    2    0    0 -0.13544629441E+03 -0.56927574037E+02 -0.27349705608E+03  0.33471706289E+03  0.12509366552E+03 0.  0.
          5    1    3    3  502    0 -0.33480495566E+02 -0.45345309575E+02 -0.20153062215E+03  0.20930648520E+03  0.41800000000E+01 0.  1.
         -5    1    3    3    0  502 -0.10196579885E+03 -0.11582264462E+02 -0.71966433927E+02  0.12541057769E+03  0.41800000000E+01 0.  1.
        -11    1    1    2    0    0  0.83677624609E+02  0.57302616605E+02 -0.22508562378E+03  0.24687865999E+03  0.00000000000E+00 0. -1.
         11    1    1    2    0    0  0.51768669803E+02 -0.37504256791E+00 -0.24936205009E+02  0.57462597838E+02  0.00000000000E+00 0.  1.
</event>
<event>
 7    1  0.2693725E-009  0.1191065E+03  0.7561462E-02  0.1244578E+00
          1   -1    0    0  501    0  0.00000000000E+00  0.00000000000E+00  0.53303037312E+03  0.53303037312E+03  0.00000000000E+00 0. -1.
         -1   -1    0    0    0  501 -0.00000000000E+00 -0.00000000000E+00 -0.28561228062E+02  0.28561228062E+02  0.00000000000E+00 0.  1.
         25    2    1    2    0    0 -0.92434834495E+01 -0.53566111375E+02  0.23842325377E+03  0.27467888950E+03  0.12509226244E+03 0.  0.
          5    1    3    3  502    0  0.42579732617E+02  0.19092543333E+02  0.89133126872E+02  0.10069630354E+03  0.41800000000E+01 0. -1.
         -5    1    3    3    0  502 -0.51823216066E+02 -0.72658654707E+02  0.14929012690E+03  0.17398258596E+03  0.41800000000E+01 0. -1.
        -11    1    1    2    0    0 -0.38773449302E+02  0.25326115990E+02  0.77235292457E+02  0.90055998817E+02  0.00000000000E+00 0.  1.
         11    1    1    2    0    0  0.48016932752E+02  0.28239995385E+02  0.18881059883E+03  0.19685671287E+03  0.00000000000E+00 0. -1.
</event>
<event>
 7    1  0.2693725E-009  0.1150043E+03  0.7561462E-02  0.1251574E+00
         -2   -1    0    0    0  501 -0.00000000000E+00  0.00000000000E+00  0.77564303996E+02  0.77564303996E+02  0.00000000000E+00 0.  1.
          2   -1    0    0  501    0  0.00000000000E+00 -0.00000000000E+00 -0.25704967887E+03  0.25704967887E+03  0.00000000000E+00 0. -1.
         25    2    1    2    0    0 -0.69214978847E+02  0.44432674251E+02 -0.11005758998E+03  0.18580947505E+03  0.12509001585E+03 0.  0.
          5    1    3    3  502    0 -0.30984787831E+00 -0.13108780942E+02  0.22073599603E+02  0.26012542031E+02  0.41800000000E+01 0.  1.
         -5    1    3    3    0  502 -0.68905130968E+02  0.57541455193E+02 -0.13213118959E+03  0.15979693301E+03  0.41800000000E+01 0.  1.
        -11    1    1    2    0    0  0.39163547274E+02 -0.74311566889E+02 -0.25540729267E+02  0.87797045850E+02  0.00000000000E+00 0. -1.
         11    1    1    2    0    0  0.30051431573E+02  0.29878892638E+02 -0.43887055629E+02  0.61007461975E+02  0.00000000000E+00 0.  1.
</event>
<event>
 7    1  0.2693725E-009  0.3055823E+03  0.7561462E-02  0.1082483E+00
         -2   -1    0    0    0  501 -0.00000000000E+00  0.00000000000E+00  0.56421123150E+02  0.56421123150E+02  0.00000000000E+00 0.  1.
          2   -1    0    0  501    0  0.00000000000E+00 -0.00000000000E+00 -0.20995354210E+04  0.20995354210E+04  0.00000000000E+00 0. -1.
         25    2    1    2    0    0  0.28673764230E+03  0.84332464954E+02 -0.62269171049E+03  0.70193979416E+03  0.12507624936E+03 0.  0.
          5    1    3    3  502    0  0.27299877472E+03  0.86837532460E+02 -0.62465886951E+03  0.68723013882E+03  0.41800000000E+01 0. -1.
         -5    1    3    3    0  502  0.13738867578E+02 -0.25050675067E+01  0.19671590226E+01  0.14709655338E+02  0.41800000000E+01 0. -1.
        -11    1    1    2    0    0 -0.11030272323E+03  0.86526620761E+01 -0.55337966813E+03  0.56433200903E+03  0.00000000000E+00 0.  1.
         11    1    1    2    0    0 -0.17643491907E+03 -0.92985127030E+02 -0.86704291927E+03  0.88968474100E+03  0.00000000000E+00 0. -1.
</event>
<event>
 7    1  0.2693725E-009  0.1055445E+03  0.7561462E-02  0.1269051E+00
         -1   -1    0    0    0  501 -0.00000000000E+00  0.00000000000E+00  0.18241331734E+02  0.18241331734E+02  0.00000000000E+00 0.  1.
          1   -1    0    0  501    0  0.00000000000E+00 -0.00000000000E+00 -0.10879760170E+04  0.10879760170E+04  0.00000000000E+00 0. -1.
         25    2    1    2    0    0 -0.84890869675E+02  0.21419784546E+02 -0.67116897712E+03  0.68831673872E+03  0.12508744950E+03 0.  0.
          5    1    3    3  502    0 -0.57919886387E+02  0.23095838113E+02 -0.65184376056E+03  0.65483272029E+03  0.41800000000E+01 0. -1.
         -5    1    3    3    0  502 -0.26970983288E+02 -0.16760535662E+01 -0.19325216563E+02  0.33484018431E+02  0.41800000000E+01 0. -1.
        -11    1    1    2    0    0  0.52890187631E+02 -0.53996783902E+02 -0.19187945193E+03  0.20622984433E+03  0.00000000000E+00 0.  1.
         11    1    1    2    0    0  0.32000682043E+02  0.32576999356E+02 -0.20668625617E+03  0.21167076564E+03  0.00000000000E+00 0. -1.
</event>
<event>
 7    1  0.2693725E-009  0.1944546E+03  0.7561462E-02  0.1154504E+00
         -1   -1    0    0    0  501 -0.00000000000E+00  0.00000000000E+00  0.20329781038E+04  0.20329781038E+04  0.00000000000E+00 0.  1.
          1   -1    0    0  501    0  0.00000000000E+00 -0.00000000000E+00 -0.22264125936E+02  0.22264125936E+02  0.00000000000E+00 0. -1.
         25    2    1    2    0    0  0.45397029674E+02  0.17678722142E+03  0.11006040688E+04  0.11226271514E+04  0.12509113840E+03 0.  0.
          5    1    3    3  502    0  0.45748757111E+02  0.18641056460E+03  0.10928253286E+04  0.11095614083E+04  0.41800000000E+01 0. -1.
         -5    1    3    3    0  502 -0.35172743686E+00 -0.96233431774E+01  0.77787401474E+01  0.13065743162E+02  0.41800000000E+01 0. -1.
        -11    1    1    2    0    0  0.62156904815E+01 -0.34707581980E+02  0.63653651630E+02  0.72767014648E+02  0.00000000000E+00 0. -1.
         11    1    1    2    0    0 -0.51612720156E+02 -0.14207963944E+03  0.84645625740E+03  0.85984806363E+03  0.00000000000E+00 0.  1.
</event>
<event>
 7    1  0.2693725E-009  0.1120974E+03  0.7561462E-02  0.1256734E+00
         -2   -1    0    0    0  501 -0.00000000000E+00  0.00000000000E+00  0.15937917415E+02  0.15937917415E+02  0.00000000000E+00 0.  1.
          2   -1    0    0  501    0  0.00000000000E+00 -0.00000000000E+00 -0.87879731855E+03  0.87879731855E+03  0.00000000000E+00 0. -1.
         25    2    1    2    0    0 -0.36409706325E+02 -0.24875046632E+02 -0.53855595302E+03  0.55465002752E+03  0.12509877631E+03 0.  0.
          5    1    3    3  502    0 -0.20525379527E+02  0.49506707740E+02 -0.27970321749E+03  0.28482199282E+03  0.41800000000E+01 0. -1.
         -5    1    3    3    0  502 -0.15884326798E+02 -0.74381754372E+02 -0.25885273552E+03  0.26982803470E+03  0.41800000000E+01 0. -1.
        -11    1    1    2    0    0  0.33428307400E+02  0.54800645579E+02 -0.27450320239E+03  0.28190879840E+03  0.00000000000E+00 0. -1.
         11    1    1    2    0    0  0.29813989250E+01 -0.29925598947E+02 -0.49800245726E+02  0.58176410050E+02  0.00000000000E+00 0.  1.
</event>
<event>
 7    1  0.2693725E-009  0.9533414E+02  0.7561462E-02  0.1290425E+00
          2   -1    0    0  501    0  0.00000000000E+00  0.00000000000E+00  0.28864549748E+03  0.28864549748E+03  0.00000000000E+00 0. -1.
         -2   -1    0    0    0  501 -0.00000000000E+00 -0.00000000000E+00 -0.59555351963E+02  0.59555351963E+02  0.00000000000E+00 0.  1.
         25    2    1    2    0    0 -0.28163546593E+02  0.68349145039E+02  0.13797648190E+03  0.20037403425E+03  0.12508978000E+03 0.  0.
          5    1    3    3  502    0  0.90299730558E+01  0.39156184617E+02 -0.12738309983E+02  0.42361352060E+02  0.41800000000E+01 0. -1.
         -5    1    3    3    0  502 -0.37193519649E+02  0.29192960422E+02  0.15071479188E+03  0.15801268219E+03  0.41800000000E+01 0. -1.
        -11    1    1    2    0    0  0.36562231910E+02 -0.80278163391E+02  0.44139139008E+02  0.98638957375E+02  0.00000000000E+00 0.  1.
         11    1    1    2    0    0 -0.83986853177E+01  0.11929018352E+02  0.46974524611E+02  0.49187857814E+02  0.00000000000E+00 0. -1.
</event>
<event>
 7    1  0.2693725E-009  0.9480894E+02  0.7561462E-02  0.1291607E+00
          1   -1    0    0  501    0  0.00000000000E+00  0.00000000000E+00  0.53451027343E+03  0.53451027343E+03  0.00000000000E+00 0. -1.
         -1   -1    0    0    0  501 -0.00000000000E+00 -0.00000000000E+00 -0.30777895717E+02  0.30777895717E+02  0.00000000000E+00 0.  1.
         25    2    1    2    0    0 -0.19189092140E+02 -0.27211232087E+02  0.14735950743E+03  0.19614039379E+03  0.12509019639E+03 0.  0.
          5    1    3    3  502    0 -0.71005022284E+01  0.31997823148E+02  0.12852597733E+03  0.13270522622E+03  0.41800000000E+01 0. -1.
         -5    1    3    3    0  502 -0.12088589911E+02 -0.59209055234E+02  0.18833530107E+02  0.63435167565E+02  0.41800000000E+01 0. -1.
        -11    1    1    2    0    0  0.64147093696E+01 -0.33424564922E+02  0.11337811451E+03  0.11837629360E+03  0.00000000000E+00 0.  1.
         11    1    1    2    0    0  0.12774382770E+02  0.60635797008E+02  0.24299475577E+03  0.25077148176E+03  0.00000000000E+00 0. -1.
</event>
<event>
 7    1  0.3014392E-009  0.1415158E+03  0.7561462E-02  0.1211304E+00
         -2   -1    0    0    0  501 -0.00000000000E+00  0.00000000000E+00  0.34631774051E+02  0.34631774051E+02  0.00000000000E+00 0.  1.
          2   -1    0    0  501    0  0.00000000000E+00 -0.00000000000E+00 -0.61907513584E+03  0.61907513584E+03  0.00000000000E+00 0. -1.
         25    2    1    2    0    0 -0.88577704122E+02 -0.20290261937E+02 -0.39939402553E+03  0.42827638017E+03  0.12508943115E+03 0.  0.
          5    1    3    3  502    0  0.29544907084E+02 -0.20768617821E+02 -0.88978056864E+02  0.96118697579E+02  0.41800000000E+01 0.  1.
         -5    1    3    3    0  502 -0.11812261121E+03  0.47835588376E+00 -0.31041596867E+03  0.33215768259E+03  0.41800000000E+01 0.  1.
        -11    1    1    2    0    0  0.51546068965E+02 -0.34731943732E+02 -0.82274673370E+02  0.10311366068E+03  0.00000000000E+00 0. -1.
         11    1    1    2    0    0  0.37031635158E+02  0.55022205670E+02 -0.10277466288E+03  0.12231686903E+03  0.00000000000E+00 0.  1.
</event>
<event>
 7    1  0.2693725E-009  0.2303982E+03  0.7561462E-02  0.1126360E+00
          4   -1    0    0  501    0  0.00000000000E+00  0.00000000000E+00  0.29248194627E+03  0.29248194627E+03  0.00000000000E+00 0.  1.
         -4   -1    0    0    0  501 -0.00000000000E+00 -0.00000000000E+00 -0.24903353257E+03  0.24903353257E+03  0.00000000000E+00 0. -1.
         25    2    1    2    0    0  0.10954763334E+03 -0.18413928650E+03  0.14433898220E+03  0.28703540787E+03  0.12509045840E+03 0.  0.
          5    1    3    3  502    0  0.12602711662E+03 -0.10397989467E+03  0.11564341591E+03  0.20021369749E+03  0.41800000000E+01 0. -1.
         -5    1    3    3    0  502 -0.16479483284E+02 -0.80159391830E+02  0.28695566297E+02  0.86821710378E+02  0.41800000000E+01 0. -1.
        -11    1    1    2    0    0 -0.46292079395E+02  0.57171127630E+02  0.10249976908E+02  0.74273524730E+02  0.00000000000E+00 0.  1.
         11    1    1    2    0    0 -0.63255553943E+02  0.12696815887E+03 -0.11114054541E+03  0.18020654624E+03  0.00000000000E+00 0. -1.
</event>
<event>
 7    1  0.2693725E-009  0.1907974E+03  0.7561462E-02  0.1157744E+00
         -1   -1    0    0    0  501 -0.00000000000E+00  0.00000000000E+00  0.42538125579E+02  0.42538125579E+02  0.00000000000E+00 0.  1.
          1   -1    0    0  501    0  0.00000000000E+00 -0.00000000000E+00 -0.99081666156E+03  0.99081666156E+03  0.00000000000E+00 0. -1.
         25    2    1    2    0    0  0.16083861055E+03 -0.48286744640E+02 -0.38300001029E+03  0.43650106698E+03  0.12507399907E+03 0.  0.
          5    1    3    3  502    0  0.82372244558E+02 -0.70369028018E+02 -0.12285980870E+03  0.16385661955E+03  0.41800000000E+01 0.  1.
         -5    1    3    3    0  502  0.78466365993E+02  0.22082283378E+02 -0.26014020159E+03  0.27264444743E+03  0.41800000000E+01 0.  1.
        -11    1    1    2    0    0 -0.40134204287E+02 -0.27844620985E+02 -0.14273318852E+03  0.15086033400E+03  0.00000000000E+00 0.  1.
         11    1    1    2    0    0 -0.12070440626E+03  0.76131365624E+02 -0.42254533718E+03  0.44599338616E+03  0.00000000000E+00 0. -1.
</event>
<event>
 7    1  0.2693725E-009  0.5808730E+02  0.7561462E-02  0.1406038E+00
          2   -1    0    0  501    0  0.00000000000E+00  0.00000000000E+00  0.92933637472E+02  0.92933637472E+02  0.00000000000E+00 0. -1.
         -2   -1    0    0    0  501 -0.00000000000E+00 -0.00000000000E+00 -0.14095272378E+03  0.14095272378E+03  0.00000000000E+00 0.  1.
         25    2    1    2    0    0  0.38377228484E+00 -0.28162343578E+02 -0.51670576569E+02  0.13824250284E+03  0.12509147146E+03 0.  0.
          5    1    3    3  502    0  0.12401788195E+02 -0.46517916291E+02 -0.85203052968E+02  0.97952812729E+02  0.41800000000E+01 0.  1.
         -5    1    3    3    0  502 -0.12018015910E+02  0.18355572713E+02  0.33532476399E+02  0.40289690114E+02  0.41800000000E+01 0.  1.
        -11    1    1    2    0    0 -0.17833736197E+02  0.10537518997E+02 -0.40223524422E+02  0.45243931861E+02  0.00000000000E+00 0.  1.
         11    1    1    2    0    0  0.17449963912E+02  0.17624824581E+02  0.43875014686E+02  0.50399926544E+02  0.00000000000E+00 0. -1.
</event>
<event>
 7    1  0.2693725E-009  0.1007023E+03  0.7561462E-02  0.1278826E+00
          3   -1    0    0  501    0  0.00000000000E+00  0.00000000000E+00  0.19717410270E+03  0.19717410270E+03  0.00000000000E+00 0. -1.
         -3   -1    0    0    0  501 -0.00000000000E+00 -0.00000000000E+00 -0.83218294709E+02  0.83218294709E+02  0.00000000000E+00 0.  1.
         25    2    1    2    0    0  0.62267058122E+02 -0.64709353492E+01  0.94697437750E+02  0.16892030428E+03  0.12508958770E+03 0.  0.
          5    1    3    3  502    0  0.65533984357E+02 -0.27421913626E+02  0.11758439165E+03  0.13744171860E+03  0.41800000000E+01 0.  1.
         -5    1    3    3    0  502 -0.32669262354E+01  0.20950978276E+02 -0.22886953898E+02  0.31478585681E+02  0.41800000000E+01 0.  1.
        -11    1    1    2    0    0 -0.37649230381E+02  0.47603934375E+02  0.26889144705E+01  0.60752196481E+02  0.00000000000E+00 0.  1.
         11    1    1    2    0    0 -0.24617827741E+02 -0.41132999025E+02  0.16569455773E+02  0.50719896649E+02  0.00000000000E+00 0. -1.
</event>
<event>
 7    1  0.2693725E-009  0.1086124E+03  0.7561462E-02  0.1263161E+00
         -2   -1    0    0    0  501 -0.00000000000E+00  0.00000000000E+00  0.28806093541E+02  0.28806093541E+02  0.00000000000E+00 0.  1.
          2   -1    0    0  501    0  0.00000000000E+00 -0.00000000000E+00 -0.42644253247E+03  0.42644253247E+03  0.00000000000E+00 0. -1.
         25    2    1    2    0    0  0.15172563492E+02 -0.16038082331E+02 -0.19330224152E+03  0.23130327772E+03  0.12509205786E+03 0.  0.
          5    1    3    3  502    0  0.44378952371E+02 -0.59162929398E+02 -0.10123828272E+03  0.12544483217E+03  0.41800000000E+01 0. -1.
         -5    1    3    3    0  502 -0.29206388879E+02  0.43124847068E+02 -0.92063958797E+02  0.10585844556E+03  0.41800000000E+01 0. -1.
        -11    1    1    2    0    0  0.52500367216E+01 -0.35278146852E+02 -0.66578947527E+02  0.75530568545E+02  0.00000000000E+00 0.  1.
         11    1    1    2    0    0 -0.20422600213E+02  0.51316229183E+02 -0.13775524988E+03  0.14841477975E+03  0.00000000000E+00 0. -1.
</event>
<event>
 7    1  0.2693725E-009  0.1068008E+03  0.7561462E-02  0.1266612E+00
          1   -1    0    0  501    0  0.00000000000E+00  0.00000000000E+00  0.22310489618E+03  0.22310489618E+03  0.00000000000E+00 0. -1.
         -1   -1    0    0    0  501 -0.00000000000E+00 -0.00000000000E+00 -0.95642150077E+02  0.95642150077E+02  0.00000000000E+00 0.  1.
         25    2    1    2    0    0 -0.35716532183E+02  0.42715157255E+02  0.13941043496E+03  0.19540651355E+03  0.12509268895E+03 0.  0.
          5    1    3    3  502    0  0.40042325779E+01 -0.20903952644E+02 -0.13143119792E+02  0.25361843635E+02  0.41800000000E+01 0.  1.
         -5    1    3    3    0  502 -0.39720764761E+02  0.63619109899E+02  0.15255355476E+03  0.17004466991E+03  0.41800000000E+01 0.  1.
        -11    1    1    2    0    0 -0.27755349211E+02 -0.45459276352E+02  0.13427711441E+02  0.54929123885E+02  0.00000000000E+00 0. -1.
         11    1    1    2    0    0  0.63471881394E+02  0.27441190973E+01 -0.25375400298E+02  0.68411408826E+02  0.00000000000E+00 0.  1.
</event>
<event>
 7    1  0.5955600E-009  0.1122532E+03  0.7561462E-02  0.1256453E+00
          1   -1    0    0  501    0  0.00000000000E+00  0.00000000000E+00  0.24138751654E+03  0.24138751654E+03  0.00000000000E+00 0. -1.
         -1   -1    0    0    0  501 -0.00000000000E+00 -0.00000000000E+00 -0.11130006159E+03  0.11130006159E+03  0.00000000000E+00 0.  1.
         25    2    1    2    0    0 -0.93576683172E+01 -0.10620376774E+03  0.47303454309E+01  0.16442463864E+03  0.12508508858E+03 0.  0.
          5    1    3    3  502    0 -0.12791547954E+02 -0.43430748115E+02  0.63610051999E+02  0.78189287605E+02  0.41800000000E+01 0.  1.
         -5    1    3    3    0  502  0.34338796364E+01 -0.62773019623E+02 -0.58879706568E+02  0.86235351031E+02  0.41800000000E+01 0.  1.
        -11    1    1    2    0    0 -0.17078209760E+02  0.22459889870E+02  0.88739240168E+02  0.93116940709E+02  0.00000000000E+00 0. -1.
         11    1    1    2    0    0  0.26435878078E+02  0.83743877868E+02  0.36617869351E+02  0.95145998791E+02  0.00000000000E+00 0.  1.
</event>
<event>
 7    1  0.2693725E-009  0.1030475E+03  0.7561462E-02  0.1274015E+00
          1   -1    0    0  501    0  0.00000000000E+00  0.00000000000E+00  0.10451758495E+03  0.10451758495E+03  0.00000000000E+00 0. -1.
         -1   -1    0    0    0  501 -0.00000000000E+00 -0.00000000000E+00 -0.12572787400E+03  0.12572787400E+03  0.00000000000E+00 0.  1.
         25    2    1    2    0    0  0.21332605005E+02  0.31408284063E+02 -0.91123674789E+01  0.13104281698E+03  0.12509046445E+03 0.  0.
          5    1    3    3  502    0 -0.94053761774E+01  0.63308294149E+02 -0.41157087954E+02  0.76208788850E+02  0.41800000000E+01 0.  1.
         -5    1    3    3    0  502  0.30737981182E+02 -0.31900010086E+02  0.32044720475E+02  0.54834028130E+02  0.41800000000E+01 0.  1.
        -11    1    1    2    0    0 -0.27557180643E+02  0.27083003963E+02 -0.11732548470E+02  0.40379945545E+02  0.00000000000E+00 0.  1.
         11    1    1    2    0    0  0.62245756382E+01 -0.58491288026E+02 -0.36537309794E+00  0.58822696422E+02  0.00000000000E+00 0. -1.
</event>
<event>
 7    1  0.2693725E-009  0.8800958E+02  0.7561462E-02  0.1307745E+00
          2   -1    0    0  501    0  0.00000000000E+00  0.00000000000E+00  0.37430782201E+03  0.37430782201E+03  0.00000000000E+00 0. -1.
         -2   -1    0    0    0  501 -0.00000000000E+00 -0.00000000000E+00 -0.42281038822E+02  0.42281038822E+02  0.00000000000E+00 0.  1.
         25    2    1    2    0    0 -0.86134806660E+01 -0.69278745045E+02  0.18224799248E+03  0.23181056739E+03  0.12509225326E+03 0.  0.
          5    1    3    3  502    0 -0.23185586893E+01 -0.61906460734E+02  0.20095587510E+03  0.21032955506E+03  0.41800000000E+01 0. -1.
         -5    1    3    3    0  502 -0.62949219767E+01 -0.73722843111E+01 -0.18707882618E+02  0.21481012330E+02  0.41800000000E+01 0. -1.
        -11    1    1    2    0    0  0.36930643585E+02  0.64964042806E+02  0.80640713575E+02  0.10994145705E+03  0.00000000000E+00 0.  1.
         11    1    1    2    0    0 -0.28317162919E+02  0.43147022385E+01  0.69138077124E+02  0.74836836381E+02  0.00000000000E+00 0. -1.
</event>
<event>
 7    1  0.2693725E-009  0.1421217E+03  0.7561462E-02  0.1210502E+00
          1   -1    0    0  501    0  0.00000000000E+00  0.00000000000E+00  0.34134513349E+03  0.34134513349E+03  0.00000000000E+00 0. -1.
         -1   -1    0    0    0  501 -0.00000000000E+00 -0.00000000000E+00 -0.79348870484E+02  0.79348870484E+02  0.00000000000E+00 0.  1.
         25    2    1    2    0    0 -0.10539120226E+03 -0.43750323446E+02  0.20161929209E+03  0.26328229177E+03  0.12508329186E+03 0.  0.
          5    1    3    3  502    0  0.25467961709E+01 -0.42346586687E+02  0.12157233101E+03  0.12882943624E+03  0.41800000000E+01 0.  1.
         -5    1    3    3    0  502 -0.10793799843E+03 -0.14037367587E+01  0.80046961073E+02  0.13445285553E+03  0.41800000000E+01 0.  1.
        -11    1    1    2    0    0  0.83378878263E+02 -0.13626785989E+01  0.62995532912E+01  0.83627618673E+02  0.00000000000E+00 0. -1.
         11    1    1    2    0    0  0.22012323996E+02  0.45113002045E+02  0.54077417633E+02  0.73784093537E+02  0.00000000000E+00 0.  1.
</event>
<event>
 7    1  0.2693725E-009  0.4809406E+03  0.7561462E-02  0.1018877E+00
         -2   -1    0    0    0  501 -0.00000000000E+00  0.00000000000E+00  0.20830060099E+03  0.20830060099E+03  0.00000000000E+00 0.  1.
          2   -1    0    0  501    0  0.00000000000E+00 -0.00000000000E+00 -0.11565394167E+04  0.11565394167E+04  0.00000000000E+00 0. -1.
         25    2    1    2    0    0 -0.35297162118E+03 -0.32240207295E+03 -0.45112990226E+03  0.66910182600E+03  0.12508798038E+03 0.  0.
          5    1    3    3  502    0 -0.92020800760E+02 -0.10652286913E+03 -0.21192878277E+03  0.25445280660E+03  0.41800000000E+01 0.  1.
         -5    1    3    3    0  502 -0.26095082042E+03 -0.21587920382E+03 -0.23920111949E+03  0.41464901940E+03  0.41800000000E+01 0.  1.
        -11    1    1    2    0    0  0.28235040753E+03  0.21989701896E+03 -0.40762844580E+03  0.54243654136E+03  0.00000000000E+00 0.  1.
         11    1    1    2    0    0  0.70621213655E+02  0.10250505399E+03 -0.89480467683E+02  0.15330165038E+03  0.00000000000E+00 0. -1.
</event>
<event>
 7    1  0.2693725E-009  0.1131240E+03  0.7561462E-02  0.1254892E+00
          2   -1    0    0  501    0  0.00000000000E+00  0.00000000000E+00  0.13568233824E+04  0.13568233824E+04  0.00000000000E+00 0. -1.
         -2   -1    0    0    0  501 -0.00000000000E+00 -0.00000000000E+00 -0.24550708838E+02  0.24550708838E+02  0.00000000000E+00 0.  1.
         25    2    1    2    0    0 -0.31341996990E+01  0.84191606840E+02  0.11531021059E+04  0.11629231207E+04  0.12509063974E+03 0.  0.
          5    1    3    3  502    0 -0.57199859505E+02  0.57655806997E+02  0.45458031540E+03  0.46179730570E+03  0.41800000000E+01 0. -1.
         -5    1    3    3    0  502  0.54065659806E+02  0.26535799844E+02  0.69852179046E+03  0.70112581495E+03  0.41800000000E+01 0. -1.
        -11    1    1    2    0    0  0.34589523378E+01 -0.16397567229E+02 -0.85858534632E+01  0.18829801964E+02  0.00000000000E+00 0.  1.
         11    1    1    2    0    0 -0.32475263880E+00 -0.67794039611E+02  0.18775642116E+03  0.19962116861E+03  0.00000000000E+00 0. -1.
</event>
<event>
 7    1  0.2693725E-009  0.8443173E+02  0.7561462E-02  0.1316925E+00
         -2   -1    0    0    0  501 -0.00000000000E+00  0.00000000000E+00  0.16350628188E+02  0.16350628188E+02  0.00000000000E+00 0.  1.
          2   -1    0    0  501    0  0.00000000000E+00 -0.00000000000E+00 -0.80071112468E+03  0.80071112468E+03  0.00000000000E+00 0. -1.
         25    2    1    2    0    0 -0.15401094299E+02 -0.26340435504E+02 -0.50897536960E+03  0.52501076724E+03  0.12509742846E+03 0.  0.
          5    1    3    3  502    0 -0.91917536522E+01  0.21514117444E+02 -0.44047494727E+03  0.44111562787E+03  0.41800000000E+01 0.  1.
         -5    1    3    3    0  502 -0.62093406467E+01 -0.47854552948E+02 -0.68500422336E+02  0.83895139367E+02  0.41800000000E+01 0.  1.
        -11    1    1    2    0    0  0.44718451622E+02  0.43753158166E+02 -0.19304543639E+03  0.20293008470E+03  0.00000000000E+00 0. -1.
         11    1    1    2    0    0 -0.29317357323E+02 -0.17412722661E+02 -0.82339690502E+02  0.89120900932E+02  0.00000000000E+00 0.  1.
</event>
<event>
 7    1  0.2693725E-009  0.1245044E+03  0.7561462E-02  0.1235846E+00
         -2   -1    0    0    0  501 -0.00000000000E+00  0.00000000000E+00  0.51428731488E+02  0.51428731488E+02  0.00000000000E+00 0.  1.
          2   -1    0    0  501    0  0.00000000000E+00 -0.00000000000E+00 -0.38641042514E+03  0.38641042514E+03  0.00000000000E+00 0. -1.
         25    2    1    2    0    0 -0.55846944634E+02 -0.70542621365E+02 -0.20037126186E+03  0.25276932944E+03  0.12509415921E+03 0.  0.
          5    1    3    3  502    0 -0.83943154957E+02 -0.43425402383E+02 -0.73034822913E+02  0.11951475471E+03  0.41800000000E+01 0.  1.
         -5    1    3    3    0  502  0.28096210323E+02 -0.27117218982E+02 -0.12733643895E+03  0.13325457472E+03  0.41800000000E+01 0.  1.
        -11    1    1    2    0    0  0.38129794780E+02 -0.41637151340E+01 -0.11613431351E+02  0.40076047228E+02  0.00000000000E+00 0. -1.
         11    1    1    2    0    0  0.17717149854E+02  0.74706336499E+02 -0.12299700044E+03  0.14499377997E+03  0.00000000000E+00 0.  1.
</event>
<event>
 7    1  0.2693725E-009  0.2252709E+03  0.7561462E-02  0.1130013E+00
          1   -1    0    0  501    0  0.00000000000E+00  0.00000000000E+00  0.47278022622E+03  0.47278022622E+03  0.00000000000E+00 0. -1.
         -1   -1    0    0    0  501 -0.00000000000E+00 -0.00000000000E+00 -0.11835459117E+03  0.11835459117E+03  0.00000000000E+00 0.  1.
         25    2    1    2    0    0 -0.20839025530E+03  0.21953677305E+02  0.16742427469E+03  0.29594923271E+03  0.12508636270E+03 0.  0.
          5    1    3    3  502    0 -0.22227879875E+03  0.28860911106E+02  0.16756117630E+03  0.27988397018E+03  0.41800000000E+01 0.  1.
         -5    1    3    3    0  502  0.13888543450E+02 -0.69072338011E+01 -0.13690160563E+00  0.16065262525E+02  0.41800000000E+01 0.  1.
        -11    1    1    2    0    0  0.32886784162E+02 -0.10044271642E+02  0.85357743382E+02  0.92023759544E+02  0.00000000000E+00 0. -1.
         11    1    1    2    0    0  0.17550347114E+03 -0.11909405662E+02  0.10164361697E+03  0.20316182515E+03  0.00000000000E+00 0.  1.
</event>
<event>
 7    1  0.2693725E-009  0.9617794E+02  0.7561462E-02  0.1288545E+00
          1   -1    0    0  501    0  0.00000000000E+00  0.00000000000E+00  0.25677396351E+03  0.25677396351E+03  0.00000000000E+00 0. -1.
         -1   -1    0    0    0  501 -0.00000000000E+00 -0.00000000000E+00 -0.61184882758E+02  0.61184882758E+02  0.00000000000E+00 0.  1.
         25    2    1    2    0    0 -0.52824231493E+02  0.35193714639E+02  0.10916027772E+03  0.17774350772E+03  0.12509113207E+03 0.  0.
          5    1    3    3  502    0 -0.66881583634E+02  0.66253893807E+02  0.43819775206E+02  0.10392482751E+03  0.41800000000E+01 0.  1.
         -5    1    3    3    0  502  0.14057352140E+02 -0.31060179168E+02  0.65340502512E+02  0.73818680208E+02  0.41800000000E+01 0.  1.
        -11    1    1    2    0    0  0.12446663204E+02 -0.11560524743E+02  0.91584606118E+02  0.93146686656E+02  0.00000000000E+00 0. -1.
         11    1    1    2    0    0  0.40377568289E+02 -0.23633189896E+02 -0.51558030851E+01  0.47068651893E+02  0.00000000000E+00 0.  1.
</event>
<event>
 7    1  0.2693725E-009  0.1150201E+03  0.7561462E-02  0.1251546E+00
         -2   -1    0    0    0  501 -0.00000000000E+00  0.00000000000E+00  0.99888855716E+02  0.99888855716E+02  0.00000000000E+00 0.  1.
          2   -1    0    0  501    0  0.00000000000E+00 -0.00000000000E+00 -0.17385278423E+03  0.17385278423E+03  0.00000000000E+00 0. -1.
         25    2    1    2    0    0 -0.19720183108E+02 -0.45930242943E+02 -0.99494973139E+02  0.16747045040E+03  0.12509448124E+03 0.  0.
          5    1    3    3  502    0  0.27158653630E+02  0.32393386658E+02 -0.40588301546E+02  0.58752077313E+02  0.41800000000E+01 0.  1.
         -5    1    3    3    0  502 -0.46878836738E+02 -0.78323629601E+02 -0.58906671593E+02  0.10871837308E+03  0.41800000000E+01 0.  1.
        -11    1    1    2    0    0  0.41905438680E+02 -0.34532317190E+01  0.30442648488E+02  0.51910937646E+02  0.00000000000E+00 0.  1.
         11    1    1    2    0    0 -0.22185255573E+02  0.49383474662E+02 -0.49116038637E+01  0.54360251904E+02  0.00000000000E+00 0. -1.
</event>
<event>
 7    1  0.2693725E-009  0.1148076E+03  0.7561462E-02  0.1251917E+00
          1   -1    0    0  501    0  0.00000000000E+00  0.00000000000E+00  0.33373898492E+03  0.33373898492E+03  0.00000000000E+00 0. -1.
         -1   -1    0    0    0  501 -0.00000000000E+00 -0.00000000000E+00 -0.57543735436E+02  0.57543735436E+02  0.00000000000E+00 0.  1.
         25    2    1    2    0    0 -0.45861319750E+00  0.50483091409E+02  0.25135884832E+03  0.28526858961E+03  0.12509254473E+03 0.  0.
          5    1    3    3  502    0  0.60749187068E+02  0.18539115152E+02  0.14551920355E+03  0.15883158855E+03  0.41800000000E+01 0. -1.
         -5    1    3    3    0  502 -0.61207800265E+02  0.31943976258E+02  0.10583964477E+03  0.12643700106E+03  0.41800000000E+01 0. -1.
        -11    1    1    2    0    0  0.88730489583E+01 -0.72595068594E+02  0.20462094134E+01  0.73163938897E+02  0.00000000000E+00 0. -1.
         11    1    1    2    0    0 -0.84144357608E+01  0.22111977185E+02  0.22790191747E+02  0.32850191842E+02  0.00000000000E+00 0.  1.
</event>
<event>
 7    1  0.2693725E-009  0.3248390E+03  0.7561462E-02  0.1073444E+00
         -1   -1    0    0    0  501 -0.00000000000E+00  0.00000000000E+00  0.77297724940E+03  0.77297724940E+03  0.00000000000E+00 0.  1.
          1   -1    0    0  501    0  0.00000000000E+00 -0.00000000000E+00 -0.16460645099E+03  0.16460645099E+03  0.00000000000E+00 0. -1.
         25    2    1    2    0    0 -0.11364831562E+03 -0.29996537289E+03  0.45488753676E+03  0.57049743818E+03  0.12509792683E+03 0.  0.
          5    1    3    3  502    0 -0.62481745179E+02 -0.10664165926E+03  0.27481424837E+03  0.30135818469E+03  0.41800000000E+01 0.  1.
         -5    1    3    3    0  502 -0.51166570437E+02 -0.19332371362E+03  0.18007328839E+03  0.26913925349E+03  0.41800000000E+01 0.  1.
        -11    1    1    2    0    0  0.66701785827E+02  0.97394023046E+02  0.93728182135E+02  0.15073054131E+03  0.00000000000E+00 0.  1.
         11    1    1    2    0    0  0.46946529789E+02  0.20257134984E+03  0.59755079508E+02  0.21635572089E+03  0.00000000000E+00 0. -1.
</event>
<event>
 7    1  0.2693725E-009  0.1078756E+03  0.7561462E-02  0.1264555E+00
         -2   -1    0    0    0  501 -0.00000000000E+00  0.00000000000E+00  0.12334067150E+02  0.12334067150E+02  0.00000000000E+00 0.  1.
          2   -1    0    0  501    0  0.00000000000E+00 -0.00000000000E+00 -0.16196084687E+04  0.16196084687E+04  0.00000000000E+00 0. -1.
         25    2    1    2    0    0  0.49738893218E+02  0.43467227111E+02 -0.12252674309E+04  0.12334063711E+04  0.12509053376E+03 0.  0.
          5    1    3    3  502    0  0.69593332115E+02  0.43313740561E+02 -0.42339656940E+03  0.43127884179E+03  0.41800000000E+01 0.  1.
         -5    1    3    3    0  502 -0.19854438897E+02  0.15348655053E+00 -0.80187086153E+03  0.80212752930E+03  0.41800000000E+01 0.  1.
        -11    1    1    2    0    0 -0.20297793660E+02 -0.70530416621E+02 -0.25845143170E+03  0.26867021168E+03  0.00000000000E+00 0.  1.
         11    1    1    2    0    0 -0.29441099558E+02  0.27063189510E+02 -0.12355553892E+03  0.12986595308E+03  0.00000000000E+00 0. -1.
</event>
<event>
 7    1  0.2693725E-009  0.1062294E+03  0.7561462E-02  0.1267716E+00
         -2   -1    0    0    0  501 -0.00000000000E+00  0.00000000000E+00  0.50892957738E+03  0.50892957738E+03  0.00000000000E+00 0.  1.
          2   -1    0    0  501    0  0.00000000000E+00 -0.00000000000E+00 -0.28579580763E+02  0.28579580763E+02  0.00000000000E+00 0. -1.
         25    2    1    2    0    0 -0.42870977005E+02  0.14666066499E+02  0.32307994745E+03  0.34939562659E+03  0.12507452682E+03 0.  0.
          5    1    3    3  502    0  0.29854994907E+02 -0.12417627631E+02  0.20794324522E+03  0.21048369017E+03  0.41800000000E+01 0. -1.
         -5    1    3    3    0  502 -0.72725971912E+02  0.27083694130E+02  0.11513670223E+03  0.13891193642E+03  0.41800000000E+01 0. -1.
        -11    1    1    2    0    0  0.39191734713E+02 -0.51725228008E+02  0.11253078248E+03  0.12990253380E+03  0.00000000000E+00 0. -1.
         11    1    1    2    0    0  0.36792422923E+01  0.37059161509E+02  0.44739266680E+02  0.58210997746E+02  0.00000000000E+00 0.  1.
</event>
<event>
 7    1  0.2693725E-009  0.9096891E+02  0.7561462E-02  0.1300522E+00
         -2   -1    0    0    0  501 -0.00000000000E+00  0.00000000000E+00  0.23089818867E+02  0.23089818867E+02  0.00000000000E+00 0.  1.
          2   -1    0    0  501    0  0.00000000000E+00 -0.00000000000E+00 -0.54153614507E+03  0.54153614507E+03  0.00000000000E+00 0. -1.
         25    2    1    2    0    0 -0.16702246989E+02 -0.39608840382E+02 -0.30907540117E+03  0.33618884452E+03  0.12509000871E+03 0.  0.
          5    1    3    3  502    0 -0.62299424490E+02 -0.34219504254E+02 -0.25679519430E+03  0.26648346473E+03  0.41800000000E+01 0.  1.
         -5    1    3    3    0  502  0.45597177501E+02 -0.53893361283E+01 -0.52280206874E+02  0.69705379784E+02  0.41800000000E+01 0.  1.
        -11    1    1    2    0    0  0.30194752364E+01  0.48318109711E+02 -0.20633196740E+03  0.21193545652E+03  0.00000000000E+00 0.  1.
         11    1    1    2    0    0  0.13682771752E+02 -0.87092693290E+01 -0.30389576306E+01  0.16501662903E+02  0.00000000000E+00 0. -1.
</event>
<event>
 7    1  0.2693725E-009  0.9718257E+02  0.7561462E-02  0.1286335E+00
          1   -1    0    0  501    0  0.00000000000E+00  0.00000000000E+00  0.42216994932E+03  0.42216994932E+03  0.00000000000E+00 0. -1.
         -1   -1    0    0    0  501 -0.00000000000E+00 -0.00000000000E+00 -0.32370401090E+02  0.32370401090E+02  0.00000000000E+00 0.  1.
         25    2    1    2    0    0 -0.21127518060E+02 -0.35675511301E+02  0.25054554931E+03  0.28308968469E+03  0.12509030008E+03 0.  0.
          5    1    3    3  502    0  0.39563883629E+02 -0.25092449445E+02  0.19311894565E+03  0.19876451262E+03  0.41800000000E+01 0. -1.
         -5    1    3    3    0  502 -0.60691401690E+02 -0.10583061855E+02  0.57426603657E+02  0.84325172071E+02  0.41800000000E+01 0. -1.
        -11    1    1    2    0    0  0.21020257210E+02 -0.20525272541E+02  0.10907431648E+02  0.31338635759E+02  0.00000000000E+00 0.  1.
         11    1    1    2    0    0  0.10726085016E+00  0.56200783841E+02  0.12834656727E+03  0.14011202996E+03  0.00000000000E+00 0. -1.
</event>
<event>
 7    1  0.2693725E-009  0.1192928E+03  0.7561462E-02  0.1244268E+00
          2   -1    0    0  501    0  0.00000000000E+00  0.00000000000E+00  0.86779218430E+02  0.86779218430E+02  0.00000000000E+00 0. -1.
         -2   -1    0    0    0  501 -0.00000000000E+00 -0.00000000000E+00 -0.20350238224E+03  0.20350238224E+03  0.00000000000E+00 0.  1.
         25    2    1    2    0    0 -0.60999591438E+02 -0.34102761772E+02 -0.28290443600E+02  0.14605409863E+03  0.12508997566E+03 0.  0.
          5    1    3    3  502    0  0.34223674571E+02 -0.82804853354E+01  0.14657093514E+02  0.38368334976E+02  0.41800000000E+01 0. -1.
         -5    1    3    3    0  502 -0.95223266009E+02 -0.25822276437E+02 -0.42947537114E+02  0.10768576365E+03  0.41800000000E+01 0. -1.
        -11    1    1    2    0    0  0.56365939022E+02 -0.12341700159E+02 -0.76914329165E+02  0.96152226576E+02  0.00000000000E+00 0.  1.
         11    1    1    2    0    0  0.46336524158E+01  0.46444461931E+02 -0.11518391048E+02  0.48075275465E+02  0.00000000000E+00 0. -1.
</event>
<event>
 7    1  0.2845664E-009  0.1077506E+03  0.7561462E-02  0.1264793E+00
         -1   -1    0    0    0  501 -0.00000000000E+00  0.00000000000E+00  0.59748888674E+02  0.59748888674E+02  0.00000000000E+00 0.  1.
          1   -1    0    0  501    0  0.00000000000E+00 -0.00000000000E+00 -0.32836838903E+03  0.32836838903E+03  0.00000000000E+00 0. -1.
         25    2    1    2    0    0  0.77046299361E+02 -0.43266757588E+02 -0.14850982566E+03  0.21332778661E+03  0.12508169996E+03 0.  0.
          5    1    3    3  502    0  0.25704863998E+02  0.27201064659E+02 -0.11297196089E+03  0.11908305631E+03  0.41800000000E+01 0. -1.
         -5    1    3    3    0  502  0.51341435364E+02 -0.70467822247E+02 -0.35537864773E+02  0.94244730304E+02  0.41800000000E+01 0. -1.
        -11    1    1    2    0    0 -0.14577665341E+02  0.18019965554E+02  0.12287655350E+02  0.26233832342E+02  0.00000000000E+00 0.  1.
         11    1    1    2    0    0 -0.62468634020E+02  0.25246792034E+02 -0.13239733004E+03  0.14855565875E+03  0.00000000000E+00 0. -1.
</event>
<event>
 7    1  0.2693725E-009  0.1053606E+03  0.7561462E-02  0.1269411E+00
          2   -1    0    0  501    0  0.00000000000E+00  0.00000000000E+00  0.29316511699E+03  0.29316511699E+03  0.00000000000E+00 0.  1.
         -2   -1    0    0    0  501 -0.00000000000E+00 -0.00000000000E+00 -0.42731522447E+02  0.42731522447E+02  0.00000000000E+00 0. -1.
         25    2    1    2    0    0 -0.10732022777E+02 -0.53646881911E+01  0.18495015567E+03  0.22360306573E+03  0.12509122562E+03 0.  0.
          5    1    3    3  502    0 -0.34851656694E+02 -0.56234553928E+02  0.12343960894E+03  0.14011342721E+03  0.41800000000E+01 0.  1.
         -5    1    3    3    0  502  0.24119633917E+02  0.50869865737E+02  0.61510546734E+02  0.83489638518E+02  0.41800000000E+01 0.  1.
        -11    1    1    2    0    0 -0.37979103888E+02  0.93200015085E+01  0.14601642823E+02  0.41743056110E+02  0.00000000000E+00 0. -1.
         11    1    1    2    0    0  0.48711126665E+02 -0.39553133174E+01  0.50881796047E+02  0.70550517598E+02  0.00000000000E+00 0.  1.
</event>
<event>
 7    1  0.2693725E-009  0.9046380E+02  0.7561462E-02  0.1301732E+00
          3   -1    0    0  501    0  0.00000000000E+00  0.00000000000E+00  0.11958992577E+03  0.11958992577E+03  0.00000000000E+00 0.  1.
         -3   -1    0    0    0  501 -0.00000000000E+00 -0.00000000000E+00 -0.14438255156E+03  0.14438255156E+03  0.00000000000E+00 0. -1.
         25    2    1    2    0    0  0.58092490799E+02  0.15983505317E+02 -0.28407323099E+02  0.14171882592E+03  0.12508812767E+03 0.  0.
          5    1    3    3  502    0  0.45875052527E+02 -0.51501662258E+01  0.44783000320E+02  0.64451797292E+02  0.41800000000E+01 0.  1.
         -5    1    3    3    0  502  0.12217438272E+02  0.21133671543E+02 -0.73190323419E+02  0.77267028628E+02  0.41800000000E+01 0.  1.
        -11    1    1    2    0    0  0.17555771765E+02  0.19511949324E+02  0.24733084288E+02  0.36064480408E+02  0.00000000000E+00 0.  1.
         11    1    1    2    0    0 -0.75648262565E+02 -0.35495454641E+02 -0.21118386982E+02  0.86189171002E+02  0.00000000000E+00 0. -1.
</event>
<event>
 7    1  0.2693725E-009  0.1193229E+03  0.7561462E-02  0.1244218E+00
         -1   -1    0    0    0  501 -0.00000000000E+00  0.00000000000E+00  0.22506154273E+03  0.22506154273E+03  0.00000000000E+00 0.  1.
          1   -1    0    0  501    0  0.00000000000E+00 -0.00000000000E+00 -0.76131458734E+02  0.76131458734E+02  0.00000000000E+00 0. -1.
         25    2    1    2    0    0 -0.24546395212E+02 -0.67836154445E+02  0.97881620654E+02  0.17445046946E+03  0.12509150756E+03 0.  0.
          5    1    3    3  502    0 -0.27458776592E+02 -0.10407325389E+03  0.75760656640E+02  0.13169045554E+03  0.41800000000E+01 0.  1.
         -5    1    3    3    0  502  0.29123813798E+01  0.36237099441E+02  0.22120964013E+02  0.42760013916E+02  0.41800000000E+01 0.  1.
        -11    1    1    2    0    0 -0.15773291772E+02  0.41483030917E+00 -0.16722685568E+02  0.22991673060E+02  0.00000000000E+00 0. -1.
         11    1    1    2    0    0  0.40319686984E+02  0.67421324136E+02  0.67771148906E+02  0.10375085894E+03  0.00000000000E+00 0.  1.
</event>
<event>
 7    1  0.2693725E-009  0.1115408E+03  0.7561462E-02  0.1257743E+00
          2   -1    0    0  501    0  0.00000000000E+00  0.00000000000E+00  0.46841522995E+02  0.46841522995E+02  0.00000000000E+00 0. -1.
         -2   -1    0    0    0  501 -0.00000000000E+00 -0.00000000000E+00 -0.36269630232E+03  0.36269630232E+03  0.00000000000E+00 0.  1.
         25    2    1    2    0    0 -0.29658836114E+02 -0.71216339670E+02 -0.21211503349E+03  0.25805342872E+03  0.12508945218E+03 0.  0.
          5    1    3    3  502    0  0.24378442701E+02 -0.76024254770E+02 -0.71414739286E+02  0.10719856888E+03  0.41800000000E+01 0.  1.
         -5    1    3    3    0  502 -0.54037278815E+02  0.48079150996E+01 -0.14070029421E+03  0.15085485985E+03  0.41800000000E+01 0.  1.
        -11    1    1    2    0    0  0.41185783577E+02  0.52275986860E+02 -0.27367080425E+02  0.71958353664E+02  0.00000000000E+00 0. -1.
         11    1    1    2    0    0 -0.11526947463E+02  0.18940352811E+02 -0.76372665411E+02  0.79526042932E+02  0.00000000000E+00 0.  1.
</event>
<event>
 7    1  0.2693725E-009  0.1468347E+03  0.7561462E-02  0.1204417E+00
          2   -1    0    0  501    0  0.00000000000E+00  0.00000000000E+00  0.22156450147E+04  0.22156450147E+04  0.00000000000E+00 0.  1.
         -2   -1    0    0    0  501 -0.00000000000E+00 -0.00000000000E+00 -0.26086085672E+02  0.26086085672E+02  0.00000000000E+00 0. -1.
         25    2    1    2    0    0  0.10318385575E+03  0.36473556340E+02  0.19858707647E+04  0.19928136787E+04  0.12508571266E+03 0.  0.
          5    1    3    3  502    0  0.11417337513E+03 -0.94792699005E+01  0.11826391055E+04  0.11881827058E+04  0.41800000000E+01 0. -1.
         -5    1    3    3    0  502 -0.10989519374E+02  0.45952826240E+02  0.80323165921E+03  0.80463097289E+03  0.41800000000E+01 0. -1.
        -11    1    1    2    0    0  0.57995783962E+01  0.11220921530E+02 -0.45683385779E+00  0.12639338856E+02  0.00000000000E+00 0.  1.
         11    1    1    2    0    0 -0.10898343415E+03 -0.47694477870E+02  0.20414499822E+03  0.23627808285E+03  0.00000000000E+00 0. -1.
</event>
<event>
 7    1  0.2693725E-009  0.7854716E+02  0.7561462E-02  0.1333226E+00
          1   -1    0    0  501    0  0.00000000000E+00  0.00000000000E+00  0.15182315340E+03  0.15182315340E+03  0.00000000000E+00 0. -1.
         -1   -1    0    0    0  501 -0.00000000000E+00 -0.00000000000E+00 -0.85310804694E+02  0.85310804694E+02  0.00000000000E+00 0.  1.
         25    2    1    2    0    0 -0.30716997025E+02 -0.13598600024E+02  0.10486169974E+02  0.12996197321E+03  0.12510674998E+03 0.  0.
          5    1    3    3  502    0 -0.48517244309E+02 -0.16092369518E+02 -0.47012885896E+02  0.69574213559E+02  0.41800000000E+01 0. -1.
         -5    1    3    3    0  502  0.17800247285E+02  0.24937694934E+01  0.57499055870E+02  0.60387759651E+02  0.41800000000E+01 0. -1.
        -11    1    1    2    0    0 -0.21436381075E+02 -0.16578197555E+02  0.36658544375E+01  0.27345814241E+02  0.00000000000E+00 0.  1.
         11    1    1    2    0    0  0.52153378100E+02  0.30176797579E+02  0.52360324296E+02  0.79826170644E+02  0.00000000000E+00 0. -1.
</event>
<event>
 7    1  0.2693725E-009  0.1083243E+03  0.7561462E-02  0.1263705E+00
          1   -1    0    0  501    0  0.00000000000E+00  0.00000000000E+00  0.85718923676E+03  0.85718923676E+03  0.00000000000E+00 0. -1.
         -1   -1    0    0    0  501 -0.00000000000E+00 -0.00000000000E+00 -0.17885693798E+02  0.17885693798E+02  0.00000000000E+00 0.  1.
         25    2    1    2    0    0  0.39473955899E+02  0.44248289932E+02  0.41459227752E+03  0.43709338399E+03  0.12509102843E+03 0.  0.
          5    1    3    3  502    0  0.66566799230E+02  0.47734083521E+02  0.39447690255E+03  0.40291336604E+03  0.41800000000E+01 0. -1.
         -5    1    3    3    0  502 -0.27092843331E+02 -0.34857935891E+01  0.20115374966E+02  0.34180017945E+02  0.41800000000E+01 0. -1.
        -11    1    1    2    0    0 -0.11945727001E+02 -0.68969252827E+02  0.27873341093E+03  0.28738784351E+03  0.00000000000E+00 0.  1.
         11    1    1    2    0    0 -0.27528228898E+02  0.24720962894E+02  0.14597785452E+03  0.15059370306E+03  0.00000000000E+00 0. -1.
</event>
<event>
 7    1  0.2693725E-009  0.8064576E+02  0.7561462E-02  0.1327229E+00
         -2   -1    0    0    0  501 -0.00000000000E+00  0.00000000000E+00  0.70526302514E+02  0.70526302514E+02  0.00000000000E+00 0.  1.
          2   -1    0    0  501    0  0.00000000000E+00 -0.00000000000E+00 -0.26191967114E+03  0.26191967114E+03  0.00000000000E+00 0. -1.
         25    2    1    2    0    0  0.50731222721E+02  0.38079644572E+02 -0.45342509029E+02  0.14740339624E+03  0.12509237311E+03 0.  0.
          5    1    3    3  502    0 -0.11383197839E+02  0.81418292193E+01 -0.71919709236E+02  0.73387897862E+02  0.41800000000E+01 0. -1.
         -5    1    3    3    0  502  0.62114420561E+02  0.29937815353E+02  0.26577200207E+02  0.74015498381E+02  0.41800000000E+01 0. -1.
        -11    1    1    2    0    0 -0.52948517524E+02 -0.15855357627E+02 -0.15215990760E+03  0.16188753922E+03  0.00000000000E+00 0. -1.
         11    1    1    2    0    0  0.22172948027E+01 -0.22224286945E+02  0.61090479980E+01  0.23155038197E+02  0.00000000000E+00 0.  1.
</event>
<event>
 7    1  0.2693725E-009  0.1247212E+03  0.7561462E-02  0.1235506E+00
         -1   -1    0    0    0  501 -0.00000000000E+00  0.00000000000E+00  0.58572758536E+03  0.58572758536E+03  0.00000000000E+00 0.  1.
          1   -1    0    0  501    0  0.00000000000E+00 -0.00000000000E+00 -0.38430768937E+02  0.38430768937E+02  0.00000000000E+00 0. -1.
         25    2    1    2    0    0  0.81585558686E+02  0.21685229840E+01  0.16553866979E+03  0.22296349792E+03  0.12509502121E+03 0.  0.
          5    1    3    3  502    0  0.10488385567E+03  0.14549349790E+02  0.78391782121E+02  0.13181445544E+03  0.41800000000E+01 0. -1.
         -5    1    3    3    0  502 -0.23298296981E+02 -0.12380826806E+02  0.87146887666E+02  0.91149042477E+02  0.41800000000E+01 0. -1.
        -11    1    1    2    0    0 -0.93221133364E+02 -0.20118839670E+02  0.35102949831E+03  0.36375356507E+03  0.00000000000E+00 0.  1.
         11    1    1    2    0    0  0.11635574678E+02  0.17950316686E+02  0.30728648328E+02  0.37441291314E+02  0.00000000000E+00 0. -1.
</event>
<event>
 7    1  0.2693725E-009  0.1110289E+03  0.7561462E-02  0.1258676E+00
          1   -1    0    0  501    0  0.00000000000E+00  0.00000000000E+00  0.11099518279E+04  0.11099518279E+04  0.00000000000E+00 0. -1.
         -1   -1    0    0    0  501 -0.00000000000E+00 -0.00000000000E+00 -0.12191123724E+02  0.12191123724E+02  0.00000000000E+00 0.  1.
         25    2    1    2    0    0  0.19849756631E+02 -0.27519071721E+02  0.75592660366E+03  0.76695740671E+03  0.12508925387E+03 0.  0.
          5    1    3    3  502    0  0.24667384641E+02 -0.74502129202E+02  0.55352575990E+03  0.55907717392E+03  0.41800000000E+01 0. -1.
         -5    1    3    3    0  502 -0.48176280097E+01  0.46983057481E+02  0.20240084376E+03  0.20788023279E+03  0.41800000000E+01 0. -1.
        -11    1    1    2    0    0 -0.23808695613E+02  0.59365305274E+02  0.21159462880E+03  0.22105062857E+03  0.00000000000E+00 0. -1.
         11    1    1    2    0    0  0.39589389816E+01 -0.31846233553E+02  0.13023947177E+03  0.13413491639E+03  0.00000000000E+00 0.  1.
</event>
<event>
 7    1  0.2693725E-009  0.1661181E+03  0.7561462E-02  0.1181958E+00
         -2   -1    0    0    0  501 -0.00000000000E+00  0.00000000000E+00  0.56948267207E+02  0.56948267207E+02  0.00000000000E+00 0.  1.
          2   -1    0    0  501    0  0.00000000000E+00 -0.00000000000E+00 -0.60590696403E+03  0.60590696403E+03  0.00000000000E+00 0. -1.
         25    2    1    2    0    0 -0.13561471345E+03 -0.20635252768E+02 -0.40119440366E+03  0.44206510869E+03  0.12508975431E+03 0.  0.
          5    1    3    3  502    0  0.15377783702E+02 -0.20411100952E+01 -0.37774081669E+01  0.16504047215E+02  0.41800000000E+01 0.  1.
         -5    1    3    3    0  502 -0.15099249715E+03 -0.18594142673E+02 -0.39741699550E+03  0.42556106148E+03  0.41800000000E+01 0.  1.
        -11    1    1    2    0    0  0.38560211805E+02 -0.35029136117E+02 -0.50079398226E+02  0.72262552116E+02  0.00000000000E+00 0. -1.
         11    1    1    2    0    0  0.97054501642E+02  0.55664388885E+02 -0.97684894935E+02  0.14852757043E+03  0.00000000000E+00 0.  1.
</event>
<event>
 7    1  0.2693725E-009  0.1396723E+03  0.7561462E-02  0.1213771E+00
          2   -1    0    0  501    0  0.00000000000E+00  0.00000000000E+00  0.10373796814E+04  0.10373796814E+04  0.00000000000E+00 0. -1.
         -2   -1    0    0    0  501 -0.00000000000E+00 -0.00000000000E+00 -0.41793196766E+02  0.41793196766E+02  0.00000000000E+00 0.  1.
         25    2    1    2    0    0  0.11320408507E+03  0.10217575238E+02  0.87252076567E+03  0.88874021280E+03  0.12508843111E+03 0.  0.
          5    1    3    3  502    0  0.15051919264E+02 -0.38692839869E+02  0.45941519925E+03  0.46130629070E+03  0.41800000000E+01 0.  1.
         -5    1    3    3    0  502  0.98152165809E+02  0.48910415108E+02  0.41310556641E+03  0.42743392210E+03  0.41800000000E+01 0.  1.
        -11    1    1    2    0    0 -0.74192154933E+02 -0.34606313709E+02  0.11873353320E+03  0.14422109661E+03  0.00000000000E+00 0. -1.
         11    1    1    2    0    0 -0.39011930141E+02  0.24388738471E+02  0.43321858135E+01  0.46211568805E+02  0.00000000000E+00 0.  1.
</event>
<event>
 7    1  0.2693725E-009  0.1596831E+03  0.7561462E-02  0.1189055E+00
          1   -1    0    0  501    0  0.00000000000E+00  0.00000000000E+00  0.70074515575E+03  0.70074515575E+03  0.00000000000E+00 0. -1.
         -1   -1    0    0    0  501 -0.00000000000E+00 -0.00000000000E+00 -0.63151113198E+02  0.63151113198E+02  0.00000000000E+00 0.  1.
         25    2    1    2    0    0 -0.37715578015E+02  0.14866474293E+03  0.50141393521E+03  0.53906101538E+03  0.12508866163E+03 0.  0.
          5    1    3    3  502    0 -0.17680721955E+02  0.50205612368E+02  0.39730750909E+02  0.66552358409E+02  0.41800000000E+01 0.  1.
         -5    1    3    3    0  502 -0.20034856060E+02  0.98459130564E+02  0.46168318430E+03  0.47250865697E+03  0.41800000000E+01 0.  1.
        -11    1    1    2    0    0 -0.16450320720E+02 -0.52779442422E+02  0.89556266984E+02  0.10524546332E+03  0.00000000000E+00 0. -1.
         11    1    1    2    0    0  0.54165898735E+02 -0.95885300509E+02  0.46623840356E+02  0.11958979024E+03  0.00000000000E+00 0.  1.
</event>
<event>
 7    1  0.2693725E-009  0.1121920E+03  0.7561462E-02  0.1256564E+00
         -3   -1    0    0    0  501 -0.00000000000E+00  0.00000000000E+00  0.22881954900E+03  0.22881954900E+03  0.00000000000E+00 0.  1.
          3   -1    0    0  501    0  0.00000000000E+00 -0.00000000000E+00 -0.69870845774E+02  0.69870845774E+02  0.00000000000E+00 0. -1.
         25    2    1    2    0    0  0.61439902044E+02  0.16798835747E+02  0.78936112477E+02  0.16104861386E+03  0.12509469903E+03 0.  0.
          5    1    3    3  502    0  0.95396335789E+02  0.25391662258E+02  0.77791931176E+02  0.12575473888E+03  0.41800000000E+01 0.  1.
         -5    1    3    3    0  502 -0.33956433745E+02 -0.85928265102E+01  0.11441813010E+01  0.35293874978E+02  0.41800000000E+01 0.  1.
        -11    1    1    2    0    0 -0.43588797586E+02  0.21087142527E+02  0.82529003676E+02  0.95685355738E+02  0.00000000000E+00 0.  1.
         11    1    1    2    0    0 -0.17851104457E+02 -0.37885978275E+02 -0.25164129241E+01  0.41956425184E+02  0.00000000000E+00 0. -1.
</event>
<event>
 7    1  0.2693725E-009  0.1248184E+03  0.7561462E-02  0.1235353E+00
         -2   -1    0    0    0  501 -0.00000000000E+00  0.00000000000E+00  0.35962104304E+02  0.35962104304E+02  0.00000000000E+00 0.  1.
          2   -1    0    0  501    0  0.00000000000E+00 -0.00000000000E+00 -0.43535564666E+03  0.43535564666E+03  0.00000000000E+00 0. -1.
         25    2    1    2    0    0 -0.40250438736E+02  0.45257354250E+02 -0.21977357172E+03  0.26003053085E+03  0.12508848155E+03 0.  0.
          5    1    3    3  502    0  0.39789408336E+02  0.42943258225E+02 -0.97909284682E+02  0.11415349697E+03  0.41800000000E+01 0. -1.
         -5    1    3    3    0  502 -0.80039847071E+02  0.23140960247E+01 -0.12186428704E+03  0.14587703389E+03  0.41800000000E+01 0. -1.
        -11    1    1    2    0    0 -0.28667645468E+02 -0.27199258878E+02 -0.73890146242E+02  0.83793718690E+02  0.00000000000E+00 0. -1.
         11    1    1    2    0    0  0.68918084204E+02 -0.18058095372E+02 -0.10572982439E+03  0.12749350142E+03  0.00000000000E+00 0.  1.
</event>
<event>
 7    1  0.2693725E-009  0.1089076E+03  0.7561462E-02  0.1262606E+00
          2   -1    0    0  501    0  0.00000000000E+00  0.00000000000E+00  0.65918826612E+03  0.65918826612E+03  0.00000000000E+00 0.  1.
         -2   -1    0    0    0  501 -0.00000000000E+00 -0.00000000000E+00 -0.42134393670E+02  0.42134393670E+02  0.00000000000E+00 0. -1.
         25    2    1    2    0    0  0.89393868605E+02  0.12948871271E+02  0.15173892083E+03  0.21640450493E+03  0.12508905886E+03 0.  0.
          5    1    3    3  502    0  0.87998670827E+00  0.17333254020E+02  0.12130093398E+03  0.12260752446E+03  0.41800000000E+01 0. -1.
         -5    1    3    3    0  502  0.88513881897E+02 -0.43843827496E+01  0.30437986855E+02  0.93796980465E+02  0.41800000000E+01 0. -1.
        -11    1    1    2    0    0 -0.74919379991E+02  0.18021592856E+02  0.42558603854E+03  0.43250568494E+03  0.00000000000E+00 0.  1.
         11    1    1    2    0    0 -0.14474488614E+02 -0.30970464126E+02  0.39728913083E+02  0.52412469925E+02  0.00000000000E+00 0. -1.
</event>
<event>
 7    1  0.2693725E-009  0.1225873E+03  0.7561462E-02  0.1238889E+00
         -2   -1    0    0    0  501 -0.00000000000E+00  0.00000000000E+00  0.11052745613E+03  0.11052745613E+03  0.00000000000E+00 0.  1.
          2   -1    0    0  501    0  0.00000000000E+00 -0.00000000000E+00 -0.19679343455E+03  0.19679343455E+03  0.00000000000E+00 0. -1.
         25    2    1    2    0    0  0.81596821911E+02  0.40294391217E+02 -0.92871525815E+02  0.18043344544E+03  0.12509767631E+03 0.  0.
          5    1    3    3  502    0  0.37345272416E+02  0.83856289441E+02 -0.47713758152E+02  0.10354043542E+03  0.41800000000E+01 0.  1.
         -5    1    3    3    0  502  0.44251549495E+02 -0.43561898225E+02 -0.45157767663E+02  0.76893010020E+02  0.41800000000E+01 0.  1.
        -11    1    1    2    0    0 -0.18714853167E+02 -0.10575236112E+02  0.43232250376E+02  0.48281557767E+02  0.00000000000E+00 0.  1.
         11    1    1    2    0    0 -0.62881968744E+02 -0.29719155105E+02 -0.36626702978E+02  0.78605887466E+02  0.00000000000E+00 0. -1.
</event>
<event>
 7    1  0.2693725E-009  0.2072841E+03  0.7561462E-02  0.1143735E+00
         -2   -1    0    0    0  501 -0.00000000000E+00  0.00000000000E+00  0.29728844789E+02  0.29728844789E+02  0.00000000000E+00 0.  1.
          2   -1    0    0  501    0  0.00000000000E+00 -0.00000000000E+00 -0.16156253589E+04  0.16156253589E+04  0.00000000000E+00 0. -1.
         25    2    1    2    0    0  0.13712721494E+03 -0.12108244033E+03 -0.10432632344E+04  0.10665412472E+04  0.12508886982E+03 0.  0.
          5    1    3    3  502    0  0.55467249211E+02 -0.12405377998E+03 -0.55102281783E+03  0.56754697976E+03  0.41800000000E+01 0. -1.
         -5    1    3    3    0  502  0.81659965725E+02  0.29713396567E+01 -0.49224041658E+03  0.49899426748E+03  0.41800000000E+01 0. -1.
        -11    1    1    2    0    0 -0.87905767906E+02  0.11844530105E+03 -0.45445097598E+03  0.47778907788E+03  0.00000000000E+00 0.  1.
         11    1    1    2    0    0 -0.49221447031E+02  0.26371392706E+01 -0.88182303683E+02  0.10102387853E+03  0.00000000000E+00 0. -1.
</event>
<event>
 7    1  0.2693725E-009  0.1108419E+03  0.7561462E-02  0.1259019E+00
         -1   -1    0    0    0  501 -0.00000000000E+00  0.00000000000E+00  0.12239658955E+03  0.12239658955E+03  0.00000000000E+00 0.  1.
          1   -1    0    0  501    0  0.00000000000E+00 -0.00000000000E+00 -0.15951232653E+03  0.15951232653E+03  0.00000000000E+00 0. -1.
         25    2    1    2    0    0 -0.27756264998E+02  0.73495285689E+02  0.18448557122E+02  0.14886070318E+03  0.12508873821E+03 0.  0.
          5    1    3    3  502    0 -0.23416043313E+02  0.86370557172E+02 -0.33010404130E+02  0.95474307598E+02  0.41800000000E+01 0. -1.
         -5    1    3    3    0  502 -0.43402216852E+01 -0.12875271482E+02  0.51458961252E+02  0.53386395582E+02  0.41800000000E+01 0. -1.
        -11    1    1    2    0    0 -0.18631379974E+02 -0.68776124125E+02 -0.47739508435E+02  0.85769133346E+02  0.00000000000E+00 0. -1.
         11    1    1    2    0    0  0.46387644973E+02 -0.47191615643E+01 -0.78247856673E+01  0.47279079546E+02  0.00000000000E+00 0.  1.
</event>
<event>
 7    1  0.2693725E-009  0.1974710E+03  0.7561462E-02  0.1151890E+00
         -1   -1    0    0    0  501 -0.00000000000E+00  0.00000000000E+00  0.36328670146E+02  0.36328670146E+02  0.00000000000E+00 0.  1.
          1   -1    0    0  501    0  0.00000000000E+00 -0.00000000000E+00 -0.12414858125E+04  0.12414858125E+04  0.00000000000E+00 0. -1.
         25    2    1    2    0    0 -0.42265852705E+02 -0.17765818220E+03 -0.62781605993E+03  0.66569518746E+03  0.12509294740E+03 0.  0.
          5    1    3    3  502    0 -0.74325988496E+02 -0.86621956354E+02 -0.23657259618E+03  0.26270093558E+03  0.41800000000E+01 0.  1.
         -5    1    3    3    0  502  0.32060135792E+02 -0.91036225847E+02 -0.39124346374E+03  0.40299425188E+03  0.41800000000E+01 0.  1.
        -11    1    1    2    0    0  0.10215487585E+02  0.93641038372E+02 -0.16415517170E+03  0.18926151392E+03  0.00000000000E+00 0.  1.
         11    1    1    2    0    0  0.32050365120E+02  0.84017143828E+02 -0.41318591070E+03  0.42285778125E+03  0.00000000000E+00 0. -1.
</event>
<event>
 7    1  0.2693725E-009  0.7625357E+02  0.7561462E-02  0.1340033E+00
          2   -1    0    0  501    0  0.00000000000E+00  0.00000000000E+00  0.11068222225E+03  0.11068222225E+03  0.00000000000E+00 0. -1.
         -2   -1    0    0    0  501 -0.00000000000E+00 -0.00000000000E+00 -0.12216392712E+03  0.12216392712E+03  0.00000000000E+00 0.  1.
         25    2    1    2    0    0 -0.61779858567E+01  0.38401655711E+02  0.84222909837E+01  0.13126947689E+03  0.12509151013E+03 0.  0.
          5    1    3    3  502    0  0.10859432591E+02 -0.16010260759E+02  0.54410453805E+02  0.57898407655E+02  0.41800000000E+01 0. -1.
         -5    1    3    3    0  502 -0.17037418447E+02  0.54411916470E+02 -0.45988162821E+02  0.73371069237E+02  0.41800000000E+01 0. -1.
        -11    1    1    2    0    0  0.31891207898E+02 -0.33404689991E+01  0.23796527098E+02  0.39930972644E+02  0.00000000000E+00 0. -1.
         11    1    1    2    0    0 -0.25713222041E+02 -0.35061186712E+02 -0.43700522956E+02  0.61645699834E+02  0.00000000000E+00 0.  1.
</event>
<event>
 7    1  0.2693725E-009  0.1726725E+03  0.7561462E-02  0.1175089E+00
         -2   -1    0    0    0  501 -0.00000000000E+00  0.00000000000E+00  0.28304598837E+02  0.28304598837E+02  0.00000000000E+00 0.  1.
          2   -1    0    0  501    0  0.00000000000E+00 -0.00000000000E+00 -0.13753637705E+04  0.13753637705E+04  0.00000000000E+00 0. -1.
         25    2    1    2    0    0 -0.10931679678E+03 -0.12266038498E+03 -0.73097594107E+03  0.75958424634E+03  0.12508664506E+03 0.  0.
          5    1    3    3  502    0 -0.77609572014E+02 -0.94081183668E+02 -0.68846154352E+03  0.69919330954E+03  0.41800000000E+01 0. -1.
         -5    1    3    3    0  502 -0.31707224766E+02 -0.28579201310E+02 -0.42514397541E+02  0.60390936805E+02  0.41800000000E+01 0. -1.
        -11    1    1    2    0    0  0.74031889855E+02  0.12476315635E+03 -0.40811303137E+03  0.43313140301E+03  0.00000000000E+00 0.  1.
         11    1    1    2    0    0  0.35284906925E+02 -0.21027713676E+01 -0.20797019923E+03  0.21095272000E+03  0.00000000000E+00 0. -1.
</event>
<event>
 7    1  0.2693725E-009  0.3336361E+03  0.7561462E-02  0.1069539E+00
         -2   -1    0    0    0  501 -0.00000000000E+00  0.00000000000E+00  0.58784903214E+02  0.58784903214E+02  0.00000000000E+00 0.  1.
          2   -1    0    0  501    0  0.00000000000E+00 -0.00000000000E+00 -0.20911987571E+04  0.20911987571E+04  0.00000000000E+00 0. -1.
         25    2    1    2    0    0  0.31277568497E+03 -0.78142916085E+02 -0.78149095666E+03  0.85458223033E+03  0.12509088138E+03 0.  0.
          5    1    3    3  502    0  0.31103899655E+03 -0.49203640155E+02 -0.73504073910E+03  0.79966781610E+03  0.41800000000E+01 0.  1.
         -5    1    3    3    0  502  0.17366884272E+01 -0.28939275930E+02 -0.46450217559E+02  0.54914414222E+02  0.41800000000E+01 0.  1.
        -11    1    1    2    0    0 -0.18409008803E+03  0.35516947416E+02 -0.89746363053E+03  0.91683781673E+03  0.00000000000E+00 0.  1.
         11    1    1    2    0    0 -0.12868559695E+03  0.42625968668E+02 -0.35345926667E+03  0.37856361323E+03  0.00000000000E+00 0. -1.
</event>
<event>
 7    1  0.2693725E-009  0.1180419E+03  0.7561462E-02  0.1246363E+00
          2   -1    0    0  501    0  0.00000000000E+00  0.00000000000E+00  0.23626119264E+03  0.23626119264E+03  0.00000000000E+00 0. -1.
         -2   -1    0    0    0  501 -0.00000000000E+00 -0.00000000000E+00 -0.78013605855E+02  0.78013605855E+02  0.00000000000E+00 0.  1.
         25    2    1    2    0    0 -0.15966072115E+02 -0.73949294600E+02  0.12306621291E+03  0.19109250696E+03  0.12509052653E+03 0.  0.
          5    1    3    3  502    0 -0.37515950649E+02 -0.10294191401E+03  0.88257385518E+02  0.14075270055E+03  0.41800000000E+01 0. -1.
         -5    1    3    3    0  502  0.21549878535E+02  0.28992619413E+02  0.34808827393E+02  0.50339806414E+02  0.41800000000E+01 0. -1.
        -11    1    1    2    0    0 -0.16285396341E+02  0.11989859160E+02  0.48071538483E+02  0.52152120463E+02  0.00000000000E+00 0. -1.
         11    1    1    2    0    0  0.32251468456E+02  0.61959435440E+02 -0.12890164614E+02  0.71030171064E+02  0.00000000000E+00 0.  1.
</event>
<event>
 7    1  0.2693725E-009  0.2428042E+03  0.7561462E-02  0.1117939E+00
          1   -1    0    0  501    0  0.00000000000E+00  0.00000000000E+00  0.67405650373E+03  0.67405650373E+03  0.00000000000E+00 0. -1.
         -1   -1    0    0    0  501 -0.00000000000E+00 -0.00000000000E+00 -0.10054205928E+03  0.10054205928E+03  0.00000000000E+00 0.  1.
         25    2    1    2    0    0 -0.22996539390E+03  0.21338877658E+01  0.21154811776E+03  0.33658684158E+03  0.12509780143E+03 0.  0.
          5    1    3    3  502    0 -0.41293819023E+02  0.30148874740E+02  0.10787736140E+03  0.11945347061E+03  0.41800000000E+01 0.  1.
         -5    1    3    3    0  502 -0.18867157488E+03 -0.28014986974E+02  0.10367075636E+03  0.21713337097E+03  0.41800000000E+01 0.  1.
        -11    1    1    2    0    0  0.15189907466E+03 -0.39535390411E+02  0.26528305080E+03  0.30823931128E+03  0.00000000000E+00 0. -1.
         11    1    1    2    0    0  0.78066319245E+02  0.37401502645E+02  0.96683275884E+02  0.12977241015E+03  0.00000000000E+00 0.  1.
</event>
<event>
 7    1  0.2693725E-009  0.1266502E+03  0.7561462E-02  0.1232513E+00
         -1   -1    0    0    0  501 -0.00000000000E+00  0.00000000000E+00  0.59588683061E+02  0.59588683061E+02  0.00000000000E+00 0.  1.
          1   -1    0    0  501    0  0.00000000000E+00 -0.00000000000E+00 -0.53146897625E+03  0.53146897625E+03  0.00000000000E+00 0. -1.
         25    2    1    2    0    0 -0.97447945337E+02  0.22585357186E+02 -0.82576199738E+02  0.18020030727E+03  0.12508845497E+03 0.  0.
          5    1    3    3  502    0 -0.11362830705E+03  0.46881773756E+02 -0.41844133498E+02  0.12991419007E+03  0.41800000000E+01 0. -1.
         -5    1    3    3    0  502  0.16180361709E+02 -0.24296416570E+02 -0.40732066240E+02  0.50286117203E+02  0.41800000000E+01 0. -1.
        -11    1    1    2    0    0  0.30798279919E+02 -0.11910347984E+01 -0.24429072668E+02  0.39328516388E+02  0.00000000000E+00 0.  1.
         11    1    1    2    0    0  0.66649665418E+02 -0.21394322388E+02 -0.36487502078E+03  0.37152883565E+03  0.00000000000E+00 0. -1.
</event>
<event>
 7    1  0.2693725E-009  0.1121576E+03  0.7561462E-02  0.1256626E+00
         -3   -1    0    0    0  501 -0.00000000000E+00  0.00000000000E+00  0.66288656567E+02  0.66288656567E+02  0.00000000000E+00 0.  1.
          3   -1    0    0  501    0  0.00000000000E+00 -0.00000000000E+00 -0.25112300579E+03  0.25112300579E+03  0.00000000000E+00 0. -1.
         25    2    1    2    0    0 -0.13482708533E+02 -0.66499760008E+02 -0.11891296478E+03  0.18545172192E+03  0.12509215188E+03 0.  0.
          5    1    3    3  502    0 -0.56861491896E+02  0.63900022311E+01 -0.46685689083E+02  0.73966799000E+02  0.41800000000E+01 0.  1.
         -5    1    3    3    0  502  0.43378783363E+02 -0.72889762239E+02 -0.72227275692E+02  0.11148492292E+03  0.41800000000E+01 0.  1.
        -11    1    1    2    0    0  0.30268639092E+02  0.34590407376E+02  0.10776232840E+02  0.47210316554E+02  0.00000000000E+00 0.  1.
         11    1    1    2    0    0 -0.16785930560E+02  0.31909352633E+02 -0.76697617289E+02  0.84749623882E+02  0.00000000000E+00 0. -1.
</event>
<event>
 7    1  0.2693725E-009  0.1038668E+03  0.7561462E-02  0.1272369E+00
          1   -1    0    0  501    0  0.00000000000E+00  0.00000000000E+00  0.27161639488E+03  0.27161639488E+03  0.00000000000E+00 0. -1.
         -1   -1    0    0    0  501 -0.00000000000E+00 -0.00000000000E+00 -0.48204775605E+02  0.48204775605E+02  0.00000000000E+00 0.  1.
         25    2    1    2    0    0 -0.58074040761E+01  0.35188795533E+02  0.12925225584E+03  0.18336832642E+03  0.12508325316E+03 0.  0.
          5    1    3    3  502    0  0.41580028659E+02 -0.11688961151E+02  0.10270920776E+03  0.11149970563E+03  0.41800000000E+01 0. -1.
         -5    1    3    3    0  502 -0.47387432736E+02  0.46877756684E+02  0.26543048077E+02  0.71868620789E+02  0.41800000000E+01 0. -1.
        -11    1    1    2    0    0 -0.33888287358E+02 -0.45315516661E+02  0.43934804876E+02  0.71639229126E+02  0.00000000000E+00 0.  1.
         11    1    1    2    0    0  0.39695691434E+02  0.10126721128E+02  0.50224558567E+02  0.64813614947E+02  0.00000000000E+00 0. -1.
</event>
<event>
 7    1  0.2693725E-009  0.1109624E+03  0.7561462E-02  0.1258798E+00
         -1   -1    0    0    0  501 -0.00000000000E+00  0.00000000000E+00  0.96580073384E+02  0.96580073384E+02  0.00000000000E+00 0.  1.
          1   -1    0    0  501    0  0.00000000000E+00 -0.00000000000E+00 -0.14599767256E+03  0.14599767256E+03  0.00000000000E+00 0. -1.
         25    2    1    2    0    0 -0.43071229368E+02  0.15245418762E+02 -0.95523325377E+01  0.13351494231E+03  0.12508972448E+03 0.  0.
          5    1    3    3  502    0  0.12426642170E+02  0.53906755065E+02  0.20817237763E+02  0.59255290611E+02  0.41800000000E+01 0.  1.
         -5    1    3    3    0  502 -0.55497871538E+02 -0.38661336303E+02 -0.30369570301E+02  0.74259651698E+02  0.41800000000E+01 0.  1.
        -11    1    1    2    0    0 -0.13900410885E+02  0.25222692031E+02 -0.38925580333E+00  0.28802033542E+02  0.00000000000E+00 0.  1.
         11    1    1    2    0    0  0.56971640253E+02 -0.40468110793E+02 -0.39476010832E+02  0.80260770090E+02  0.00000000000E+00 0. -1.
</event>
<event>
 7    1  0.2693725E-009  0.8371588E+02  0.7561462E-02  0.1318825E+00
         -2   -1    0    0    0  501 -0.00000000000E+00  0.00000000000E+00  0.42375643660E+02  0.42375643660E+02  0.00000000000E+00 0.  1.
          2   -1    0    0  501    0  0.00000000000E+00 -0.00000000000E+00 -0.31837931457E+03  0.31837931457E+03  0.00000000000E+00 0. -1.
         25    2    1    2    0    0 -0.27588058325E+02  0.30567640983E+02 -0.14409582639E+03  0.19520832109E+03  0.12508876769E+03 0.  0.
          5    1    3    3  502    0  0.27096925669E+02 -0.41426284845E+01 -0.12429394631E+03  0.12734937079E+03  0.41800000000E+01 0.  1.
         -5    1    3    3    0  502 -0.54684983994E+02  0.34710269467E+02 -0.19801880083E+02  0.67858950299E+02  0.41800000000E+01 0.  1.
        -11    1    1    2    0    0 -0.12148245749E+02 -0.32821371593E+02 -0.86897519189E+01  0.36060145541E+02  0.00000000000E+00 0.  1.
         11    1    1    2    0    0  0.39736304074E+02  0.22537306110E+01 -0.12321809260E+03  0.12948649160E+03  0.00000000000E+00 0. -1.
</event>
<event>
 7    1  0.2693725E-009  0.1095525E+03  0.7561462E-02  0.1261401E+00
          1   -1    0    0  501    0  0.00000000000E+00  0.00000000000E+00  0.25330233431E+02  0.25330233431E+02  0.00000000000E+00 0. -1.
         -1   -1    0    0    0  501 -0.00000000000E+00 -0.00000000000E+00 -0.51032871864E+03  0.51032871864E+03  0.00000000000E+00 0.  1.
         25    2    1    2    0    0  0.32150005465E+02 -0.84775562160E+01 -0.30540554329E+03  0.33170409440E+03  0.12509823564E+03 0.  0.
          5    1    3    3  502    0  0.89433354750E+01  0.55862707761E+02 -0.97563968988E+02  0.11285754655E+03  0.41800000000E+01 0. -1.
         -5    1    3    3    0  502  0.23206669990E+02 -0.64340263977E+02 -0.20784157430E+03  0.21884654785E+03  0.41800000000E+01 0. -1.
        -11    1    1    2    0    0 -0.62775965334E+02  0.40392423193E+01 -0.14166873270E+03  0.15500699058E+03  0.00000000000E+00 0.  1.
         11    1    1    2    0    0  0.30625959870E+02  0.44383138967E+01 -0.37924209224E+02  0.48947867098E+02  0.00000000000E+00 0. -1.
</event>
<event>
 7    1  0.2693725E-009  0.1986316E+03  0.7561462E-02  0.1150899E+00
         -4   -1    0    0    0  501 -0.00000000000E+00  0.00000000000E+00  0.19047867443E+03  0.19047867443E+03  0.00000000000E+00 0.  1.
          4   -1    0    0  501    0  0.00000000000E+00 -0.00000000000E+00 -0.31800760307E+03  0.31800760307E+03  0.00000000000E+00 0. -1.
         25    2    1    2    0    0 -0.17988045029E+03 -0.72144856703E+02 -0.17518947844E+03  0.28966464561E+03  0.12510953926E+03 0.  0.
          5    1    3    3  502    0 -0.12955001820E+03 -0.44143200585E+02 -0.18594785492E+03  0.23092402760E+03  0.41800000000E+01 0.  1.
         -5    1    3    3    0  502 -0.50330432088E+02 -0.28001656118E+02  0.10758376478E+02  0.58740618008E+02  0.41800000000E+01 0.  1.
        -11    1    1    2    0    0  0.74515110189E+02 -0.65686130831E+00 -0.15361809532E+02  0.76084941383E+02  0.00000000000E+00 0. -1.
         11    1    1    2    0    0  0.10536534010E+03  0.72801718011E+02  0.63022359335E+02  0.14273669050E+03  0.00000000000E+00 0.  1.
</event>
<event>
 7    1  0.2693725E-009  0.1701960E+03  0.7561462E-02  0.1177644E+00
         -1   -1    0    0    0  501 -0.00000000000E+00  0.00000000000E+00  0.29546560584E+03  0.29546560584E+03  0.00000000000E+00 0.  1.
          1   -1    0    0  501    0  0.00000000000E+00 -0.00000000000E+00 -0.15900490357E+03  0.15900490357E+03  0.00000000000E+00 0. -1.
         25    2    1    2    0    0  0.96218900675E+02 -0.12660779411E+03 -0.32577462298E+02  0.20492966427E+03  0.12508903177E+03 0.  0.
          5    1    3    3  502    0  0.61737681576E+02 -0.14043503914E+02  0.31486390513E+02  0.70835206755E+02  0.41800000000E+01 0.  1.
         -5    1    3    3    0  502  0.34481219099E+02 -0.11256429020E+03 -0.64063852811E+02  0.13409445751E+03  0.41800000000E+01 0.  1.
        -11    1    1    2    0    0 -0.51301080618E+02  0.72516808513E+02  0.15378464288E+03  0.17759562150E+03  0.00000000000E+00 0.  1.
         11    1    1    2    0    0 -0.44917820057E+02  0.54090985600E+02  0.15253521690E+02  0.71945223648E+02  0.00000000000E+00 0. -1.
</event>
<event>
 7    1  0.2693725E-009  0.1053776E+03  0.7561462E-02  0.1269377E+00
          1   -1    0    0  501    0  0.00000000000E+00  0.00000000000E+00  0.45382123303E+02  0.45382123303E+02  0.00000000000E+00 0. -1.
         -1   -1    0    0    0  501 -0.00000000000E+00 -0.00000000000E+00 -0.30335425134E+03  0.30335425134E+03  0.00000000000E+00 0.  1.
         25    2    1    2    0    0  0.35252146397E+02  0.93475789261E+01 -0.10565131044E+03  0.16774916877E+03  0.12508994032E+03 0.  0.
          5    1    3    3  502    0  0.39241476874E+02 -0.52921198821E+02 -0.40535447019E+02  0.77467035937E+02  0.41800000000E+01 0.  1.
         -5    1    3    3    0  502 -0.39893304771E+01  0.62268777747E+02 -0.65115863424E+02  0.90282132835E+02  0.41800000000E+01 0.  1.
        -11    1    1    2    0    0  0.18512120120E+02  0.14375443523E+02 -0.73581377468E+01  0.24566118108E+02  0.00000000000E+00 0. -1.
         11    1    1    2    0    0 -0.53764266517E+02 -0.23723022449E+02 -0.14496267985E+03  0.15642108777E+03  0.00000000000E+00 0.  1.
</event>
<event>
 7    1  0.2693725E-009  0.1468245E+03  0.7561462E-02  0.1204430E+00
          1   -1    0    0  501    0  0.00000000000E+00  0.00000000000E+00  0.20424832339E+03  0.20424832339E+03  0.00000000000E+00 0.  1.
         -1   -1    0    0    0  501 -0.00000000000E+00 -0.00000000000E+00 -0.16454369958E+03  0.16454369958E+03  0.00000000000E+00 0. -1.
         25    2    1    2    0    0 -0.86774466106E+02 -0.48141063044E+02 -0.87971219259E+02  0.18229998117E+03  0.12508788030E+03 0.  0.
          5    1    3    3  502    0 -0.99554130278E+02  0.98347897848E+01 -0.53495834914E+02  0.11352103197E+03  0.41800000000E+01 0.  1.
         -5    1    3    3    0  502  0.12779664173E+02 -0.57975852829E+02 -0.34475384345E+02  0.68778949202E+02  0.41800000000E+01 0.  1.
        -11    1    1    2    0    0 -0.20927633362E+01 -0.21191477591E+02  0.33089536816E+02  0.39349406953E+02  0.00000000000E+00 0.  1.
         11    1    1    2    0    0  0.88867229442E+02  0.69332540635E+02  0.94586306252E+02  0.14714263485E+03  0.00000000000E+00 0. -1.
</event>
<event>
 7    1  0.2693725E-009  0.1420511E+03  0.7561462E-02  0.1210595E+00
          2   -1    0    0  501    0  0.00000000000E+00  0.00000000000E+00  0.77585151827E+03  0.77585151827E+03  0.00000000000E+00 0. -1.
         -2   -1    0    0    0  501 -0.00000000000E+00 -0.00000000000E+00 -0.43844791824E+02  0.43844791824E+02  0.00000000000E+00 0.  1.
         25    2    1    2    0    0  0.43984509511E+02 -0.80618969446E+02  0.64342501944E+03  0.66187492190E+03  0.12509436948E+03 0.  0.
          5    1    3    3  502    0 -0.42939654203E+02 -0.38330135099E+02  0.21032675370E+03  0.21810050180E+03  0.41800000000E+01 0. -1.
         -5    1    3    3    0  502  0.86924163714E+02 -0.42288834347E+02  0.43309826574E+03  0.44377442010E+03  0.41800000000E+01 0. -1.
        -11    1    1    2    0    0  0.17207998433E+02  0.63934852107E+02  0.54878444249E+02  0.85996652070E+02  0.00000000000E+00 0. -1.
         11    1    1    2    0    0 -0.61192507945E+02  0.16684117339E+02  0.33703262756E+02  0.71824736131E+02  0.00000000000E+00 0.  1.
</event>
<event>
 7    1  0.2693725E-009  0.1249675E+03  0.7561462E-02  0.1235120E+00
         -1   -1    0    0    0  501 -0.00000000000E+00  0.00000000000E+00  0.21944614050E+02  0.21944614050E+02  0.00000000000E+00 0.  1.
          1   -1    0    0  501    0  0.00000000000E+00 -0.00000000000E+00 -0.10285516118E+04  0.10285516118E+04  0.00000000000E+00 0. -1.
         25    2    1    2    0    0 -0.41909903047E+02 -0.95121545686E+02 -0.50247761104E+03  0.52814255016E+03  0.12508499217E+03 0.  0.
          5    1    3    3  502    0 -0.44980728839E+02 -0.30643117111E+02 -0.41897281261E+03  0.42251385386E+03  0.41800000000E+01 0. -1.
         -5    1    3    3    0  502  0.30708257915E+01 -0.64478428574E+02 -0.83504798430E+02  0.10562869631E+03  0.41800000000E+01 0. -1.
        -11    1    1    2    0    0  0.57208402770E+02  0.31665855658E+02 -0.17506236413E+03  0.18687525009E+03  0.00000000000E+00 0.  1.
         11    1    1    2    0    0 -0.15298499722E+02  0.63455690027E+02 -0.32906702255E+03  0.33547842557E+03  0.00000000000E+00 0. -1.
</event>
<event>
 7    1  0.2693725E-009  0.1146906E+03  0.7561462E-02  0.1252122E+00
         -1   -1    0    0    0  501 -0.00000000000E+00  0.00000000000E+00  0.25311217653E+03  0.25311217653E+03  0.00000000000E+00 0.  1.
          1   -1    0    0  501    0  0.00000000000E+00 -0.00000000000E+00 -0.79311674347E+02  0.79311674347E+02  0.00000000000E+00 0. -1.
         25    2    1    2    0    0  0.48162463256E+02  0.42716054899E+02  0.20039311193E+02  0.14210262169E+03  0.12508915575E+03 0.  0.
          5    1    3    3  502    0 -0.21495323608E+02  0.63939563199E+02  0.62747424691E+01  0.67876074371E+02  0.41800000000E+01 0. -1.
         -5    1    3    3    0  502  0.69657786863E+02 -0.21223508299E+02  0.13764568723E+02  0.74226547322E+02  0.41800000000E+01 0. -1.
        -11    1    1    2    0    0 -0.94209213278E+01 -0.48746598617E+02  0.14036633841E+03  0.14888819159E+03  0.00000000000E+00 0.  1.
         11    1    1    2    0    0 -0.38741541928E+02  0.60305437175E+01  0.13394852574E+02  0.41433037590E+02  0.00000000000E+00 0. -1.
</event>
<event>
 7    1  0.2693725E-009  0.1018567E+03  0.7561462E-02  0.1276439E+00
         -1   -1    0    0    0  501 -0.00000000000E+00  0.00000000000E+00  0.55375139049E+02  0.55375139049E+02  0.00000000000E+00 0.  1.
          1   -1    0    0  501    0  0.00000000000E+00 -0.00000000000E+00 -0.50506145233E+03  0.50506145233E+03  0.00000000000E+00 0. -1.
         25    2    1    2    0    0 -0.59943806067E+02 -0.70454804973E+02 -0.39760025635E+03  0.42695432570E+03  0.12508754117E+03 0.  0.
          5    1    3    3  502    0  0.75258748579E+01 -0.81870803551E+00  0.68444120883E+01  0.11028483670E+02  0.41800000000E+01 0.  1.
         -5    1    3    3    0  502 -0.67469680925E+02 -0.69636096938E+02 -0.40444466844E+03  0.41592584203E+03  0.41800000000E+01 0.  1.
        -11    1    1    2    0    0  0.72770919507E+01  0.31965155048E+02  0.18276737180E+02  0.37533536024E+02  0.00000000000E+00 0.  1.
         11    1    1    2    0    0  0.52666714116E+02  0.38489649925E+02 -0.70362794109E+02  0.95948729653E+02  0.00000000000E+00 0. -1.
</event>
<event>
 7    1  0.2693725E-009  0.1033380E+03  0.7561462E-02  0.1273429E+00
          1   -1    0    0  501    0  0.00000000000E+00  0.00000000000E+00  0.10148888436E+03  0.10148888436E+03  0.00000000000E+00 0. -1.
         -1   -1    0    0    0  501 -0.00000000000E+00 -0.00000000000E+00 -0.13064432286E+03  0.13064432286E+03  0.00000000000E+00 0.  1.
         25    2    1    2    0    0  0.31781684834E+01  0.25671396724E+02 -0.47203046104E+02  0.13616737010E+03  0.12507719119E+03 0.  0.
          5    1    3    3  502    0 -0.58295557635E+01  0.69002782005E+02 -0.57993635185E+02  0.90421799180E+02  0.41800000000E+01 0. -1.
         -5    1    3    3    0  502  0.90077242469E+01 -0.43331385281E+02  0.10790589081E+02  0.45745570924E+02  0.41800000000E+01 0. -1.
        -11    1    1    2    0    0  0.43015991874E+02 -0.13282235593E+02  0.17015045085E+02  0.48128007423E+02  0.00000000000E+00 0.  1.
         11    1    1    2    0    0 -0.46194160358E+02 -0.12389161131E+02  0.10325625199E+01  0.47837829696E+02  0.00000000000E+00 0. -1.
</event>
<event>
 7    1  0.2693725E-009  0.1704116E+03  0.7561462E-02  0.1177419E+00
         -1   -1    0    0    0  501 -0.00000000000E+00  0.00000000000E+00  0.24101771516E+03  0.24101771516E+03  0.00000000000E+00 0.  1.
          1   -1    0    0  501    0  0.00000000000E+00 -0.00000000000E+00 -0.12169410126E+03  0.12169410126E+03  0.00000000000E+00 0. -1.
         25    2    1    2    0    0 -0.26496714024E+02 -0.12825002379E+03  0.59581444845E+02  0.19065945840E+03  0.12510370119E+03 0.  0.
          5    1    3    3  502    0 -0.20811182637E+02  0.21635131805E+02  0.16678922877E+02  0.34595420497E+02  0.41800000000E+01 0.  1.
         -5    1    3    3    0  502 -0.56855313865E+01 -0.14988515560E+03  0.42902521968E+02  0.15606403790E+03  0.41800000000E+01 0.  1.
        -11    1    1    2    0    0 -0.29450737530E+02  0.84363109888E+02  0.42168103166E+02  0.98806017912E+02  0.00000000000E+00 0. -1.
         11    1    1    2    0    0  0.55947451554E+02  0.43886913903E+02  0.17574065887E+02  0.73246340107E+02  0.00000000000E+00 0.  1.
</event>
<event>
 7    1  0.2693725E-009  0.1543443E+03  0.7561462E-02  0.1195234E+00
         -2   -1    0    0    0  501 -0.00000000000E+00  0.00000000000E+00  0.33768201571E+02  0.33768201571E+02  0.00000000000E+00 0.  1.
          2   -1    0    0  501    0  0.00000000000E+00 -0.00000000000E+00 -0.72796502400E+03  0.72796502400E+03  0.00000000000E+00 0. -1.
         25    2    1    2    0    0  0.11920654877E+02 -0.10951623727E+03 -0.35938034750E+03  0.39615230945E+03  0.12508600989E+03 0.  0.
          5    1    3    3  502    0  0.42967525822E+02  0.67185483624E+01 -0.67316200816E+02  0.80251420297E+02  0.41800000000E+01 0.  1.
         -5    1    3    3    0  502 -0.31046870945E+02 -0.11623478563E+03 -0.29206414669E+03  0.31590088915E+03  0.41800000000E+01 0.  1.
        -11    1    1    2    0    0 -0.29740897114E+02 -0.37324193291E+01 -0.97879938549E+02  0.10236666589E+03  0.00000000000E+00 0. -1.
         11    1    1    2    0    0  0.17820242237E+02  0.11324865660E+03 -0.23693653638E+03  0.26321425023E+03  0.00000000000E+00 0.  1.
</event>
<event>
 7    1  0.2693725E-009  0.4670237E+03  0.7561462E-02  0.1022764E+00
          2   -1    0    0  501    0  0.00000000000E+00  0.00000000000E+00  0.12167761046E+04  0.12167761046E+04  0.00000000000E+00 0. -1.
         -2   -1    0    0    0  501 -0.00000000000E+00 -0.00000000000E+00 -0.20321316629E+03  0.20321316629E+03  0.00000000000E+00 0.  1.
         25    2    1    2    0    0  0.33046702683E+03 -0.32355964694E+03  0.30156945697E+03  0.56611886596E+03  0.12508849696E+03 0.  0.
          5    1    3    3  502    0  0.25160414807E+03 -0.27718636783E+03  0.18416257321E+03  0.41721727626E+03  0.41800000000E+01 0. -1.
         -5    1    3    3    0  502  0.78862878758E+02 -0.46373279109E+02  0.11740688377E+03  0.14890158971E+03  0.41800000000E+01 0. -1.
        -11    1    1    2    0    0 -0.38714964633E+02  0.10398510198E+02  0.93431984420E+02  0.10166864420E+03  0.00000000000E+00 0. -1.
         11    1    1    2    0    0 -0.29175206219E+03  0.31316113675E+03  0.61856149693E+03  0.75220176073E+03  0.00000000000E+00 0.  1.
</event>
<event>
 7    1  0.2693725E-009  0.1022490E+03  0.7561462E-02  0.1275637E+00
         -2   -1    0    0    0  501 -0.00000000000E+00  0.00000000000E+00  0.16715617335E+02  0.16715617335E+02  0.00000000000E+00 0.  1.
          2   -1    0    0  501    0  0.00000000000E+00 -0.00000000000E+00 -0.75559489593E+03  0.75559489593E+03  0.00000000000E+00 0. -1.
         25    2    1    2    0    0 -0.45566271801E+00 -0.10542566791E+02 -0.32774707417E+03  0.35096536439E+03  0.12508872466E+03 0.  0.
          5    1    3    3  502    0 -0.47332511576E+02  0.27621457931E+02 -0.88610196141E+02  0.10427152464E+03  0.41800000000E+01 0.  1.
         -5    1    3    3    0  502  0.46876848858E+02 -0.38164024722E+02 -0.23913687802E+03  0.24669383975E+03  0.41800000000E+01 0.  1.
        -11    1    1    2    0    0 -0.42213971280E+02 -0.70343912361E+01 -0.25386427251E+03  0.25744624854E+03  0.00000000000E+00 0. -1.
         11    1    1    2    0    0  0.42669633998E+02  0.17576958027E+02 -0.15726793192E+03  0.16389890033E+03  0.00000000000E+00 0.  1.
</event>
<event>
 7    1  0.2693725E-009  0.9005560E+02  0.7561462E-02  0.1302717E+00
         -1   -1    0    0    0  501 -0.00000000000E+00  0.00000000000E+00  0.34472633796E+03  0.34472633796E+03  0.00000000000E+00 0.  1.
          1   -1    0    0  501    0  0.00000000000E+00 -0.00000000000E+00 -0.46333701465E+02  0.46333701465E+02  0.00000000000E+00 0. -1.
         25    2    1    2    0    0  0.42951779353E+02  0.29181436680E+02  0.10437598083E+03  0.17099104450E+03  0.12508868986E+03 0.  0.
          5    1    3    3  502    0  0.67633263614E+02  0.39861994032E+02  0.11702367223E+03  0.14097960554E+03  0.41800000000E+01 0.  1.
         -5    1    3    3    0  502 -0.24681484261E+02 -0.10680557353E+02 -0.12647691408E+02  0.30011438963E+02  0.41800000000E+01 0.  1.
        -11    1    1    2    0    0  0.10025549709E+02 -0.17283158377E+02  0.14941116271E+01  0.20036256636E+02  0.00000000000E+00 0. -1.
         11    1    1    2    0    0 -0.52977329062E+02 -0.11898278303E+02  0.19252254404E+03  0.20003273829E+03  0.00000000000E+00 0.  1.
</event>
<event>
 7    1  0.2693725E-009  0.8560651E+02  0.7561462E-02  0.1313854E+00
         -1   -1    0    0    0  501 -0.00000000000E+00  0.00000000000E+00  0.48168746720E+02  0.48168746720E+02  0.00000000000E+00 0.  1.
          1   -1    0    0  501    0  0.00000000000E+00 -0.00000000000E+00 -0.48579812003E+03  0.48579812003E+03  0.00000000000E+00 0. -1.
         25    2    1    2    0    0  0.31000603115E+02 -0.22743626134E+02 -0.61421539843E+02  0.14456357368E+03  0.12509081243E+03 0.  0.
          5    1    3    3  502    0  0.12067897869E+02  0.30176314990E+02 -0.78999856003E+02  0.85525983151E+02  0.41800000000E+01 0. -1.
         -5    1    3    3    0  502  0.18932705247E+02 -0.52919941124E+02  0.17578316160E+02  0.59037590530E+02  0.41800000000E+01 0. -1.
        -11    1    1    2    0    0  0.14493513570E+02 -0.16530235669E+02 -0.25878424160E+02  0.33955904698E+02  0.00000000000E+00 0.  1.
         11    1    1    2    0    0 -0.45494116686E+02  0.39273861802E+02 -0.35032940931E+03  0.35544738837E+03  0.00000000000E+00 0. -1.
</event>
<event>
 7    1  0.2693725E-009  0.2130033E+03  0.7561462E-02  0.1139210E+00
          2   -1    0    0  501    0  0.00000000000E+00  0.00000000000E+00  0.76699563553E+03  0.76699563553E+03  0.00000000000E+00 0. -1.
         -2   -1    0    0    0  501 -0.00000000000E+00 -0.00000000000E+00 -0.69400889946E+02  0.69400889946E+02  0.00000000000E+00 0.  1.
         25    2    1    2    0    0 -0.61539287174E+02 -0.20133451240E+03  0.38791506189E+03  0.45874622460E+03  0.12508930250E+03 0.  0.
          5    1    3    3  502    0 -0.64055334462E+01 -0.62766457714E+02  0.24176412761E+03  0.24989602812E+03  0.41800000000E+01 0. -1.
         -5    1    3    3    0  502 -0.55133753728E+02 -0.13856805469E+03  0.14615093428E+03  0.20885019648E+03  0.41800000000E+01 0. -1.
        -11    1    1    2    0    0  0.52168019896E+02  0.10971531361E+03  0.14693539080E+03  0.19065403591E+03  0.00000000000E+00 0.  1.
         11    1    1    2    0    0  0.93712672784E+01  0.91619198792E+02  0.16274429290E+03  0.18699626496E+03  0.00000000000E+00 0. -1.
</event>
<event>
 7    1  0.2693725E-009  0.9674368E+02  0.7561462E-02  0.1287296E+00
          2   -1    0    0  501    0  0.00000000000E+00  0.00000000000E+00  0.19451017008E+03  0.19451017008E+03  0.00000000000E+00 0. -1.
         -2   -1    0    0    0  501 -0.00000000000E+00 -0.00000000000E+00 -0.72394288726E+02  0.72394288726E+02  0.00000000000E+00 0.  1.
         25    2    1    2    0    0  0.33339879390E+02  0.33211116360E+02  0.83230936843E+02  0.15744643729E+03  0.12508983156E+03 0.  0.
          5    1    3    3  502    0 -0.22465483895E+02  0.40849818529E+02  0.89115520443E+02  0.10066009152E+03  0.41800000000E+01 0.  1.
         -5    1    3    3    0  502  0.55805363285E+02 -0.76387021696E+01 -0.58845835999E+01  0.56786345774E+02  0.41800000000E+01 0.  1.
        -11    1    1    2    0    0 -0.51285657747E+02  0.12995753714E+01 -0.41248353620E+01  0.51467677755E+02  0.00000000000E+00 0.  1.
         11    1    1    2    0    0  0.17945778357E+02 -0.34510691731E+02  0.43009779870E+02  0.57990343757E+02  0.00000000000E+00 0. -1.
</event>
<event>
 7    1  0.2693725E-009  0.1006712E+03  0.7561462E-02  0.1278891E+00
          3   -1    0    0  501    0  0.00000000000E+00  0.00000000000E+00  0.39920569270E+02  0.39920569270E+02  0.00000000000E+00 0. -1.
         -3   -1    0    0    0  501 -0.00000000000E+00 -0.00000000000E+00 -0.40505300727E+03  0.40505300727E+03  0.00000000000E+00 0.  1.
         25    2    1    2    0    0 -0.46948761545E+02 -0.41284428700E+02 -0.24126345130E+03  0.27886624707E+03  0.12509892308E+03 0.  0.
          5    1    3    3  502    0 -0.11796028938E+02 -0.82699151215E+02 -0.16684086349E+03  0.18663237137E+03  0.41800000000E+01 0. -1.
         -5    1    3    3    0  502 -0.35152732608E+02  0.41414722515E+02 -0.74422587805E+02  0.92233875699E+02  0.41800000000E+01 0. -1.
        -11    1    1    2    0    0  0.19925129493E+02  0.23768117372E+02  0.66110891552E+01  0.31711838303E+02  0.00000000000E+00 0. -1.
         11    1    1    2    0    0  0.27023632052E+02  0.17516311328E+02 -0.13048007585E+03  0.13439549117E+03  0.00000000000E+00 0.  1.
</event>
<event>
 7    1  0.2693725E-009  0.1922928E+03  0.7561462E-02  0.1156409E+00
          1   -1    0    0  501    0  0.00000000000E+00  0.00000000000E+00  0.21025745778E+03  0.21025745778E+03  0.00000000000E+00 0. -1.
         -1   -1    0    0    0  501 -0.00000000000E+00 -0.00000000000E+00 -0.26266774824E+03  0.26266774824E+03  0.00000000000E+00 0.  1.
         25    2    1    2    0    0 -0.25347996904E+02  0.17350969496E+03  0.84199967647E+02  0.23126886669E+03  0.12509004340E+03 0.  0.
          5    1    3    3  502    0 -0.31577810859E+02  0.17790479131E+03  0.38551606169E+02  0.18479981506E+03  0.41800000000E+01 0.  1.
         -5    1    3    3    0  502  0.62298139554E+01 -0.43950963474E+01  0.45648361478E+02  0.46469051630E+02  0.41800000000E+01 0.  1.
        -11    1    1    2    0    0  0.55233824556E+02 -0.13860992480E+03 -0.12400266254E+03  0.19401068771E+03  0.00000000000E+00 0.  1.
         11    1    1    2    0    0 -0.29885827652E+02 -0.34899770162E+02 -0.12607595568E+02  0.47645651615E+02  0.00000000000E+00 0. -1.
</event>
<event>
 7    1  0.2693725E-009  0.1223656E+03  0.7561462E-02  0.1239245E+00
         -2   -1    0    0    0  501 -0.00000000000E+00  0.00000000000E+00  0.42555703886E+02  0.42555703886E+02  0.00000000000E+00 0.  1.
          2   -1    0    0  501    0  0.00000000000E+00 -0.00000000000E+00 -0.66650008091E+03  0.66650008091E+03  0.00000000000E+00 0. -1.
         25    2    1    2    0    0 -0.87902699876E+02 -0.47495680936E+02 -0.50020841371E+03  0.52520167203E+03  0.12508243203E+03 0.  0.
          5    1    3    3  502    0 -0.59908682969E+02 -0.80504978285E+02 -0.43757724782E+03  0.44895592438E+03  0.41800000000E+01 0. -1.
         -5    1    3    3    0  502 -0.27994016907E+02  0.33009297349E+02 -0.62631165884E+02  0.76245747646E+02  0.41800000000E+01 0. -1.
        -11    1    1    2    0    0  0.43664957919E+02  0.15986685664E+02 -0.12082536102E+03  0.12946416699E+03  0.00000000000E+00 0. -1.
         11    1    1    2    0    0  0.44237741957E+02  0.31508995272E+02 -0.29106022997E+01  0.54389945783E+02  0.00000000000E+00 0.  1.
</event>
<event>
 7    1  0.2693725E-009  0.2444553E+03  0.7561462E-02  0.1116860E+00
         -2   -1    0    0    0  501 -0.00000000000E+00  0.00000000000E+00  0.98233657784E+02  0.98233657784E+02  0.00000000000E+00 0. -1.
          2   -1    0    0  501    0  0.00000000000E+00 -0.00000000000E+00 -0.68811825662E+03  0.68811825662E+03  0.00000000000E+00 0.  1.
         25    2    1    2    0    0 -0.15081883324E+03 -0.17926196631E+03 -0.34442844322E+03  0.43492656779E+03  0.12509593857E+03 0.  0.
          5    1    3    3  502    0 -0.11969779015E+02 -0.42453407261E+00  0.87323768170E+01  0.15400735168E+02  0.41800000000E+01 0.  1.
         -5    1    3    3    0  502 -0.13884905423E+03 -0.17883743224E+03 -0.35316082004E+03  0.41952583262E+03  0.41800000000E+01 0.  1.
        -11    1    1    2    0    0  0.56589964985E+02  0.12076993472E+02 -0.75131509579E+02  0.94831543486E+02  0.00000000000E+00 0.  1.
         11    1    1    2    0    0  0.94228868259E+02  0.16718497284E+03 -0.17032464604E+03  0.25659380313E+03  0.00000000000E+00 0. -1.
</event>
<event>
 7    1  0.2693725E-009  0.1191219E+03  0.7561462E-02  0.1244553E+00
          1   -1    0    0  501    0  0.00000000000E+00  0.00000000000E+00  0.60799896269E+03  0.60799896269E+03  0.00000000000E+00 0. -1.
         -1   -1    0    0    0  501 -0.00000000000E+00 -0.00000000000E+00 -0.33741217464E+02  0.33741217464E+02  0.00000000000E+00 0.  1.
         25    2    1    2    0    0 -0.86940383802E+02  0.21906719671E+02  0.28494473217E+03  0.32385100313E+03  0.12508971635E+03 0.  0.
          5    1    3    3  502    0 -0.50167465653E+02 -0.18019635113E+02  0.25729269839E+03  0.26278981507E+03  0.41800000000E+01 0. -1.
         -5    1    3    3    0  502 -0.36772918149E+02  0.39926354784E+02  0.27652033778E+02  0.61061188062E+02  0.41800000000E+01 0. -1.
        -11    1    1    2    0    0  0.90261236124E+02 -0.49226850287E+02  0.20755785315E+03  0.23162606921E+03  0.00000000000E+00 0.  1.
         11    1    1    2    0    0 -0.33208523218E+01  0.27320130616E+02  0.81755159910E+02  0.86263107809E+02  0.00000000000E+00 0. -1.
</event>
<event>
 7    1  0.2693725E-009  0.7366434E+02  0.7561462E-02  0.1348058E+00
          1   -1    0    0  501    0  0.00000000000E+00  0.00000000000E+00  0.64277446164E+03  0.64277446164E+03  0.00000000000E+00 0. -1.
         -1   -1    0    0    0  501 -0.00000000000E+00 -0.00000000000E+00 -0.21575892518E+02  0.21575892518E+02  0.00000000000E+00 0.  1.
         25    2    1    2    0    0  0.12482252535E+02  0.48674597001E+02  0.27988969927E+03  0.31066226781E+03  0.12509107827E+03 0.  0.
          5    1    3    3  502    0  0.76110986869E+01  0.36778606095E+01 -0.11996021667E+02  0.15258847195E+02  0.41800000000E+01 0. -1.
         -5    1    3    3    0  502  0.48711538478E+01  0.44996736392E+02  0.29188572093E+03  0.29540342061E+03  0.41800000000E+01 0. -1.
        -11    1    1    2    0    0  0.23050083428E+02 -0.51879592152E+02  0.19529110016E+03  0.20337505311E+03  0.00000000000E+00 0.  1.
         11    1    1    2    0    0 -0.35532335963E+02  0.32049951502E+01  0.14601776969E+03  0.15031303323E+03  0.00000000000E+00 0. -1.
</event>
<event>
 7    1  0.2693725E-009  0.1139170E+03  0.7561462E-02  0.1253483E+00
          1   -1    0    0  501    0  0.00000000000E+00  0.00000000000E+00  0.85462839519E+02  0.85462839519E+02  0.00000000000E+00 0. -1.
         -1   -1    0    0    0  501 -0.00000000000E+00 -0.00000000000E+00 -0.20602175065E+03  0.20602175065E+03  0.00000000000E+00 0.  1.
         25    2    1    2    0    0 -0.63643035055E+02 -0.24804283069E+02 -0.26642671587E+02  0.14499555462E+03  0.12509272777E+03 0.  0.
          5    1    3    3  502    0  0.25241890945E+02 -0.20496440311E+02  0.25711864769E+02  0.41663287362E+02  0.41800000000E+01 0.  1.
         -5    1    3    3    0  502 -0.88884926000E+02 -0.43078427585E+01 -0.52354536355E+02  0.10333226726E+03  0.41800000000E+01 0.  1.
        -11    1    1    2    0    0  0.50872743440E+02  0.53943951272E+02 -0.86292274777E+02  0.11377320682E+03  0.00000000000E+00 0.  1.
         11    1    1    2    0    0  0.12770291614E+02 -0.29139668202E+02 -0.76239647691E+01  0.32715828733E+02  0.00000000000E+00 0. -1.
</event>
<event>
 7    1  0.2693725E-009  0.1023580E+03  0.7561462E-02  0.1275414E+00
         -3   -1    0    0    0  501 -0.00000000000E+00  0.00000000000E+00  0.12985550153E+02  0.12985550153E+02  0.00000000000E+00 0.  1.
          3   -1    0    0  501    0  0.00000000000E+00 -0.00000000000E+00 -0.12424106613E+04  0.12424106613E+04  0.00000000000E+00 0. -1.
         25    2    1    2    0    0  0.28459584737E+02 -0.57966369320E+02 -0.76759548325E+03  0.78039790081E+03  0.12509200513E+03 0.  0.
          5    1    3    3  502    0  0.16973390926E+02 -0.74599303300E+02 -0.74807388393E+03  0.75198747348E+03  0.41800000000E+01 0.  1.
         -5    1    3    3    0  502  0.11486193811E+02  0.16632933980E+02 -0.19521599318E+02  0.28410427329E+02  0.41800000000E+01 0.  1.
        -11    1    1    2    0    0  0.26781015954E+02  0.42248360992E+02 -0.15603116595E+03  0.16385320128E+03  0.00000000000E+00 0.  1.
         11    1    1    2    0    0 -0.55240600691E+02  0.15718008328E+02 -0.30579846190E+03  0.31114510932E+03  0.00000000000E+00 0. -1.
</event>
<event>
 7    1  0.2693725E-009  0.1068204E+03  0.7561462E-02  0.1266574E+00
          2   -1    0    0  501    0  0.00000000000E+00  0.00000000000E+00  0.26993352445E+03  0.26993352445E+03  0.00000000000E+00 0. -1.
         -2   -1    0    0    0  501 -0.00000000000E+00 -0.00000000000E+00 -0.52956965384E+02  0.52956965384E+02  0.00000000000E+00 0.  1.
         25    2    1    2    0    0  0.32213477838E+02  0.34989492465E+02  0.83230857015E+02  0.15759527576E+03  0.12508765985E+03 0.  0.
          5    1    3    3  502    0 -0.41352588485E+02 -0.83937313114E+01  0.68717797966E+01  0.42955617297E+02  0.41800000000E+01 0. -1.
         -5    1    3    3    0  502  0.73566066323E+02  0.43383223776E+02  0.76359077218E+02  0.11463965847E+03  0.41800000000E+01 0. -1.
        -11    1    1    2    0    0  0.19747621419E+02  0.47553778954E+01  0.50554111906E+01  0.20931778543E+02  0.00000000000E+00 0.  1.
         11    1    1    2    0    0 -0.51961099257E+02 -0.39744870360E+02  0.12869029086E+03  0.14436343553E+03  0.00000000000E+00 0. -1.
</event>
<event>
 7    1  0.2693725E-009  0.2940349E+03  0.7561462E-02  0.1088261E+00
         -1   -1    0    0    0  501 -0.00000000000E+00  0.00000000000E+00  0.34820581275E+03  0.34820581275E+03  0.00000000000E+00 0.  1.
          1   -1    0    0  501    0  0.00000000000E+00 -0.00000000000E+00 -0.27044497728E+03  0.27044497728E+03  0.00000000000E+00 0. -1.
         25    2    1    2    0    0 -0.95731217578E+02 -0.26894786744E+03  0.28514702804E+02  0.31298177361E+03  0.12508829251E+03 0.  0.
          5    1    3    3  502    0 -0.90664585769E+02 -0.23579545882E+03  0.67367049522E+02  0.26148682046E+03  0.41800000000E+01 0.  1.
         -5    1    3    3    0  502 -0.50666318087E+01 -0.33152408613E+02 -0.38852346718E+02  0.51494953153E+02  0.41800000000E+01 0.  1.
        -11    1    1    2    0    0  0.24893432438E+02  0.20398297585E+03  0.36456469293E+02  0.20870508276E+03  0.00000000000E+00 0.  1.
         11    1    1    2    0    0  0.70837785140E+02  0.64964891585E+02  0.12789663371E+02  0.96963933663E+02  0.00000000000E+00 0. -1.
</event>
<event>
 7    1  0.2693725E-009  0.1447004E+03  0.7561462E-02  0.1207141E+00
          1   -1    0    0  501    0  0.00000000000E+00  0.00000000000E+00  0.21468567809E+03  0.21468567809E+03  0.00000000000E+00 0. -1.
         -1   -1    0    0    0  501 -0.00000000000E+00 -0.00000000000E+00 -0.12086966138E+03  0.12086966138E+03  0.00000000000E+00 0.  1.
         25    2    1    2    0    0  0.70645176338E+02  0.84283794571E+02  0.96743876145E+02  0.19261644049E+03  0.12508883487E+03 0.  0.
          5    1    3    3  502    0  0.53332263784E+02  0.11326909339E+03  0.50167512213E+02  0.13493876226E+03  0.41800000000E+01 0. -1.
         -5    1    3    3    0  502  0.17312912555E+02 -0.28985298822E+02  0.46576363932E+02  0.57677678231E+02  0.41800000000E+01 0. -1.
        -11    1    1    2    0    0  0.99590431982E+01  0.38523588124E+01 -0.19624192248E+02  0.22341265211E+02  0.00000000000E+00 0. -1.
         11    1    1    2    0    0 -0.80604219537E+02 -0.88136153383E+02  0.16696332818E+02  0.12059763377E+03  0.00000000000E+00 0.  1.
</event>
<event>
 7    1  0.2693725E-009  0.1665046E+03  0.7561462E-02  0.1181543E+00
          2   -1    0    0  501    0  0.00000000000E+00  0.00000000000E+00  0.39517656403E+03  0.39517656403E+03  0.00000000000E+00 0. -1.
         -2   -1    0    0    0  501 -0.00000000000E+00 -0.00000000000E+00 -0.10130357132E+03  0.10130357132E+03  0.00000000000E+00 0.  1.
         25    2    1    2    0    0 -0.95263245560E+02  0.12462144402E+03  0.89384830153E+02  0.21964266964E+03  0.12509062396E+03 0.  0.
          5    1    3    3  502    0  0.13175898184E+02  0.25387554549E+02  0.64258221984E+02  0.70460795564E+02  0.41800000000E+01 0. -1.
         -5    1    3    3    0  502 -0.10843914374E+03  0.99233889474E+02  0.25126608170E+02  0.14918187408E+03  0.41800000000E+01 0. -1.
        -11    1    1    2    0    0  0.26717795290E+02 -0.29424269314E+02 -0.15175272298E+01  0.39773497442E+02  0.00000000000E+00 0.  1.
         11    1    1    2    0    0  0.68545450270E+02 -0.95197174710E+02  0.20600568978E+03  0.23706396826E+03  0.00000000000E+00 0. -1.
</event>
<event>
 7    1  0.2693725E-009  0.1606173E+03  0.7561462E-02  0.1188002E+00
         -2   -1    0    0    0  501 -0.00000000000E+00  0.00000000000E+00  0.42257902989E+02  0.42257902989E+02  0.00000000000E+00 0.  1.
          2   -1    0    0  501    0  0.00000000000E+00 -0.00000000000E+00 -0.71951744832E+03  0.71951744832E+03  0.00000000000E+00 0. -1.
         25    2    1    2    0    0 -0.11082095511E+03 -0.79535844016E+02 -0.35699039291E+03  0.40211679240E+03  0.12509412264E+03 0.  0.
          5    1    3    3  502    0 -0.99478449606E+02 -0.10876084186E+03 -0.32619427163E+03  0.35797354357E+03  0.41800000000E+01 0. -1.
         -5    1    3    3    0  502 -0.11342505502E+02  0.29224997844E+02 -0.30796121288E+02  0.44143248821E+02  0.41800000000E+01 0. -1.
        -11    1    1    2    0    0  0.82853080666E+01  0.24331067489E+02 -0.88590589787E+01  0.27186947253E+02  0.00000000000E+00 0.  1.
         11    1    1    2    0    0  0.10253564704E+03  0.55204776526E+02 -0.31141009344E+03  0.33247161166E+03  0.00000000000E+00 0. -1.
</event>
<event>
 7    1  0.2693725E-009  0.1402397E+03  0.7561462E-02  0.1213007E+00
         -2   -1    0    0    0  501 -0.00000000000E+00  0.00000000000E+00  0.28598813502E+02  0.28598813502E+02  0.00000000000E+00 0.  1.
          2   -1    0    0  501    0  0.00000000000E+00 -0.00000000000E+00 -0.99985520865E+03  0.99985520865E+03  0.00000000000E+00 0. -1.
         25    2    1    2    0    0  0.10871921935E+03  0.39948689459E+02 -0.34289869202E+03  0.38293947363E+03  0.12508941215E+03 0.  0.
          5    1    3    3  502    0  0.96969380126E+02  0.53386994264E+01 -0.10851584657E+03  0.14568707476E+03  0.41800000000E+01 0. -1.
         -5    1    3    3    0  502  0.11749839219E+02  0.34609990033E+02 -0.23438284545E+03  0.23725239888E+03  0.41800000000E+01 0. -1.
        -11    1    1    2    0    0 -0.79303332531E+02 -0.69016475466E+02 -0.48775792111E+03  0.49895899835E+03  0.00000000000E+00 0.  1.
         11    1    1    2    0    0 -0.29415886814E+02  0.29067786007E+02 -0.14059978202E+03  0.14655555016E+03  0.00000000000E+00 0. -1.
</event>
<event>
 7    1  0.2693725E-009  0.9460601E+02  0.7561462E-02  0.1292066E+00
         -2   -1    0    0    0  501 -0.00000000000E+00  0.00000000000E+00  0.53358105992E+02  0.53358105992E+02  0.00000000000E+00 0.  1.
          2   -1    0    0  501    0  0.00000000000E+00 -0.00000000000E+00 -0.33152625092E+03  0.33152625092E+03  0.00000000000E+00 0. -1.
         25    2    1    2    0    0 -0.34294538621E+02  0.62956195322E+02 -0.19427320531E+03  0.24192785963E+03  0.12508962010E+03 0.  0.
          5    1    3    3  502    0 -0.10023598906E+02  0.34775061622E+02 -0.20067746858E+03  0.20395758442E+03  0.41800000000E+01 0.  1.
         -5    1    3    3    0  502 -0.24270939715E+02  0.28181133701E+02  0.64042632776E+01  0.37970275208E+02  0.41800000000E+01 0.  1.
        -11    1    1    2    0    0  0.32656230690E+02  0.16011026213E+02 -0.32051839449E+02  0.48477858609E+02  0.00000000000E+00 0.  1.
         11    1    1    2    0    0  0.16383079313E+01 -0.78967221535E+02 -0.51843100170E+02  0.94478638671E+02  0.00000000000E+00 0. -1.
</event>
<event>
 7    1  0.2693725E-009  0.1012480E+03  0.7561462E-02  0.1277693E+00
         -2   -1    0    0    0  501 -0.00000000000E+00  0.00000000000E+00  0.18691785288E+02  0.18691785288E+02  0.00000000000E+00 0.  1.
          2   -1    0    0  501    0  0.00000000000E+00 -0.00000000000E+00 -0.72206162235E+03  0.72206162235E+03  0.00000000000E+00 0. -1.
         25    2    1    2    0    0 -0.24402310283E+02 -0.19647010700E+02 -0.31583083108E+03  0.34114006460E+03  0.12508378007E+03 0.  0.
          5    1    3    3  502    0  0.36848958386E+02 -0.24115187365E+02 -0.43874802369E+02  0.62304563868E+02  0.41800000000E+01 0.  1.
         -5    1    3    3    0  502 -0.61251268669E+02  0.44681766649E+01 -0.27195602871E+03  0.27883550073E+03  0.41800000000E+01 0.  1.
        -11    1    1    2    0    0 -0.33774722602E+02  0.18512356697E+02 -0.17979474236E+03  0.18387383886E+03  0.00000000000E+00 0.  1.
         11    1    1    2    0    0  0.58177032885E+02  0.11346540029E+01 -0.20774426361E+03  0.21573950417E+03  0.00000000000E+00 0. -1.
</event>
<event>
 7    1  0.2693725E-009  0.1118297E+03  0.7561462E-02  0.1257219E+00
          1   -1    0    0  501    0  0.00000000000E+00  0.00000000000E+00  0.55858735272E+02  0.55858735272E+02  0.00000000000E+00 0. -1.
         -1   -1    0    0    0  501 -0.00000000000E+00 -0.00000000000E+00 -0.30624205476E+03  0.30624205476E+03  0.00000000000E+00 0.  1.
         25    2    1    2    0    0  0.70519762688E+02  0.24609379314E+02 -0.17483023787E+03  0.22758168678E+03  0.12509657711E+03 0.  0.
          5    1    3    3  502    0  0.10547339988E+03  0.29005611556E+02 -0.12162879407E+03  0.16363679149E+03  0.41800000000E+01 0.  1.
         -5    1    3    3    0  502 -0.34953637190E+02 -0.43962322417E+01 -0.53201443802E+02  0.63944895288E+02  0.41800000000E+01 0.  1.
        -11    1    1    2    0    0 -0.46579997636E+02 -0.33543998285E+01  0.58324770859E+01  0.47063424938E+02  0.00000000000E+00 0. -1.
         11    1    1    2    0    0 -0.23939765052E+02 -0.21254979486E+02 -0.81385558701E+02  0.87455678311E+02  0.00000000000E+00 0.  1.
</event>
<event>
 7    1  0.2693725E-009  0.9454818E+02  0.7561462E-02  0.1292197E+00
          1   -1    0    0  501    0  0.00000000000E+00  0.00000000000E+00  0.45452931922E+03  0.45452931922E+03  0.00000000000E+00 0. -1.
         -1   -1    0    0    0  501 -0.00000000000E+00 -0.00000000000E+00 -0.27801305862E+02  0.27801305862E+02  0.00000000000E+00 0.  1.
         25    2    1    2    0    0  0.81590857418E+01  0.18986343781E+02  0.19576025339E+03  0.23323398781E+03  0.12509582060E+03 0.  0.
          5    1    3    3  502    0 -0.43806068361E+02  0.34936864136E+02  0.15584824257E+03  0.16566744765E+03  0.41800000000E+01 0.  1.
         -5    1    3    3    0  502  0.51965154103E+02 -0.15950520356E+02  0.39912010825E+02  0.67566540156E+02  0.41800000000E+01 0.  1.
        -11    1    1    2    0    0 -0.89989360137E+01 -0.48266491332E+02  0.20206949261E+03  0.20794882754E+03  0.00000000000E+00 0.  1.
         11    1    1    2    0    0  0.83985027192E+00  0.29280147551E+02  0.28898267364E+02  0.41147809732E+02  0.00000000000E+00 0. -1.
</event>
<event>
 7    1  0.2693725E-009  0.1382320E+03  0.7561462E-02  0.1215728E+00
         -3   -1    0    0    0  501 -0.00000000000E+00  0.00000000000E+00  0.19206232511E+03  0.19206232511E+03  0.00000000000E+00 0.  1.
          3   -1    0    0  501    0  0.00000000000E+00 -0.00000000000E+00 -0.13439176054E+03  0.13439176054E+03  0.00000000000E+00 0. -1.
         25    2    1    2    0    0  0.11321365013E+03  0.31405236376E+02  0.43800223129E+02  0.17711374386E+03  0.12508876557E+03 0.  0.
          5    1    3    3  502    0  0.25496134099E+02  0.50902910420E+02 -0.26510760003E+02  0.62940066247E+02  0.41800000000E+01 0. -1.
         -5    1    3    3    0  502  0.87717516027E+02 -0.19497674044E+02  0.70310983132E+02  0.11417367761E+03  0.41800000000E+01 0. -1.
        -11    1    1    2    0    0 -0.18731140624E+02 -0.29473336901E+02  0.38199613656E+02  0.51756581230E+02  0.00000000000E+00 0.  1.
         11    1    1    2    0    0 -0.94482509502E+02 -0.19318994745E+01 -0.24329272214E+02  0.97583760553E+02  0.00000000000E+00 0. -1.
</event>
<event>
 7    1  0.5017062E-009  0.1284755E+03  0.7561462E-02  0.1229735E+00
          1   -1    0    0  501    0  0.00000000000E+00  0.00000000000E+00  0.19064338725E+03  0.19064338725E+03  0.00000000000E+00 0. -1.
         -1   -1    0    0    0  501 -0.00000000000E+00 -0.00000000000E+00 -0.96204386134E+02  0.96204386134E+02  0.00000000000E+00 0.  1.
         25    2    1    2    0    0  0.49484877795E+02  0.63748261535E+02  0.50164787084E+02  0.15709136362E+03  0.12509435112E+03 0.  0.
          5    1    3    3  502    0  0.83867269856E+02  0.25504643479E+02  0.57583240013E+02  0.10496431642E+03  0.41800000000E+01 0. -1.
         -5    1    3    3    0  502 -0.34382392061E+02  0.38243618056E+02 -0.74184529295E+01  0.52127047199E+02  0.41800000000E+01 0. -1.
        -11    1    1    2    0    0 -0.21796338132E+02 -0.81725894372E+02  0.15557448500E+02  0.86001374237E+02  0.00000000000E+00 0.  1.
         11    1    1    2    0    0 -0.27688539663E+02  0.17977632837E+02  0.28716765537E+02  0.43755035527E+02  0.00000000000E+00 0. -1.
</event>
<event>
 7    1  0.2693725E-009  0.1287490E+03  0.7561462E-02  0.1229324E+00
          2   -1    0    0  501    0  0.00000000000E+00  0.00000000000E+00  0.64623794160E+03  0.64623794160E+03  0.00000000000E+00 0. -1.
         -2   -1    0    0    0  501 -0.00000000000E+00 -0.00000000000E+00 -0.32542727110E+02  0.32542727110E+02  0.00000000000E+00 0.  1.
         25    2    1    2    0    0  0.85407409322E+02  0.34646237187E+02  0.27116057201E+03  0.31251449275E+03  0.12506984068E+03 0.  0.
          5    1    3    3  502    0 -0.94983291305E+01  0.55593036466E+02  0.79287689380E+02  0.97390009996E+02  0.41800000000E+01 0.  1.
         -5    1    3    3    0  502  0.94905738453E+02 -0.20946799280E+02  0.19187288263E+03  0.21512448276E+03  0.41800000000E+01 0.  1.
        -11    1    1    2    0    0 -0.39407030105E+02 -0.41417117703E+02  0.29221109287E+03  0.29775092688E+03  0.00000000000E+00 0. -1.
         11    1    1    2    0    0 -0.46000379218E+02  0.67708805161E+01  0.50323549604E+02  0.68515249076E+02  0.00000000000E+00 0.  1.
</event>
<event>
 7    1  0.2693725E-009  0.1037622E+03  0.7561462E-02  0.1272578E+00
         -1   -1    0    0    0  501 -0.00000000000E+00  0.00000000000E+00  0.22946747890E+03  0.22946747890E+03  0.00000000000E+00 0.  1.
          1   -1    0    0  501    0  0.00000000000E+00 -0.00000000000E+00 -0.85091596297E+02  0.85091596297E+02  0.00000000000E+00 0. -1.
         25    2    1    2    0    0 -0.49859141756E+02  0.62719544569E+02  0.39402646652E+02  0.15368471060E+03  0.12508695544E+03 0.  0.
          5    1    3    3  502    0 -0.50727122599E+02  0.63551613708E+02 -0.28030278710E+02  0.86111657147E+02  0.41800000000E+01 0. -1.
         -5    1    3    3    0  502  0.86798084292E+00 -0.83206913863E+00  0.67432925362E+02  0.67573053451E+02  0.41800000000E+01 0. -1.
        -11    1    1    2    0    0 -0.72590077438E+00 -0.70560152964E+02  0.64801644873E+02  0.95804568245E+02  0.00000000000E+00 0.  1.
         11    1    1    2    0    0  0.50585042531E+02  0.78406083949E+01  0.40171591075E+02  0.65069796352E+02  0.00000000000E+00 0. -1.
</event>
<event>
 7    1  0.2693725E-009  0.2224710E+03  0.7561462E-02  0.1132054E+00
          1   -1    0    0  501    0  0.00000000000E+00  0.00000000000E+00  0.13317001819E+04  0.13317001819E+04  0.00000000000E+00 0. -1.
         -1   -1    0    0    0  501 -0.00000000000E+00 -0.00000000000E+00 -0.39285661958E+02  0.39285661958E+02  0.00000000000E+00 0.  1.
         25    2    1    2    0    0  0.81806844348E+02  0.18369395468E+03  0.64694051730E+03  0.68892323786E+03  0.12508943188E+03 0.  0.
          5    1    3    3  502    0  0.63232394655E+02  0.19761890650E+03  0.61598455260E+03  0.65000462258E+03  0.41800000000E+01 0.  1.
         -5    1    3    3    0  502  0.18574449693E+02 -0.13924951814E+02  0.30955964708E+02  0.38918615281E+02  0.41800000000E+01 0.  1.
        -11    1    1    2    0    0  0.12900808827E+02 -0.37274938663E+02  0.19637211977E+03  0.20029443662E+03  0.00000000000E+00 0.  1.
         11    1    1    2    0    0 -0.94707653175E+02 -0.14641901602E+03  0.44910188287E+03  0.48176816937E+03  0.00000000000E+00 0. -1.
</event>
<event>
 7    1  0.3083863E-009  0.8099807E+02  0.7561462E-02  0.1326243E+00
         -1   -1    0    0    0  501 -0.00000000000E+00  0.00000000000E+00  0.19040104994E+02  0.19040104994E+02  0.00000000000E+00 0.  1.
          1   -1    0    0  501    0  0.00000000000E+00 -0.00000000000E+00 -0.78176157615E+03  0.78176157615E+03  0.00000000000E+00 0. -1.
         25    2    1    2    0    0  0.33155647683E+02  0.45157355971E+02 -0.41843132558E+03  0.44030721604E+03  0.12508871451E+03 0.  0.
          5    1    3    3  502    0  0.35293392651E+02  0.42408738034E+02 -0.42677480067E+03  0.43034675265E+03  0.41800000000E+01 0. -1.
         -5    1    3    3    0  502 -0.21377449684E+01  0.27486179374E+01  0.83434750975E+01  0.99604633837E+01  0.41800000000E+01 0. -1.
        -11    1    1    2    0    0  0.27859580393E+01 -0.61626119853E+02 -0.26248831737E+03  0.26963986531E+03  0.00000000000E+00 0. -1.
         11    1    1    2    0    0 -0.35941605722E+02  0.16468763882E+02 -0.81801828210E+02  0.90854599796E+02  0.00000000000E+00 0.  1.
</event>
<event>
 7    1  0.2693725E-009  0.9967892E+02  0.7561462E-02  0.1280973E+00
          2   -1    0    0  501    0  0.00000000000E+00  0.00000000000E+00  0.55859923297E+02  0.55859923297E+02  0.00000000000E+00 0. -1.
         -2   -1    0    0    0  501 -0.00000000000E+00 -0.00000000000E+00 -0.61310445136E+03  0.61310445136E+03  0.00000000000E+00 0.  1.
         25    2    1    2    0    0  0.37925997471E+02  0.73005163075E+01 -0.55811786398E+03  0.57326665947E+03  0.12508970361E+03 0.  0.
          5    1    3    3  502    0  0.38189808345E+02  0.51055841772E+02 -0.15348915453E+03  0.16625749126E+03  0.41800000000E+01 0. -1.
         -5    1    3    3    0  502 -0.26381087396E+00 -0.43755325464E+02 -0.40462870944E+03  0.40700916821E+03  0.41800000000E+01 0. -1.
        -11    1    1    2    0    0 -0.62830994382E+02 -0.16493146574E+02  0.13425369467E+02  0.66332482874E+02  0.00000000000E+00 0.  1.
         11    1    1    2    0    0  0.24904996911E+02  0.91926302667E+01 -0.12552033550E+02  0.29365232310E+02  0.00000000000E+00 0. -1.
</event>
<event>
 7    1  0.2693725E-009  0.9789361E+02  0.7561462E-02  0.1284789E+00
         -4   -1    0    0    0  501 -0.00000000000E+00  0.00000000000E+00  0.16274310058E+03  0.16274310058E+03  0.00000000000E+00 0.  1.
          4   -1    0    0  501    0  0.00000000000E+00 -0.00000000000E+00 -0.75838518098E+02  0.75838518098E+02  0.00000000000E+00 0. -1.
         25    2    1    2    0    0  0.11594789216E+02 -0.66539711647E+01  0.26995819777E+02  0.12866908195E+03  0.12509294103E+03 0.  0.
          5    1    3    3  502    0 -0.33520285881E+02 -0.38100948754E+02  0.47687812455E+02  0.69763111444E+02  0.41800000000E+01 0. -1.
         -5    1    3    3    0  502  0.45115075097E+02  0.31446977590E+02 -0.20691992678E+02  0.58905970508E+02  0.41800000000E+01 0. -1.
        -11    1    1    2    0    0  0.21197113493E+02 -0.32401679197E+02  0.13632011122E+02  0.41048972734E+02  0.00000000000E+00 0. -1.
         11    1    1    2    0    0 -0.32791902709E+02  0.39055650362E+02  0.46276751579E+02  0.68863563989E+02  0.00000000000E+00 0.  1.
</event>
<event>
 7    1  0.2693725E-009  0.1003448E+03  0.7561462E-02  0.1279573E+00
         -2   -1    0    0    0  501 -0.00000000000E+00  0.00000000000E+00  0.10311179363E+03  0.10311179363E+03  0.00000000000E+00 0. -1.
          2   -1    0    0  501    0  0.00000000000E+00 -0.00000000000E+00 -0.14650850734E+03  0.14650850734E+03  0.00000000000E+00 0.  1.
         25    2    1    2    0    0 -0.30892777763E+02  0.46587392598E+02 -0.10645163413E+02  0.13742195608E+03  0.12508687238E+03 0.  0.
          5    1    3    3  502    0 -0.56023055800E+02  0.32548542447E+02  0.41963639406E+02  0.77307243055E+02  0.41800000000E+01 0. -1.
         -5    1    3    3    0  502  0.25130278038E+02  0.14038850150E+02 -0.52608802819E+02  0.60114713023E+02  0.41800000000E+01 0. -1.
        -11    1    1    2    0    0 -0.17580358580E+02  0.18500079223E+02 -0.27198312592E+01  0.25665529824E+02  0.00000000000E+00 0. -1.
         11    1    1    2    0    0  0.48473136342E+02 -0.65087471821E+02 -0.30031719040E+02  0.86532815067E+02  0.00000000000E+00 0.  1.
</event>
<event>
 7    1  0.2693725E-009  0.1561146E+03  0.7561462E-02  0.1193154E+00
         -1   -1    0    0    0  501 -0.00000000000E+00  0.00000000000E+00  0.23898773346E+03  0.23898773346E+03  0.00000000000E+00 0.  1.
          1   -1    0    0  501    0  0.00000000000E+00 -0.00000000000E+00 -0.12399326116E+03  0.12399326116E+03  0.00000000000E+00 0. -1.
         25    2    1    2    0    0 -0.12322003634E+03  0.73404626717E+01  0.16271684013E+02  0.17649152327E+03  0.12508968918E+03 0.  0.
          5    1    3    3  502    0 -0.11639902608E+03  0.40514531057E+02  0.45615227055E+02  0.13148529134E+03  0.41800000000E+01 0.  1.
         -5    1    3    3    0  502 -0.68210102545E+01 -0.33174068386E+02 -0.29343543042E+02  0.45006231929E+02  0.41800000000E+01 0.  1.
        -11    1    1    2    0    0  0.13868330214E+03 -0.10206594352E+02  0.74908640475E+02  0.15795105976E+03  0.00000000000E+00 0.  1.
         11    1    1    2    0    0 -0.15463265805E+02  0.28661316805E+01  0.23814147814E+02  0.28538411594E+02  0.00000000000E+00 0. -1.
</event>
<event>
 7    1  0.2693725E-009  0.1080104E+03  0.7561462E-02  0.1264299E+00
         -2   -1    0    0    0  501 -0.00000000000E+00  0.00000000000E+00  0.54852848306E+02  0.54852848306E+02  0.00000000000E+00 0. -1.
          2   -1    0    0  501    0  0.00000000000E+00 -0.00000000000E+00 -0.22776143235E+03  0.22776143235E+03  0.00000000000E+00 0.  1.
         25    2    1    2    0    0 -0.20389780256E+01 -0.18549693631E+02 -0.70396339622E+02  0.14474231472E+03  0.12508574848E+03 0.  0.
          5    1    3    3  502    0 -0.58981797555E+02  0.13542802587E+02 -0.28777881434E+02  0.67140887725E+02  0.41800000000E+01 0.  1.
         -5    1    3    3    0  502  0.56942819529E+02 -0.32092496217E+02 -0.41618458188E+02  0.77601426993E+02  0.41800000000E+01 0.  1.
        -11    1    1    2    0    0 -0.53168140134E+01 -0.35206433546E+02 -0.26060084624E+02  0.44123570627E+02  0.00000000000E+00 0. -1.
         11    1    1    2    0    0  0.73557920390E+01  0.53756127177E+02 -0.76452159801E+02  0.93748395313E+02  0.00000000000E+00 0.  1.
</event>
<event>
 7    1  0.2693725E-009  0.9591162E+02  0.7561462E-02  0.1289136E+00
         -1   -1    0    0    0  501 -0.00000000000E+00  0.00000000000E+00  0.18821129704E+03  0.18821129704E+03  0.00000000000E+00 0.  1.
          1   -1    0    0  501    0  0.00000000000E+00 -0.00000000000E+00 -0.78416528769E+02  0.78416528769E+02  0.00000000000E+00 0. -1.
         25    2    1    2    0    0  0.10140675980E+02 -0.45274007675E+02  0.10556342974E+03  0.17012911177E+03  0.12509079859E+03 0.  0.
          5    1    3    3  502    0 -0.32269454341E+02  0.56776800129E+01  0.97830756662E+02  0.10325639488E+03  0.41800000000E+01 0.  1.
         -5    1    3    3    0  502  0.42410130321E+02 -0.50951687687E+02  0.77326730814E+01  0.66872716896E+02  0.41800000000E+01 0.  1.
        -11    1    1    2    0    0  0.34274983551E+02  0.29540613258E+02 -0.11738120909E+02  0.46746184995E+02  0.00000000000E+00 0. -1.
         11    1    1    2    0    0 -0.44415659531E+02  0.15733394416E+02  0.15969459436E+02  0.49752529042E+02  0.00000000000E+00 0.  1.
</event>
<event>
 7    1  0.2693725E-009  0.7445007E+02  0.7561462E-02  0.1345583E+00
         -1   -1    0    0    0  501 -0.00000000000E+00  0.00000000000E+00  0.78436123768E+03  0.78436123768E+03  0.00000000000E+00 0.  1.
          1   -1    0    0  501    0  0.00000000000E+00 -0.00000000000E+00 -0.18497817555E+02  0.18497817555E+02  0.00000000000E+00 0. -1.
         25    2    1    2    0    0  0.28856906160E+01 -0.46682123802E+02  0.35260388815E+03  0.37704733451E+03  0.12509053773E+03 0.  0.
          5    1    3    3  502    0 -0.10439878802E+01 -0.10006042104E+02  0.33634399859E+03  0.33652038360E+03  0.41800000000E+01 0.  1.
         -5    1    3    3    0  502  0.39296784962E+01 -0.36676081698E+02  0.16259889561E+02  0.40526950913E+02  0.41800000000E+01 0.  1.
        -11    1    1    2    0    0 -0.42998732228E+02  0.42658886060E+02  0.28501855810E+03  0.29138333857E+03  0.00000000000E+00 0.  1.
         11    1    1    2    0    0  0.40113041612E+02  0.40232377425E+01  0.12824097388E+03  0.13442838216E+03  0.00000000000E+00 0. -1.
</event>
<event>
 7    1  0.2693725E-009  0.8269682E+02  0.7561462E-02  0.1321568E+00
          1   -1    0    0  501    0  0.00000000000E+00  0.00000000000E+00  0.72169138251E+02  0.72169138251E+02  0.00000000000E+00 0. -1.
         -1   -1    0    0    0  501 -0.00000000000E+00 -0.00000000000E+00 -0.18961447964E+03  0.18961447964E+03  0.00000000000E+00 0.  1.
         25    2    1    2    0    0 -0.12525933674E+02  0.29303390958E+02 -0.32737888009E+02  0.13317108591E+03  0.12508869284E+03 0.  0.
          5    1    3    3  502    0  0.23025623623E+02  0.30703252130E+02 -0.70962288975E+02  0.80783586768E+02  0.41800000000E+01 0.  1.
         -5    1    3    3    0  502 -0.35551557297E+02 -0.13998611727E+01  0.38224400965E+02  0.52387499145E+02  0.41800000000E+01 0.  1.
        -11    1    1    2    0    0 -0.55398840666E+01 -0.57342640971E+02 -0.73580502388E+02  0.93450302946E+02  0.00000000000E+00 0.  1.
         11    1    1    2    0    0  0.18065817741E+02  0.28039250014E+02 -0.11126950989E+02  0.35162229029E+02  0.00000000000E+00 0. -1.
</event>
<event>
 7    1  0.2693725E-009  0.1104531E+03  0.7561462E-02  0.1259733E+00
          2   -1    0    0  501    0  0.00000000000E+00  0.00000000000E+00  0.10544404438E+04  0.10544404438E+04  0.00000000000E+00 0. -1.
         -2   -1    0    0    0  501 -0.00000000000E+00 -0.00000000000E+00 -0.21878516923E+02  0.21878516923E+02  0.00000000000E+00 0.  1.
         25    2    1    2    0    0  0.71669683299E+02 -0.76174714573E+02  0.57165990713E+03  0.59445902106E+03  0.12508935870E+03 0.  0.
          5    1    3    3  502    0  0.74075510651E+02 -0.56026222395E+02  0.18313953990E+03  0.20538666546E+03  0.41800000000E+01 0.  1.
         -5    1    3    3    0  502 -0.24058273523E+01 -0.20148492178E+02  0.38852036723E+03  0.38907235560E+03  0.41800000000E+01 0.  1.
        -11    1    1    2    0    0 -0.57475528129E+02  0.45110801276E+02  0.42882551963E+03  0.43500545630E+03  0.00000000000E+00 0. -1.
         11    1    1    2    0    0 -0.14194155170E+02  0.31063913297E+02  0.32076500095E+02  0.46854483336E+02  0.00000000000E+00 0.  1.
</event>
<event>
 7    1  0.2693725E-009  0.1032007E+03  0.7561462E-02  0.1273706E+00
          4   -1    0    0  501    0  0.00000000000E+00  0.00000000000E+00  0.27710907045E+03  0.27710907045E+03  0.00000000000E+00 0. -1.
         -4   -1    0    0    0  501 -0.00000000000E+00 -0.00000000000E+00 -0.87720781526E+02  0.87720781526E+02  0.00000000000E+00 0.  1.
         25    2    1    2    0    0 -0.76962319063E+02 -0.48814867541E+02  0.24937813439E+02  0.15676770856E+03  0.12509248603E+03 0.  0.
          5    1    3    3  502    0 -0.66205411315E+02 -0.25261441037E+02 -0.43653188582E+02  0.83332887650E+02  0.41800000000E+01 0. -1.
         -5    1    3    3    0  502 -0.10756907748E+02 -0.23553426505E+02  0.68591002020E+02  0.73434820913E+02  0.41800000000E+01 0. -1.
        -11    1    1    2    0    0  0.66855394434E+02  0.82254344592E+01  0.14891576526E+03  0.16344175317E+03  0.00000000000E+00 0. -1.
         11    1    1    2    0    0  0.10106924629E+02  0.40589433082E+02  0.15534710225E+02  0.44620390240E+02  0.00000000000E+00 0.  1.
</event>
<event>
 7    1  0.2693725E-009  0.7891559E+02  0.7561462E-02  0.1332157E+00
          2   -1    0    0  501    0  0.00000000000E+00  0.00000000000E+00  0.12711088486E+03  0.12711088486E+03  0.00000000000E+00 0. -1.
         -2   -1    0    0    0  501 -0.00000000000E+00 -0.00000000000E+00 -0.11366810831E+03  0.11366810831E+03  0.00000000000E+00 0.  1.
         25    2    1    2    0    0  0.11926409615E+02 -0.21757941975E+02 -0.37585276801E+02  0.13294959044E+03  0.12508914134E+03 0.  0.
          5    1    3    3  502    0  0.21447715831E+02  0.28751376435E+02 -0.65140369310E+02  0.74480777890E+02  0.41800000000E+01 0.  1.
         -5    1    3    3    0  502 -0.95213062157E+01 -0.50509318410E+02  0.27555092508E+02  0.58468812554E+02  0.41800000000E+01 0.  1.
        -11    1    1    2    0    0  0.51644498493E+01  0.42761073549E+02 -0.71473707262E+01  0.43660804637E+02  0.00000000000E+00 0.  1.
         11    1    1    2    0    0 -0.17090859464E+02 -0.21003131574E+02  0.58175424083E+02  0.64168598086E+02  0.00000000000E+00 0. -1.
</event>
<event>
 7    1  0.2693725E-009  0.1059186E+03  0.7561462E-02  0.1268320E+00
          1   -1    0    0  501    0  0.00000000000E+00  0.00000000000E+00  0.26833125896E+03  0.26833125896E+03  0.00000000000E+00 0. -1.
         -1   -1    0    0    0  501 -0.00000000000E+00 -0.00000000000E+00 -0.60971668176E+02  0.60971668176E+02  0.00000000000E+00 0.  1.
         25    2    1    2    0    0 -0.84379034541E+01 -0.64110953308E+02  0.12960693434E+03  0.19138140885E+03  0.12508986239E+03 0.  0.
          5    1    3    3  502    0  0.28251477036E+02  0.25020976408E+02  0.13217549834E+02  0.40204119673E+02  0.41800000000E+01 0.  1.
         -5    1    3    3    0  502 -0.36689380490E+02 -0.89131929716E+02  0.11638938451E+03  0.15117728917E+03  0.41800000000E+01 0.  1.
        -11    1    1    2    0    0  0.23465876422E+02  0.20147347880E+02 -0.14856292100E+02  0.34311403320E+02  0.00000000000E+00 0.  1.
         11    1    1    2    0    0 -0.15027972968E+02  0.43963605429E+02  0.92608948547E+02  0.10361011497E+03  0.00000000000E+00 0. -1.
</event>
<event>
 7    1  0.2693725E-009  0.1669320E+03  0.7561462E-02  0.1181086E+00
         -1   -1    0    0    0  501 -0.00000000000E+00  0.00000000000E+00  0.12475318267E+03  0.12475318267E+03  0.00000000000E+00 0.  1.
          1   -1    0    0  501    0  0.00000000000E+00 -0.00000000000E+00 -0.27920820181E+03  0.27920820181E+03  0.00000000000E+00 0. -1.
         25    2    1    2    0    0 -0.25953870662E+02 -0.14811961638E+03 -0.12160238082E+03  0.23032363875E+03  0.12509522528E+03 0.  0.
          5    1    3    3  502    0 -0.91838873631E+01 -0.15766409528E+03 -0.13387185688E+03  0.20707838418E+03  0.41800000000E+01 0. -1.
         -5    1    3    3    0  502 -0.16769983299E+02  0.95444789073E+01  0.12269476058E+02  0.23245254574E+02  0.41800000000E+01 0. -1.
        -11    1    1    2    0    0  0.34380300651E+02  0.14091167841E+03 -0.66639131172E+01  0.14519818843E+03  0.00000000000E+00 0.  1.
         11    1    1    2    0    0 -0.84264299890E+01  0.72079379653E+01 -0.26188725197E+02  0.28439557302E+02  0.00000000000E+00 0. -1.
</event>
<event>
 7    1  0.2693725E-009  0.6068824E+02  0.7561462E-02  0.1394966E+00
         -1   -1    0    0    0  501 -0.00000000000E+00  0.00000000000E+00  0.54210931570E+02  0.54210931570E+02  0.00000000000E+00 0.  1.
          1   -1    0    0  501    0  0.00000000000E+00 -0.00000000000E+00 -0.30970776391E+03  0.30970776391E+03  0.00000000000E+00 0. -1.
         25    2    1    2    0    0  0.80680904120E+01  0.39632963365E+02 -0.59174062331E+02  0.14417540618E+03  0.12509641172E+03 0.  0.
          5    1    3    3  502    0  0.59303512965E+01  0.35085731331E+02  0.34816201059E+02  0.49958161152E+02  0.41800000000E+01 0. -1.
         -5    1    3    3    0  502  0.21377391155E+01  0.45472320335E+01 -0.93990263390E+02  0.94217245023E+02  0.41800000000E+01 0. -1.
        -11    1    1    2    0    0  0.21418140143E+02  0.81065280873E+01 -0.13375073878E+03  0.13569713574E+03  0.00000000000E+00 0. -1.
         11    1    1    2    0    0 -0.29486230555E+02 -0.47739491452E+02 -0.62572031235E+02  0.84046153566E+02  0.00000000000E+00 0.  1.
</event>
<event>
 7    1  0.2693725E-009  0.1377821E+03  0.7561462E-02  0.1216345E+00
         -2   -1    0    0    0  501 -0.00000000000E+00  0.00000000000E+00  0.11989018097E+03  0.11989018097E+03  0.00000000000E+00 0.  1.
          2   -1    0    0  501    0  0.00000000000E+00 -0.00000000000E+00 -0.25850745162E+03  0.25850745162E+03  0.00000000000E+00 0. -1.
         25    2    1    2    0    0 -0.97727246462E+02  0.52225055021E+02  0.17048242720E+02  0.16797755631E+03  0.12509095000E+03 0.  0.
          5    1    3    3  502    0 -0.87147732187E+02 -0.21175088600E+02  0.25212829983E+02  0.93253797768E+02  0.41800000000E+01 0.  1.
         -5    1    3    3    0  502 -0.10579514275E+02  0.73400143621E+02 -0.81645872632E+01  0.74723758545E+02  0.41800000000E+01 0.  1.
        -11    1    1    2    0    0  0.82926616681E+02 -0.49125823099E+02 -0.16610537409E+03  0.19204469676E+03  0.00000000000E+00 0. -1.
         11    1    1    2    0    0  0.14800629781E+02 -0.30992319217E+01  0.10439860724E+02  0.18375379516E+02  0.00000000000E+00 0.  1.
</event>
<event>
 7    1  0.2693725E-009  0.1269757E+03  0.7561462E-02  0.1232014E+00
         -1   -1    0    0    0  501 -0.00000000000E+00  0.00000000000E+00  0.99897599484E+02  0.99897599484E+02  0.00000000000E+00 0.  1.
          1   -1    0    0  501    0  0.00000000000E+00 -0.00000000000E+00 -0.25955480956E+03  0.25955480956E+03  0.00000000000E+00 0. -1.
         25    2    1    2    0    0  0.92194368003E+02 -0.75518707338E+02 -0.92174871434E+02  0.19582474958E+03  0.12509296133E+03 0.  0.
          5    1    3    3  502    0  0.17776631285E+02 -0.21549018678E+02  0.31085895444E+02  0.42002072823E+02  0.41800000000E+01 0.  1.
         -5    1    3    3    0  502  0.74417736718E+02 -0.53969688660E+02 -0.12326076688E+03  0.15382267675E+03  0.41800000000E+01 0.  1.
        -11    1    1    2    0    0 -0.95434155571E+02  0.49584628372E+02 -0.19946702389E+02  0.10938091404E+03  0.00000000000E+00 0.  1.
         11    1    1    2    0    0  0.32397875677E+01  0.25934078966E+02 -0.47535636257E+02  0.54246745429E+02  0.00000000000E+00 0. -1.
</event>
<event>
 7    1  0.2693725E-009  0.1231618E+03  0.7561462E-02  0.1237970E+00
          1   -1    0    0  501    0  0.00000000000E+00  0.00000000000E+00  0.46713668005E+02  0.46713668005E+02  0.00000000000E+00 0. -1.
         -1   -1    0    0    0  501 -0.00000000000E+00 -0.00000000000E+00 -0.46639827776E+03  0.46639827776E+03  0.00000000000E+00 0.  1.
         25    2    1    2    0    0 -0.65702836645E+01  0.92572970350E+02 -0.30012686276E+03  0.33813706735E+03  0.12509044368E+03 0.  0.
          5    1    3    3  502    0  0.13955510996E+02 -0.16655519042E+02 -0.49112854734E+01  0.22666180241E+02  0.41800000000E+01 0.  1.
         -5    1    3    3    0  502 -0.20525794661E+02  0.10922848939E+03 -0.29521557729E+03  0.31547088711E+03  0.41800000000E+01 0.  1.
        -11    1    1    2    0    0  0.21677563530E+02 -0.95205425401E+02 -0.12507737613E+03  0.15867684080E+03  0.00000000000E+00 0.  1.
         11    1    1    2    0    0 -0.15107279866E+02  0.26324550509E+01  0.55196291296E+01  0.16298037620E+02  0.00000000000E+00 0. -1.
</event>
<event>
 7    1  0.2693725E-009  0.1976938E+03  0.7561462E-02  0.1151699E+00
         -2   -1    0    0    0  501 -0.00000000000E+00  0.00000000000E+00  0.15272518715E+03  0.15272518715E+03  0.00000000000E+00 0.  1.
          2   -1    0    0  501    0  0.00000000000E+00 -0.00000000000E+00 -0.37417701367E+03  0.37417701367E+03  0.00000000000E+00 0. -1.
         25    2    1    2    0    0  0.25530221557E+02 -0.18451475240E+03 -0.36217520666E+02  0.22727969090E+03  0.12508742153E+03 0.  0.
          5    1    3    3  502    0  0.43123300391E+02 -0.17870579042E+03 -0.63062020516E+02  0.19439565169E+03  0.41800000000E+01 0. -1.
         -5    1    3    3    0  502 -0.17593078833E+02 -0.58089619840E+01  0.26844499851E+02  0.32884039205E+02  0.41800000000E+01 0. -1.
        -11    1    1    2    0    0 -0.39708722608E+02  0.15072847821E+03 -0.56532261409E+02  0.16580637315E+03  0.00000000000E+00 0.  1.
         11    1    1    2    0    0  0.14178501051E+02  0.33786274187E+02 -0.12870204445E+03  0.13381613678E+03  0.00000000000E+00 0. -1.
</event>
<event>
 7    1  0.2693725E-009  0.1006942E+03  0.7561462E-02  0.1278843E+00
         -2   -1    0    0    0  501 -0.00000000000E+00  0.00000000000E+00  0.12586626061E+04  0.12586626061E+04  0.00000000000E+00 0.  1.
          2   -1    0    0  501    0  0.00000000000E+00 -0.00000000000E+00 -0.50192194098E+02  0.50192194098E+02  0.00000000000E+00 0. -1.
         25    2    1    2    0    0 -0.59243648908E+02  0.71659253876E+01  0.11862974796E+04  0.11943661328E+04  0.12509032212E+03 0.  0.
          5    1    3    3  502    0 -0.75846938878E+02 -0.23608405512E+02  0.43300860095E+03  0.44025451257E+03  0.41800000000E+01 0. -1.
         -5    1    3    3    0  502  0.16603289970E+02  0.30774330900E+02  0.75328887863E+03  0.75411162022E+03  0.41800000000E+01 0. -1.
        -11    1    1    2    0    0  0.13524729927E+02 -0.31897440129E+02 -0.26235498453E+02  0.43458789508E+02  0.00000000000E+00 0. -1.
         11    1    1    2    0    0  0.45718918981E+02  0.24731514741E+02  0.48408430879E+02  0.71029877899E+02  0.00000000000E+00 0.  1.
</event>
<event>
 7    1  0.2693725E-009  0.1025642E+03  0.7561462E-02  0.1274994E+00
          1   -1    0    0  501    0  0.00000000000E+00  0.00000000000E+00  0.23652320683E+03  0.23652320683E+03  0.00000000000E+00 0. -1.
         -1   -1    0    0    0  501 -0.00000000000E+00 -0.00000000000E+00 -0.57246182838E+02  0.57246182838E+02  0.00000000000E+00 0.  1.
         25    2    1    2    0    0 -0.25602976941E+02 -0.17625634507E+01  0.14462399462E+03  0.19292698058E+03  0.12508437535E+03 0.  0.
          5    1    3    3  502    0 -0.67835755921E+02 -0.33367960929E+01  0.37507267870E+02  0.77698722851E+02  0.41800000000E+01 0.  1.
         -5    1    3    3    0  502  0.42232778981E+02  0.15742326422E+01  0.10711672675E+03  0.11522825773E+03  0.41800000000E+01 0.  1.
        -11    1    1    2    0    0 -0.22976539350E+02 -0.29086733868E+02  0.15699114168E+02  0.40254461036E+02  0.00000000000E+00 0.  1.
         11    1    1    2    0    0  0.48579516291E+02  0.30849297319E+02  0.18953915203E+02  0.60587948056E+02  0.00000000000E+00 0. -1.
</event>
<event>
 7    1  0.2693725E-009  0.1347098E+03  0.7561462E-02  0.1220630E+00
         -1   -1    0    0    0  501 -0.00000000000E+00  0.00000000000E+00  0.12736657940E+03  0.12736657940E+03  0.00000000000E+00 0.  1.
          1   -1    0    0  501    0  0.00000000000E+00 -0.00000000000E+00 -0.22566754715E+03  0.22566754715E+03  0.00000000000E+00 0. -1.
         25    2    1    2    0    0 -0.12037465379E+03 -0.52685031678E+02 -0.11259200328E+03  0.21351891353E+03  0.12509035692E+03 0.  0.
          5    1    3    3  502    0 -0.34196811734E+02 -0.15460397612E+02 -0.11342791576E+03  0.11954835967E+03  0.41800000000E+01 0. -1.
         -5    1    3    3    0  502 -0.86177842056E+02 -0.37224634066E+02  0.83591248055E+00  0.93970553859E+02  0.41800000000E+01 0. -1.
        -11    1    1    2    0    0  0.40960040460E+02  0.40034463868E+02 -0.26398535846E+01  0.57336306462E+02  0.00000000000E+00 0. -1.
         11    1    1    2    0    0  0.79414613330E+02  0.12650567810E+02  0.16930889106E+02  0.82178906553E+02  0.00000000000E+00 0.  1.
</event>
<event>
 7    1  0.2693725E-009  0.1064624E+03  0.7561462E-02  0.1267265E+00
          2   -1    0    0  501    0  0.00000000000E+00  0.00000000000E+00  0.95278515630E+02  0.95278515630E+02  0.00000000000E+00 0. -1.
         -2   -1    0    0    0  501 -0.00000000000E+00 -0.00000000000E+00 -0.15713315597E+03  0.15713315597E+03  0.00000000000E+00 0.  1.
         25    2    1    2    0    0  0.72333218403E+01 -0.64014572063E+02 -0.27337253503E+02  0.14333813123E+03  0.12509319748E+03 0.  0.
          5    1    3    3  502    0  0.14537267511E+02  0.21645702327E+02 -0.48032030600E+02  0.54812561876E+02  0.41800000000E+01 0. -1.
         -5    1    3    3    0  502 -0.73039456708E+01 -0.85660274389E+02  0.20694777097E+02  0.88525569356E+02  0.41800000000E+01 0. -1.
        -11    1    1    2    0    0  0.84673202316E+01  0.78576205765E+02 -0.37458183046E+02  0.87458739422E+02  0.00000000000E+00 0.  1.
         11    1    1    2    0    0 -0.15700642072E+02 -0.14561633702E+02  0.29407962094E+01  0.21614800945E+02  0.00000000000E+00 0. -1.
</event>
<event>
 7    1  0.2693725E-009  0.1001137E+03  0.7561462E-02  0.1280057E+00
          2   -1    0    0  501    0  0.00000000000E+00  0.00000000000E+00  0.18830009501E+03  0.18830009501E+03  0.00000000000E+00 0. -1.
         -2   -1    0    0    0  501 -0.00000000000E+00 -0.00000000000E+00 -0.10968758027E+03  0.10968758027E+03  0.00000000000E+00 0.  1.
         25    2    1    2    0    0 -0.44739280629E+02 -0.33816641185E+02  0.12148597504E+03  0.18317433735E+03  0.12509527282E+03 0.  0.
          5    1    3    3  502    0 -0.25753353011E+02  0.44859026137E+02  0.26354278556E+02  0.58202988029E+02  0.41800000000E+01 0. -1.
         -5    1    3    3    0  502 -0.18985927617E+02 -0.78675667322E+02  0.95131696481E+02  0.12497134932E+03  0.41800000000E+01 0. -1.
        -11    1    1    2    0    0  0.12642628928E+02 -0.77085113203E+01 -0.58266783827E+02  0.60118843224E+02  0.00000000000E+00 0.  1.
         11    1    1    2    0    0  0.32096651700E+02  0.41525152505E+02  0.15393323533E+02  0.54694494699E+02  0.00000000000E+00 0. -1.
</event>
<event>
 7    1  0.2693725E-009  0.1541440E+03  0.7561462E-02  0.1195471E+00
         -1   -1    0    0    0  501 -0.00000000000E+00  0.00000000000E+00  0.26034994361E+03  0.26034994361E+03  0.00000000000E+00 0.  1.
          1   -1    0    0  501    0  0.00000000000E+00 -0.00000000000E+00 -0.11341036672E+03  0.11341036672E+03  0.00000000000E+00 0. -1.
         25    2    1    2    0    0  0.20279475063E+02 -0.13068374995E+03  0.71572118666E+02  0.19559834033E+03  0.12508654187E+03 0.  0.
          5    1    3    3  502    0 -0.79684205496E+01 -0.11509471369E+03  0.99740669663E+02  0.15256461723E+03  0.41800000000E+01 0. -1.
         -5    1    3    3    0  502  0.28247895613E+02 -0.15589036261E+02 -0.28168550998E+02  0.43033723095E+02  0.41800000000E+01 0. -1.
        -11    1    1    2    0    0  0.33063504317E+02  0.23435465570E+02  0.28466835822E+02  0.49525519744E+02  0.00000000000E+00 0. -1.
         11    1    1    2    0    0 -0.53342979381E+02  0.10724828438E+03  0.46900622400E+02  0.12863645025E+03  0.00000000000E+00 0.  1.
</event>
<event>
 7    1  0.2693725E-009  0.1109461E+03  0.7561462E-02  0.1258828E+00
         -1   -1    0    0    0  501 -0.00000000000E+00  0.00000000000E+00  0.44197735329E+02  0.44197735329E+02  0.00000000000E+00 0.  1.
          1   -1    0    0  501    0  0.00000000000E+00 -0.00000000000E+00 -0.41037508784E+03  0.41037508784E+03  0.00000000000E+00 0. -1.
         25    2    1    2    0    0  0.79914058724E+02 -0.49513413431E+01 -0.20993384811E+03  0.25715996541E+03  0.12509298409E+03 0.  0.
          5    1    3    3  502    0 -0.32748701751E+00 -0.35202023163E+02 -0.60859512534E+01  0.35969443771E+02  0.41800000000E+01 0.  1.
         -5    1    3    3    0  502  0.80241545742E+02  0.30250681820E+02 -0.20384789685E+03  0.22119052164E+03  0.41800000000E+01 0.  1.
        -11    1    1    2    0    0 -0.31209777233E+02 -0.27879446882E+02 -0.15021310966E+02  0.44462945657E+02  0.00000000000E+00 0.  1.
         11    1    1    2    0    0 -0.48704281492E+02  0.32830788225E+02 -0.14122219344E+03  0.15294991210E+03  0.00000000000E+00 0. -1.
</event>
<event>
 7    1  0.2693725E-009  0.1052248E+03  0.7561462E-02  0.1269677E+00
         -2   -1    0    0    0  501 -0.00000000000E+00  0.00000000000E+00  0.26216610708E+03  0.26216610708E+03  0.00000000000E+00 0. -1.
          2   -1    0    0  501    0  0.00000000000E+00 -0.00000000000E+00 -0.65737487506E+02  0.65737487506E+02  0.00000000000E+00 0.  1.
         25    2    1    2    0    0 -0.97328382281E+01 -0.22041345480E+02  0.19576037806E+03  0.23356095986E+03  0.12509215523E+03 0.  0.
          5    1    3    3  502    0  0.54245256068E+02 -0.26899097236E+02  0.72606238719E+02  0.94632169683E+02  0.41800000000E+01 0.  1.
         -5    1    3    3    0  502 -0.63978094296E+02  0.48577517562E+01  0.12315413934E+03  0.13892879017E+03  0.41800000000E+01 0.  1.
        -11    1    1    2    0    0  0.45639924725E+02  0.56532535980E+01 -0.19578188175E+02  0.49982671571E+02  0.00000000000E+00 0.  1.
         11    1    1    2    0    0 -0.35907086497E+02  0.16388091882E+02  0.20246429687E+02  0.44359963157E+02  0.00000000000E+00 0. -1.
</event>
<event>
 7    1  0.2693725E-009  0.9012115E+02  0.7561462E-02  0.1302559E+00
          1   -1    0    0  501    0  0.00000000000E+00  0.00000000000E+00  0.46725652347E+03  0.46725652347E+03  0.00000000000E+00 0. -1.
         -1   -1    0    0    0  501 -0.00000000000E+00 -0.00000000000E+00 -0.40547497845E+02  0.40547497845E+02  0.00000000000E+00 0.  1.
         25    2    1    2    0    0 -0.24826303411E+02  0.68499648762E+02  0.15401788854E+03  0.21137037447E+03  0.12508947994E+03 0.  0.
          5    1    3    3  502    0 -0.21974847987E+02  0.68902267139E+02  0.17197216309E+02  0.74455577426E+02  0.41800000000E+01 0.  1.
         -5    1    3    3    0  502 -0.28514554239E+01 -0.40261837746E+00  0.13682067223E+03  0.13691479704E+03  0.41800000000E+01 0.  1.
        -11    1    1    2    0    0 -0.11549016246E+02 -0.65182556306E+02  0.23417609747E+03  0.24335280982E+03  0.00000000000E+00 0.  1.
         11    1    1    2    0    0  0.36375319658E+02 -0.33170924559E+01  0.38515039619E+02  0.53080837026E+02  0.00000000000E+00 0. -1.
</event>
<event>
 7    1  0.2693725E-009  0.1130234E+03  0.7561462E-02  0.1255071E+00
         -1   -1    0    0    0  501 -0.00000000000E+00  0.00000000000E+00  0.27398690114E+03  0.27398690114E+03  0.00000000000E+00 0.  1.
          1   -1    0    0  501    0  0.00000000000E+00 -0.00000000000E+00 -0.68796578514E+02  0.68796578514E+02  0.00000000000E+00 0. -1.
         25    2    1    2    0    0  0.21411582049E+02 -0.81698225416E+02  0.13299895991E+03  0.20117030827E+03  0.12509082185E+03 0.  0.
          5    1    3    3  502    0  0.18705269236E+02 -0.10811417552E+03  0.13523433279E+03  0.17419632375E+03  0.41800000000E+01 0.  1.
         -5    1    3    3    0  502  0.27063128131E+01  0.26415950101E+02 -0.22353728779E+01  0.26973984516E+02  0.41800000000E+01 0.  1.
        -11    1    1    2    0    0  0.12452628108E+01  0.51983980630E+02  0.87052013328E+02  0.10139989125E+03  0.00000000000E+00 0.  1.
         11    1    1    2    0    0 -0.22656844860E+02  0.29714244786E+02 -0.14860650613E+02  0.40213280130E+02  0.00000000000E+00 0. -1.
</event>
<event>
 7    1  0.2693725E-009  0.1170345E+03  0.7561462E-02  0.1248071E+00
          1   -1    0    0  501    0  0.00000000000E+00  0.00000000000E+00  0.72053834222E+02  0.72053834222E+02  0.00000000000E+00 0. -1.
         -1   -1    0    0    0  501 -0.00000000000E+00 -0.00000000000E+00 -0.23718993060E+03  0.23718993060E+03  0.00000000000E+00 0.  1.
         25    2    1    2    0    0 -0.37853582617E+01 -0.69866091476E+02 -0.11380618438E+03  0.18301661811E+03  0.12509050814E+03 0.  0.
          5    1    3    3  502    0  0.47810453060E+02 -0.24349108841E+02 -0.98748261926E+02  0.11246070494E+03  0.41800000000E+01 0. -1.
         -5    1    3    3    0  502 -0.51595811321E+02 -0.45516982635E+02 -0.15057922455E+02  0.70555913167E+02  0.41800000000E+01 0. -1.
        -11    1    1    2    0    0 -0.35034164926E+02  0.45326595648E+01 -0.15133822352E+01  0.35358563893E+02  0.00000000000E+00 0. -1.
         11    1    1    2    0    0  0.38819523187E+02  0.65333431911E+02 -0.49816529759E+02  0.90868582816E+02  0.00000000000E+00 0.  1.
</event>
<event>
 7    1  0.2693725E-009  0.1543590E+03  0.7561462E-02  0.1195217E+00
          3   -1    0    0  501    0  0.00000000000E+00  0.00000000000E+00  0.57202314821E+03  0.57202314821E+03  0.00000000000E+00 0. -1.
         -3   -1    0    0    0  501 -0.00000000000E+00 -0.00000000000E+00 -0.48006003768E+02  0.48006003768E+02  0.00000000000E+00 0.  1.
         25    2    1    2    0    0 -0.37221621180E+02  0.11338353974E+03  0.20832984328E+03  0.27072392748E+03  0.12509534421E+03 0.  0.
          5    1    3    3  502    0  0.26448615186E+02  0.90927339976E+02  0.73745395790E+02  0.12009648705E+03  0.41800000000E+01 0.  1.
         -5    1    3    3    0  502 -0.63670236366E+02  0.22456199764E+02  0.13458444749E+03  0.15062744044E+03  0.41800000000E+01 0.  1.
        -11    1    1    2    0    0  0.55374020114E+02 -0.34278473263E+02  0.10537257207E+03  0.12387362422E+03  0.00000000000E+00 0.  1.
         11    1    1    2    0    0 -0.18152398933E+02 -0.79105066477E+02  0.21031472909E+03  0.22543160027E+03  0.00000000000E+00 0. -1.
</event>
<event>
 7    1  0.2693725E-009  0.9822512E+02  0.7561462E-02  0.1284073E+00
         -2   -1    0    0    0  501 -0.00000000000E+00  0.00000000000E+00  0.20486303683E+02  0.20486303683E+02  0.00000000000E+00 0.  1.
          2   -1    0    0  501    0  0.00000000000E+00 -0.00000000000E+00 -0.93287713651E+03  0.93287713651E+03  0.00000000000E+00 0. -1.
         25    2    1    2    0    0  0.48166574048E+02  0.10229457629E+02 -0.75155172663E+03  0.76348125892E+03  0.12509586027E+03 0.  0.
          5    1    3    3  502    0  0.21954206868E+02 -0.52339383047E+02 -0.48797987319E+03  0.49128731640E+03  0.41800000000E+01 0. -1.
         -5    1    3    3    0  502  0.26212367180E+02  0.62568840676E+02 -0.26357185345E+03  0.27219394252E+03  0.41800000000E+01 0. -1.
        -11    1    1    2    0    0 -0.56672730290E+02  0.19626539267E+01 -0.16497713127E+03  0.17445086475E+03  0.00000000000E+00 0. -1.
         11    1    1    2    0    0  0.85061562420E+01 -0.12192111555E+02  0.41380250762E+01  0.15431316526E+02  0.00000000000E+00 0.  1.
</event>
<event>
 7    1  0.2693725E-009  0.1836705E+03  0.7561462E-02  0.1164297E+00
         -2   -1    0    0    0  501 -0.00000000000E+00  0.00000000000E+00  0.67201761456E+03  0.67201761456E+03  0.00000000000E+00 0.  1.
          2   -1    0    0  501    0  0.00000000000E+00 -0.00000000000E+00 -0.77351029441E+02  0.77351029441E+02  0.00000000000E+00 0. -1.
         25    2    1    2    0    0  0.15382165646E+03  0.49001972239E+02  0.12793131128E+03  0.24099049209E+03  0.12509077341E+03 0.  0.
          5    1    3    3  502    0  0.16315808566E+03  0.10099272965E+02  0.10908330533E+03  0.19656855326E+03  0.41800000000E+01 0.  1.
         -5    1    3    3    0  502 -0.93364291976E+01  0.38902699274E+02  0.18848005956E+02  0.44421938831E+02  0.41800000000E+01 0.  1.
        -11    1    1    2    0    0 -0.62687712109E+02 -0.64662561799E+01  0.34388292391E+03  0.34960982119E+03  0.00000000000E+00 0. -1.
         11    1    1    2    0    0 -0.91133944356E+02 -0.42535716059E+02  0.12285234993E+03  0.15876833071E+03  0.00000000000E+00 0.  1.
</event>
<event>
 7    1  0.2693725E-009  0.1033614E+03  0.7561462E-02  0.1273382E+00
          1   -1    0    0  501    0  0.00000000000E+00  0.00000000000E+00  0.48124629764E+02  0.48124629764E+02  0.00000000000E+00 0. -1.
         -1   -1    0    0    0  501 -0.00000000000E+00 -0.00000000000E+00 -0.28444912489E+03  0.28444912489E+03  0.00000000000E+00 0.  1.
         25    2    1    2    0    0 -0.36851904718E+02  0.26654827613E+02 -0.13390249473E+03  0.18879413495E+03  0.12507919323E+03 0.  0.
          5    1    3    3  502    0 -0.15748011688E+00  0.57566194386E+02 -0.12782430756E+03  0.14025126573E+03  0.41800000000E+01 0. -1.
         -5    1    3    3    0  502 -0.36694424601E+02 -0.30911366773E+02 -0.60781871758E+01  0.48542869218E+02  0.41800000000E+01 0. -1.
        -11    1    1    2    0    0 -0.74694993174E+01 -0.50134205536E+02 -0.48932055013E+02  0.70452664907E+02  0.00000000000E+00 0. -1.
         11    1    1    2    0    0  0.44321404035E+02  0.23479377924E+02 -0.53489945379E+02  0.73326954798E+02  0.00000000000E+00 0.  1.
</event>
<event>
 7    1  0.2693725E-009  0.1632173E+03  0.7561462E-02  0.1185112E+00
          1   -1    0    0  501    0  0.00000000000E+00  0.00000000000E+00  0.82513306072E+02  0.82513306072E+02  0.00000000000E+00 0. -1.
         -1   -1    0    0    0  501 -0.00000000000E+00 -0.00000000000E+00 -0.39887840984E+03  0.39887840984E+03  0.00000000000E+00 0.  1.
         25    2    1    2    0    0  0.12485749361E+03  0.25759880418E+02 -0.74759958227E+02  0.19362185205E+03  0.12508958824E+03 0.  0.
          5    1    3    3  502    0  0.12350544084E+03 -0.21688972154E+02 -0.74603641821E+02  0.14596979551E+03  0.41800000000E+01 0. -1.
         -5    1    3    3    0  502  0.13520527740E+01  0.47448852572E+02 -0.15631640615E+00  0.47652056534E+02  0.41800000000E+01 0. -1.
        -11    1    1    2    0    0 -0.61932577598E+02  0.30386368302E+02 -0.13713653811E+03  0.15351027859E+03  0.00000000000E+00 0.  1.
         11    1    1    2    0    0 -0.62924916014E+02 -0.56146248721E+02 -0.10446860742E+03  0.13425958527E+03  0.00000000000E+00 0. -1.
</event>
<event>
 7    1  0.2693725E-009  0.1116889E+03  0.7561462E-02  0.1257474E+00
          1   -1    0    0  501    0  0.00000000000E+00  0.00000000000E+00  0.23465273105E+03  0.23465273105E+03  0.00000000000E+00 0. -1.
         -1   -1    0    0    0  501 -0.00000000000E+00 -0.00000000000E+00 -0.76265698903E+02  0.76265698903E+02  0.00000000000E+00 0.  1.
         25    2    1    2    0    0 -0.23214074555E+01  0.40384589437E+02  0.16015884048E+03  0.20720630920E+03  0.12508915377E+03 0.  0.
          5    1    3    3  502    0  0.24562942144E+02 -0.34259637352E+02  0.21757543843E+02  0.47622725587E+02  0.41800000000E+01 0. -1.
         -5    1    3    3    0  502 -0.26884349600E+02  0.74644226789E+02  0.13840129664E+03  0.15958358361E+03  0.41800000000E+01 0. -1.
        -11    1    1    2    0    0 -0.23643647816E+02  0.23052964553E+02  0.92331536923E+01  0.34288662614E+02  0.00000000000E+00 0.  1.
         11    1    1    2    0    0  0.25965055272E+02 -0.63437553990E+02 -0.11004962026E+02  0.69423458144E+02  0.00000000000E+00 0. -1.
</event>
<event>
 7    1  0.2693725E-009  0.1829015E+03  0.7561462E-02  0.1165024E+00
         -2   -1    0    0    0  501 -0.00000000000E+00  0.00000000000E+00  0.21038266307E+03  0.21038266307E+03  0.00000000000E+00 0.  1.
          2   -1    0    0  501    0  0.00000000000E+00 -0.00000000000E+00 -0.26919821739E+03  0.26919821739E+03  0.00000000000E+00 0. -1.
         25    2    1    2    0    0 -0.73465461435E+02  0.14328708785E+03 -0.17009239271E+03  0.26553481331E+03  0.12509576914E+03 0.  0.
          5    1    3    3  502    0 -0.10814714439E+02  0.12837562211E+03 -0.15036338703E+03  0.19805019303E+03  0.41800000000E+01 0.  1.
         -5    1    3    3    0  502 -0.62650746996E+02  0.14911465739E+02 -0.19729005677E+02  0.67484620283E+02  0.41800000000E+01 0.  1.
        -11    1    1    2    0    0  0.72018945783E+02 -0.74689688443E+02  0.10076372371E+03  0.14463265927E+03  0.00000000000E+00 0.  1.
         11    1    1    2    0    0  0.14465156517E+01 -0.68597399403E+02  0.10513114685E+02  0.69413407875E+02  0.00000000000E+00 0. -1.
</event>
<event>
 7    1  0.2693725E-009  0.1529560E+03  0.7561462E-02  0.1196887E+00
          2   -1    0    0  501    0  0.00000000000E+00  0.00000000000E+00  0.15152887001E+04  0.15152887001E+04  0.00000000000E+00 0.  1.
         -2   -1    0    0    0  501 -0.00000000000E+00 -0.00000000000E+00 -0.16318435556E+02  0.16318435556E+02  0.00000000000E+00 0. -1.
         25    2    1    2    0    0 -0.21881768403E+02 -0.11090865744E+03  0.75656199106E+03  0.77512118350E+03  0.12508901115E+03 0.  0.
          5    1    3    3  502    0 -0.64863895134E+02 -0.99638074297E+02  0.45596189253E+03  0.47122583819E+03  0.41800000000E+01 0. -1.
         -5    1    3    3    0  502  0.42982126731E+02 -0.11270583141E+02  0.30060009853E+03  0.30389534530E+03  0.41800000000E+01 0. -1.
        -11    1    1    2    0    0 -0.32198886965E+02  0.24839144394E+02  0.14974343935E+03  0.15516716484E+03  0.00000000000E+00 0.  1.
         11    1    1    2    0    0  0.54080655367E+02  0.86069513045E+02  0.59266483409E+03  0.60131878727E+03  0.00000000000E+00 0. -1.
</event>
<event>
 7    1  0.2693725E-009  0.1239705E+03  0.7561462E-02  0.1236687E+00
          2   -1    0    0  501    0  0.00000000000E+00  0.00000000000E+00  0.12115338707E+03  0.12115338707E+03  0.00000000000E+00 0. -1.
         -2   -1    0    0    0  501 -0.00000000000E+00 -0.00000000000E+00 -0.17797510348E+03  0.17797510348E+03  0.00000000000E+00 0.  1.
         25    2    1    2    0    0  0.19469738649E+02 -0.82147923754E+02  0.22381694841E+02  0.15256485500E+03  0.12509093739E+03 0.  0.
          5    1    3    3  502    0 -0.36875503246E+02 -0.78905040637E+02  0.36032995023E+02  0.94348594626E+02  0.41800000000E+01 0. -1.
         -5    1    3    3    0  502  0.56345241895E+02 -0.32428831167E+01 -0.13651300182E+02  0.58216260373E+02  0.41800000000E+01 0. -1.
        -11    1    1    2    0    0  0.12146271020E+02 -0.36748780543E+01 -0.48428910442E+02  0.50063919094E+02  0.00000000000E+00 0.  1.
         11    1    1    2    0    0 -0.31616009669E+02  0.85822801808E+02 -0.30774500808E+02  0.96499716464E+02  0.00000000000E+00 0. -1.
</event>
<event>
 7    1  0.2693725E-009  0.1085569E+03  0.7561462E-02  0.1263266E+00
          2   -1    0    0  501    0  0.00000000000E+00  0.00000000000E+00  0.25825278537E+03  0.25825278537E+03  0.00000000000E+00 0. -1.
         -2   -1    0    0    0  501 -0.00000000000E+00 -0.00000000000E+00 -0.47949424945E+02  0.47949424945E+02  0.00000000000E+00 0.  1.
         25    2    1    2    0    0  0.24947304391E+02  0.12625728076E+02  0.93880610493E+02  0.15889419326E+03  0.12510802780E+03 0.  0.
          5    1    3    3  502    0  0.69171162789E+01 -0.56264850031E+02  0.40294038546E+02  0.69675403041E+02  0.41800000000E+01 0.  1.
         -5    1    3    3    0  502  0.18030188112E+02  0.68890578107E+02  0.53586571947E+02  0.89218790220E+02  0.41800000000E+01 0.  1.
        -11    1    1    2    0    0  0.10235575279E+01  0.34827559873E+02  0.58208561484E+02  0.67839835103E+02  0.00000000000E+00 0. -1.
         11    1    1    2    0    0 -0.25970861919E+02 -0.47453287949E+02  0.58214188446E+02  0.79468181949E+02  0.00000000000E+00 0.  1.
</event>
<event>
 7    1  0.2693725E-009  0.1900878E+03  0.7561462E-02  0.1158382E+00
         -2   -1    0    0    0  501 -0.00000000000E+00  0.00000000000E+00  0.34983952811E+03  0.34983952811E+03  0.00000000000E+00 0.  1.
          2   -1    0    0  501    0  0.00000000000E+00 -0.00000000000E+00 -0.11835271245E+03  0.11835271245E+03  0.00000000000E+00 0. -1.
         25    2    1    2    0    0 -0.13917053954E+03  0.10034164083E+03  0.10522821464E+03  0.23697437444E+03  0.12508794116E+03 0.  0.
          5    1    3    3  502    0 -0.61325279217E+02 -0.18965825249E+02  0.88646433134E+01  0.64934942053E+02  0.41800000000E+01 0.  1.
         -5    1    3    3    0  502 -0.77845260326E+02  0.11930746608E+03  0.96363571331E+02  0.17203943239E+03  0.41800000000E+01 0.  1.
        -11    1    1    2    0    0  0.11166326420E+03 -0.91718544452E+02  0.55467746575E+02  0.15478257937E+03  0.00000000000E+00 0. -1.
         11    1    1    2    0    0  0.27507275346E+02 -0.86230963776E+01  0.70790854441E+02  0.76435286750E+02  0.00000000000E+00 0.  1.
</event>
<event>
 7    1  0.2693725E-009  0.8818741E+02  0.7561462E-02  0.1307301E+00
         -2   -1    0    0    0  501 -0.00000000000E+00  0.00000000000E+00  0.84463262932E+02  0.84463262932E+02  0.00000000000E+00 0.  1.
          2   -1    0    0  501    0  0.00000000000E+00 -0.00000000000E+00 -0.18214911313E+03  0.18214911313E+03  0.00000000000E+00 0. -1.
         25    2    1    2    0    0 -0.58739217825E+02 -0.88679203425E+01 -0.39273177808E+02  0.14394253981E+03  0.12509251197E+03 0.  0.
          5    1    3    3  502    0 -0.18045765302E+02  0.30545251253E+02  0.35284333000E+02  0.50210741627E+02  0.41800000000E+01 0.  1.
         -5    1    3    3    0  502 -0.40693452523E+02 -0.39413171596E+02 -0.74557510808E+02  0.93731798187E+02  0.41800000000E+01 0.  1.
        -11    1    1    2    0    0 -0.74339355874E+01 -0.12298519003E+02  0.15563848702E+02  0.21183728530E+02  0.00000000000E+00 0.  1.
         11    1    1    2    0    0  0.66173153412E+02  0.21166439346E+02 -0.73976521093E+02  0.10148610772E+03  0.00000000000E+00 0. -1.
</event>
<event>
 7    1  0.2693725E-009  0.1036720E+03  0.7561462E-02  0.1272758E+00
          2   -1    0    0  501    0  0.00000000000E+00  0.00000000000E+00  0.18096092832E+03  0.18096092832E+03  0.00000000000E+00 0. -1.
         -2   -1    0    0    0  501 -0.00000000000E+00 -0.00000000000E+00 -0.89002166250E+02  0.89002166250E+02  0.00000000000E+00 0.  1.
         25    2    1    2    0    0  0.45072958220E+02  0.37992535067E+02  0.44376870431E+02  0.14523313480E+03  0.12509337525E+03 0.  0.
          5    1    3    3  502    0  0.26306146964E+02  0.81766419103E+02  0.45740573846E+02  0.97403455570E+02  0.41800000000E+01 0. -1.
         -5    1    3    3    0  502  0.18766811256E+02 -0.43773884036E+02 -0.13637034149E+01  0.47829679231E+02  0.41800000000E+01 0. -1.
        -11    1    1    2    0    0 -0.25247007989E+02  0.54116337130E+01  0.68067794198E+02  0.72800561803E+02  0.00000000000E+00 0. -1.
         11    1    1    2    0    0 -0.19825950231E+02 -0.43404168780E+02 -0.20485902555E+02  0.51929397970E+02  0.00000000000E+00 0.  1.
</event>
<event>
 7    1  0.2693725E-009  0.9351518E+02  0.7561462E-02  0.1294556E+00
         -1   -1    0    0    0  501 -0.00000000000E+00  0.00000000000E+00  0.51543431382E+02  0.51543431382E+02  0.00000000000E+00 0.  1.
          1   -1    0    0  501    0  0.00000000000E+00 -0.00000000000E+00 -0.26741225183E+03  0.26741225183E+03  0.00000000000E+00 0. -1.
         25    2    1    2    0    0 -0.58444932509E+01  0.16602109085E+02 -0.18300349364E+03  0.22236977239E+03  0.12509296087E+03 0.  0.
          5    1    3    3  502    0 -0.35009474143E+02  0.44193912568E+02 -0.17123072721E+03  0.18032248759E+03  0.41800000000E+01 0. -1.
         -5    1    3    3    0  502  0.29164980892E+02 -0.27591803483E+02 -0.11772766431E+02  0.42047284803E+02  0.41800000000E+01 0. -1.
        -11    1    1    2    0    0  0.35558995780E+02  0.21696484335E+02 -0.92713715850E+01  0.42674792846E+02  0.00000000000E+00 0.  1.
         11    1    1    2    0    0 -0.29714502529E+02 -0.38298593420E+02 -0.23593955221E+02  0.53911117977E+02  0.00000000000E+00 0. -1.
</event>
<event>
 7    1  0.2693725E-009  0.1092148E+03  0.7561462E-02  0.1262031E+00
         -2   -1    0    0    0  501 -0.00000000000E+00  0.00000000000E+00  0.96270138888E+02  0.96270138888E+02  0.00000000000E+00 0.  1.
          2   -1    0    0  501    0  0.00000000000E+00 -0.00000000000E+00 -0.15527237586E+03  0.15527237586E+03  0.00000000000E+00 0. -1.
         25    2    1    2    0    0  0.24925324198E+02 -0.38363358311E+02 -0.47176197176E+01  0.13327849854E+03  0.12509149927E+03 0.  0.
          5    1    3    3  502    0 -0.32867178785E+01 -0.78075324747E+02 -0.22217534582E+02  0.81348940323E+02  0.41800000000E+01 0.  1.
         -5    1    3    3    0  502  0.28212042076E+02  0.39711966436E+02  0.17499914864E+02  0.51929558217E+02  0.41800000000E+01 0.  1.
        -11    1    1    2    0    0  0.28837452006E+02  0.16652985045E+02  0.68602111017E+01  0.33999750668E+02  0.00000000000E+00 0.  1.
         11    1    1    2    0    0 -0.53762776204E+02  0.21710373266E+02 -0.61144828360E+02  0.84264265544E+02  0.00000000000E+00 0. -1.
</event>
<event>
 7    1  0.2693725E-009  0.2044569E+03  0.7561462E-02  0.1146032E+00
         -2   -1    0    0    0  501 -0.00000000000E+00  0.00000000000E+00  0.63659100257E+02  0.63659100257E+02  0.00000000000E+00 0.  1.
          2   -1    0    0  501    0  0.00000000000E+00 -0.00000000000E+00 -0.98677138016E+03  0.98677138016E+03  0.00000000000E+00 0. -1.
         25    2    1    2    0    0 -0.15999005316E+03  0.89277373760E+02 -0.74961177848E+03  0.78174941434E+03  0.12508821613E+03 0.  0.
          5    1    3    3  502    0 -0.33992882846E+02 -0.27494995857E+02 -0.90334088121E+02  0.10044506338E+03  0.41800000000E+01 0.  1.
         -5    1    3    3    0  502 -0.12599717031E+03  0.11677236962E+03 -0.65927769036E+03  0.68130435096E+03  0.41800000000E+01 0.  1.
        -11    1    1    2    0    0  0.98945963518E+02 -0.20230377452E+02 -0.45042816412E+02  0.11058221909E+03  0.00000000000E+00 0.  1.
         11    1    1    2    0    0  0.61044089642E+02 -0.69046996308E+02 -0.12845768501E+03  0.15809884699E+03  0.00000000000E+00 0. -1.
</event>
<event>
 7    1  0.2693725E-009  0.1207604E+03  0.7561462E-02  0.1241848E+00
          4   -1    0    0  501    0  0.00000000000E+00  0.00000000000E+00  0.46488145555E+02  0.46488145555E+02  0.00000000000E+00 0. -1.
         -4   -1    0    0    0  501 -0.00000000000E+00 -0.00000000000E+00 -0.37170623481E+03  0.37170623481E+03  0.00000000000E+00 0.  1.
         25    2    1    2    0    0 -0.68987354801E+02  0.63630177202E+01 -0.21909688738E+03  0.26163065106E+03  0.12508960147E+03 0.  0.
          5    1    3    3  502    0  0.73266696068E+01 -0.41117372630E+02 -0.12309910250E+03  0.13005837096E+03  0.41800000000E+01 0.  1.
         -5    1    3    3    0  502 -0.76314024408E+02  0.47480390351E+02 -0.95997784882E+02  0.13157228010E+03  0.41800000000E+01 0.  1.
        -11    1    1    2    0    0  0.30029700732E+02  0.39356424276E+02 -0.72317738012E+02  0.87638840071E+02  0.00000000000E+00 0.  1.
         11    1    1    2    0    0  0.38957654069E+02 -0.45719441996E+02 -0.33803463860E+02  0.68924889234E+02  0.00000000000E+00 0. -1.
</event>
<event>
 7    1  0.2693725E-009  0.1035675E+03  0.7561462E-02  0.1272968E+00
         -1   -1    0    0    0  501 -0.00000000000E+00  0.00000000000E+00  0.10403270444E+03  0.10403270444E+03  0.00000000000E+00 0.  1.
          1   -1    0    0  501    0  0.00000000000E+00 -0.00000000000E+00 -0.22148327446E+03  0.22148327446E+03  0.00000000000E+00 0. -1.
         25    2    1    2    0    0  0.56113442094E+02  0.59556300922E+02  0.82267072180E+01  0.14970396072E+03  0.12509166951E+03 0.  0.
          5    1    3    3  502    0  0.15970595091E+02 -0.21484793701E+02  0.44559585908E+02  0.52150602722E+02  0.41800000000E+01 0. -1.
         -5    1    3    3    0  502  0.40142847003E+02  0.81041094624E+02 -0.36332878690E+02  0.97553358001E+02  0.41800000000E+01 0. -1.
        -11    1    1    2    0    0 -0.46098978829E+02 -0.22838569599E+02 -0.79138907163E+01  0.52051376319E+02  0.00000000000E+00 0.  1.
         11    1    1    2    0    0 -0.10014463265E+02 -0.36717731323E+02 -0.11776338652E+03  0.12376064186E+03  0.00000000000E+00 0. -1.
</event>
<event>
 7    1  0.2693725E-009  0.1149545E+03  0.7561462E-02  0.1251660E+00
          1   -1    0    0  501    0  0.00000000000E+00  0.00000000000E+00  0.24829478659E+02  0.24829478659E+02  0.00000000000E+00 0. -1.
         -1   -1    0    0    0  501 -0.00000000000E+00 -0.00000000000E+00 -0.65145211514E+03  0.65145211514E+03  0.00000000000E+00 0.  1.
         25    2    1    2    0    0  0.36790817177E+02  0.44554605134E+02 -0.42974920098E+03  0.45130164707E+03  0.12510045500E+03 0.  0.
          5    1    3    3  502    0  0.81231281382E+02  0.24500645243E+02 -0.32099632514E+03  0.33204655674E+03  0.41800000000E+01 0.  1.
         -5    1    3    3    0  502 -0.44440464206E+02  0.20053959891E+02 -0.10875287584E+03  0.11925509033E+03  0.41800000000E+01 0.  1.
        -11    1    1    2    0    0 -0.54364874941E+02 -0.73241088175E+01 -0.16196537556E+03  0.17100282184E+03  0.00000000000E+00 0.  1.
         11    1    1    2    0    0  0.17574057764E+02 -0.37230496316E+02 -0.34908059951E+02  0.53977124893E+02  0.00000000000E+00 0. -1.
</event>
<event>
 7    1  0.2693725E-009  0.1237560E+03  0.7561462E-02  0.1237026E+00
          3   -1    0    0  501    0  0.00000000000E+00  0.00000000000E+00  0.83363987206E+02  0.83363987206E+02  0.00000000000E+00 0. -1.
         -3   -1    0    0    0  501 -0.00000000000E+00 -0.00000000000E+00 -0.23577652588E+03  0.23577652588E+03  0.00000000000E+00 0.  1.
         25    2    1    2    0    0  0.27260442111E+02  0.69630069504E+02 -0.13911669404E+03  0.20147430212E+03  0.12508781544E+03 0.  0.
          5    1    3    3  502    0 -0.28878548791E+02 -0.23118139351E+02 -0.34464964862E+02  0.50731894802E+02  0.41800000000E+01 0.  1.
         -5    1    3    3    0  502  0.56138990902E+02  0.92748208855E+02 -0.10465172918E+03  0.15074240732E+03  0.41800000000E+01 0.  1.
        -11    1    1    2    0    0 -0.28184381312E+02  0.37236544493E+01 -0.31142239384E+02  0.42167096489E+02  0.00000000000E+00 0.  1.
         11    1    1    2    0    0  0.92393920098E+00 -0.73353723954E+02  0.17846394745E+02  0.75499114478E+02  0.00000000000E+00 0. -1.
</event>
<event>
 7    1  0.2693725E-009  0.3077811E+03  0.7561462E-02  0.1081414E+00
         -1   -1    0    0    0  501 -0.00000000000E+00  0.00000000000E+00  0.15700669867E+03  0.15700669867E+03  0.00000000000E+00 0.  1.
          1   -1    0    0  501    0  0.00000000000E+00 -0.00000000000E+00 -0.64600650905E+03  0.64600650905E+03  0.00000000000E+00 0. -1.
         25    2    1    2    0    0  0.27031368162E+03 -0.12582986646E+03 -0.27862775943E+03  0.42682792447E+03  0.12508399987E+03 0.  0.
          5    1    3    3  502    0  0.25181116770E+03 -0.76359489030E+02 -0.19385083868E+03  0.32685662882E+03  0.41800000000E+01 0.  1.
         -5    1    3    3    0  502  0.18502513919E+02 -0.49470377431E+02 -0.84776920742E+02  0.99971295655E+02  0.41800000000E+01 0.  1.
        -11    1    1    2    0    0 -0.10416866424E+03  0.63280091852E+02 -0.35393307267E+02  0.12691795316E+03  0.00000000000E+00 0.  1.
         11    1    1    2    0    0 -0.16614501738E+03  0.62549774609E+02 -0.17497874369E+03  0.24926733008E+03  0.00000000000E+00 0. -1.
</event>
<event>
 7    1  0.2693725E-009  0.9547296E+02  0.7561462E-02  0.1290114E+00
         -2   -1    0    0    0  501 -0.00000000000E+00  0.00000000000E+00  0.66882328544E+02  0.66882328544E+02  0.00000000000E+00 0.  1.
          2   -1    0    0  501    0  0.00000000000E+00 -0.00000000000E+00 -0.26030880787E+03  0.26030880787E+03  0.00000000000E+00 0. -1.
         25    2    1    2    0    0 -0.23845092733E+02  0.72496660253E+02 -0.10466291899E+03  0.18007287535E+03  0.12509020597E+03 0.  0.
          5    1    3    3  502    0 -0.14655310427E+02  0.42387957967E+02 -0.13118192190E+03  0.13869998607E+03  0.41800000000E+01 0.  1.
         -5    1    3    3    0  502 -0.91897823064E+01  0.30108702287E+02  0.26519002903E+02  0.41372889278E+02  0.41800000000E+01 0.  1.
        -11    1    1    2    0    0 -0.31234415951E+02 -0.37856527822E+02 -0.21650791611E+02  0.53641981842E+02  0.00000000000E+00 0. -1.
         11    1    1    2    0    0  0.55079508684E+02 -0.34640132432E+02 -0.67112768721E+02  0.93476279222E+02  0.00000000000E+00 0.  1.
</event>
<event>
 7    1  0.2693725E-009  0.9173777E+02  0.7561462E-02  0.1298697E+00
          1   -1    0    0  501    0  0.00000000000E+00  0.00000000000E+00  0.79166000345E+02  0.79166000345E+02  0.00000000000E+00 0. -1.
         -1   -1    0    0    0  501 -0.00000000000E+00 -0.00000000000E+00 -0.16623277630E+03  0.16623277630E+03  0.00000000000E+00 0.  1.
         25    2    1    2    0    0 -0.33879482811E+02  0.47254696639E+01 -0.27203768235E+02  0.13250537901E+03  0.12508989184E+03 0.  0.
          5    1    3    3  502    0  0.31673522254E+02 -0.20954290049E+01 -0.52742681362E+02  0.61699802851E+02  0.41800000000E+01 0. -1.
         -5    1    3    3    0  502 -0.65553005065E+02  0.68208986688E+01  0.25538913127E+02  0.70805576160E+02  0.41800000000E+01 0. -1.
        -11    1    1    2    0    0  0.48718523190E+01  0.35496118507E+02 -0.88824283374E+00  0.35839898848E+02  0.00000000000E+00 0. -1.
         11    1    1    2    0    0  0.29007630492E+02 -0.40221588171E+02 -0.58974764889E+02  0.77053498788E+02  0.00000000000E+00 0.  1.
</event>
<event>
 7    1  0.2693725E-009  0.1232919E+03  0.7561462E-02  0.1237763E+00
          2   -1    0    0  501    0  0.00000000000E+00  0.00000000000E+00  0.11083089809E+04  0.11083089809E+04  0.00000000000E+00 0. -1.
         -2   -1    0    0    0  501 -0.00000000000E+00 -0.00000000000E+00 -0.13768616074E+02  0.13768616074E+02  0.00000000000E+00 0.  1.
         25    2    1    2    0    0  0.56147024722E+02 -0.79266394170E+01  0.57913345765E+03  0.59519679227E+03  0.12509332421E+03 0.  0.
          5    1    3    3  502    0  0.25440807198E+02 -0.66335455775E+02  0.29179752378E+03  0.30035128541E+03  0.41800000000E+01 0.  1.
         -5    1    3    3    0  502  0.30706217525E+02  0.58408816358E+02  0.28733593388E+03  0.29484550687E+03  0.41800000000E+01 0.  1.
        -11    1    1    2    0    0  0.26026469339E+02  0.76220182059E+01  0.12025439866E+03  0.12327446071E+03  0.00000000000E+00 0. -1.
         11    1    1    2    0    0 -0.82173494061E+02  0.30462121109E+00  0.39515250852E+03  0.40360634399E+03  0.00000000000E+00 0.  1.
</event>
<event>
 7    1  0.2693725E-009  0.1622316E+03  0.7561462E-02  0.1186200E+00
         -1   -1    0    0    0  501 -0.00000000000E+00  0.00000000000E+00  0.31384004530E+02  0.31384004530E+02  0.00000000000E+00 0.  1.
          1   -1    0    0  501    0  0.00000000000E+00 -0.00000000000E+00 -0.17375916656E+04  0.17375916656E+04  0.00000000000E+00 0. -1.
         25    2    1    2    0    0  0.11166005572E+03  0.54926970788E+02 -0.15079722417E+04  0.15182596847E+04  0.12508896207E+03 0.  0.
          5    1    3    3  502    0  0.12919956606E+03  0.73399091443E+02 -0.13543881786E+04  0.13625214733E+04  0.41800000000E+01 0.  1.
         -5    1    3    3    0  502 -0.17539510339E+02 -0.18472120655E+02 -0.15358406312E+03  0.15573821146E+03  0.41800000000E+01 0.  1.
        -11    1    1    2    0    0 -0.64300727668E+02 -0.74799260068E+02 -0.15426967863E+03  0.18310829209E+03  0.00000000000E+00 0.  1.
         11    1    1    2    0    0 -0.47359328055E+02  0.19872289279E+02 -0.43965740758E+02  0.67607693315E+02  0.00000000000E+00 0. -1.
</event>
<event>
 7    1  0.2693725E-009  0.3163459E+03  0.7561462E-02  0.1077343E+00
         -3   -1    0    0    0  501 -0.00000000000E+00  0.00000000000E+00  0.76123078789E+02  0.76123078789E+02  0.00000000000E+00 0.  1.
          3   -1    0    0  501    0  0.00000000000E+00 -0.00000000000E+00 -0.14235494341E+04  0.14235494341E+04  0.00000000000E+00 0. -1.
         25    2    1    2    0    0 -0.74939068330E+02 -0.29662785213E+03 -0.80655010400E+03  0.87165069823E+03  0.12509165775E+03 0.  0.
          5    1    3    3  502    0 -0.88633446234E+02 -0.18289578314E+03 -0.62221532627E+03  0.65458088876E+03  0.41800000000E+01 0.  1.
         -5    1    3    3    0  502  0.13694377904E+02 -0.11373206899E+03 -0.18433477774E+03  0.21706980948E+03  0.41800000000E+01 0.  1.
        -11    1    1    2    0    0  0.74202583494E+02  0.14261705368E+03 -0.32793430296E+03  0.36522124042E+03  0.00000000000E+00 0. -1.
         11    1    1    2    0    0  0.73648483600E+00  0.15401079845E+03 -0.21294194831E+03  0.26280057419E+03  0.00000000000E+00 0.  1.
</event>
<event>
 7    1  0.2693725E-009  0.1085345E+03  0.7561462E-02  0.1263308E+00
          1   -1    0    0  501    0  0.00000000000E+00  0.00000000000E+00  0.64845385721E+02  0.64845385721E+02  0.00000000000E+00 0. -1.
         -1   -1    0    0    0  501 -0.00000000000E+00 -0.00000000000E+00 -0.26063757055E+03  0.26063757055E+03  0.00000000000E+00 0.  1.
         25    2    1    2    0    0 -0.52719824280E+02 -0.38682832925E+02 -0.85604686878E+02  0.16508027888E+03  0.12509034585E+03 0.  0.
          5    1    3    3  502    0 -0.14219167702E+02 -0.80412820916E+02 -0.35124901958E+02  0.88992345937E+02  0.41800000000E+01 0. -1.
         -5    1    3    3    0  502 -0.38500656579E+02  0.41729987990E+02 -0.50479784920E+02  0.76087932947E+02  0.41800000000E+01 0. -1.
        -11    1    1    2    0    0  0.50731443265E+02  0.12680308783E+02 -0.12127239381E+03  0.13206613142E+03  0.00000000000E+00 0.  1.
         11    1    1    2    0    0  0.19883810152E+01  0.26002524142E+02  0.11084895866E+02  0.28336545964E+02  0.00000000000E+00 0. -1.
</event>
<event>
 7    1  0.2693725E-009  0.1682843E+03  0.7561462E-02  0.1179649E+00
         -3   -1    0    0    0  501 -0.00000000000E+00  0.00000000000E+00  0.10626933342E+03  0.10626933342E+03  0.00000000000E+00 0.  1.
          3   -1    0    0  501    0  0.00000000000E+00 -0.00000000000E+00 -0.31507134512E+03  0.31507134512E+03  0.00000000000E+00 0. -1.
         25    2    1    2    0    0 -0.14084777794E+02  0.13509247403E+03 -0.49245117938E+02  0.19110283800E+03  0.12508739164E+03 0.  0.
          5    1    3    3  502    0 -0.58427633014E+02  0.90356884989E+02  0.51027509650E+01  0.10780382847E+03  0.41800000000E+01 0. -1.
         -5    1    3    3    0  502  0.44342855220E+02  0.44735589038E+02 -0.54347868903E+02  0.83299009538E+02  0.41800000000E+01 0. -1.
        -11    1    1    2    0    0  0.25721642872E+02  0.41295552803E+01 -0.29607759186E+02  0.39436981919E+02  0.00000000000E+00 0.  1.
         11    1    1    2    0    0 -0.11636865078E+02 -0.13922202931E+03 -0.12994913457E+03  0.19080085862E+03  0.00000000000E+00 0. -1.
</event>
<event>
 7    1  0.2693725E-009  0.7339301E+02  0.7561462E-02  0.1348921E+00
          1   -1    0    0  501    0  0.00000000000E+00  0.00000000000E+00  0.23258253264E+03  0.23258253264E+03  0.00000000000E+00 0. -1.
         -1   -1    0    0    0  501 -0.00000000000E+00 -0.00000000000E+00 -0.68632001202E+02  0.68632001202E+02  0.00000000000E+00 0.  1.
         25    2    1    2    0    0  0.13903802279E+02 -0.41332280773E+02  0.14500133172E+03  0.19640342965E+03  0.12508895965E+03 0.  0.
          5    1    3    3  502    0  0.19493929613E+01  0.16726434645E+02  0.13504041910E+03  0.13615050841E+03  0.41800000000E+01 0.  1.
         -5    1    3    3    0  502  0.11954409318E+02 -0.58058715417E+02  0.99609126194E+01  0.60252921243E+02  0.41800000000E+01 0.  1.
        -11    1    1    2    0    0  0.19323198433E+02  0.34617765069E+01  0.44268584949E+02  0.48426000327E+02  0.00000000000E+00 0. -1.
         11    1    1    2    0    0 -0.33227000712E+02  0.37870504266E+02 -0.25319385229E+02  0.56385103866E+02  0.00000000000E+00 0.  1.
</event>
<event>
 7    1  0.2693725E-009  0.8451578E+02  0.7561462E-02  0.1316704E+00
         -2   -1    0    0    0  501 -0.00000000000E+00  0.00000000000E+00  0.11400690850E+03  0.11400690850E+03  0.00000000000E+00 0. -1.
          2   -1    0    0  501    0  0.00000000000E+00 -0.00000000000E+00 -0.38548012389E+03  0.38548012389E+03  0.00000000000E+00 0.  1.
         25    2    1    2    0    0  0.35570547499E+02 -0.45896026543E+02  0.61069637871E+02  0.15082814248E+03  0.12509164158E+03 0.  0.
          5    1    3    3  502    0  0.31346789761E+02 -0.67827425637E+01 -0.34562571856E+02  0.47335722222E+02  0.41800000000E+01 0. -1.
         -5    1    3    3    0  502  0.42237577381E+01 -0.39113283980E+02  0.95632209727E+02  0.10349242026E+03  0.41800000000E+01 0. -1.
        -11    1    1    2    0    0 -0.10630218028E+02  0.64903518985E+02 -0.27865754295E+03  0.28631362970E+03  0.00000000000E+00 0.  1.
         11    1    1    2    0    0 -0.24940329471E+02 -0.19007492442E+02 -0.53885310314E+02  0.62345260210E+02  0.00000000000E+00 0. -1.
</event>
<event>
 7    1  0.2693725E-009  0.2960306E+03  0.7561462E-02  0.1087242E+00
         -1   -1    0    0    0  501 -0.00000000000E+00  0.00000000000E+00  0.35397780908E+03  0.35397780908E+03  0.00000000000E+00 0.  1.
          1   -1    0    0  501    0  0.00000000000E+00 -0.00000000000E+00 -0.33522042361E+03  0.33522042361E+03  0.00000000000E+00 0. -1.
         25    2    1    2    0    0  0.15022213023E+02  0.28256136651E+03 -0.15374318309E+03  0.34547183855E+03  0.12508889703E+03 0.  0.
          5    1    3    3  502    0  0.53178184782E+02  0.25788188843E+03 -0.12464168688E+03  0.29134860601E+03  0.41800000000E+01 0.  1.
         -5    1    3    3    0  502 -0.38155971760E+02  0.24679478081E+02 -0.29101496214E+02  0.54123232546E+02  0.41800000000E+01 0.  1.
        -11    1    1    2    0    0 -0.64594363559E+01 -0.19515571838E+03  0.16489510843E+03  0.25557362055E+03  0.00000000000E+00 0.  1.
         11    1    1    2    0    0 -0.85627766668E+01 -0.87405648128E+02  0.76054601288E+01  0.88152773596E+02  0.00000000000E+00 0. -1.
</event>
<event>
 7    1  0.3588043E-009  0.1780307E+03  0.7561462E-02  0.1169723E+00
         -1   -1    0    0    0  501 -0.00000000000E+00  0.00000000000E+00  0.25524964212E+03  0.25524964212E+03  0.00000000000E+00 0.  1.
          1   -1    0    0  501    0  0.00000000000E+00 -0.00000000000E+00 -0.17829936928E+03  0.17829936928E+03  0.00000000000E+00 0. -1.
         25    2    1    2    0    0 -0.11353917004E+03  0.13290727189E+03  0.95636583238E+02  0.23526510754E+03  0.12509128154E+03 0.  0.
          5    1    3    3  502    0 -0.89135199597E+02  0.12684212019E+03  0.21129785386E+02  0.15651820179E+03  0.41800000000E+01 0.  1.
         -5    1    3    3    0  502 -0.24403970448E+02  0.60651516990E+01  0.74506797852E+02  0.78746905748E+02  0.41800000000E+01 0.  1.
        -11    1    1    2    0    0  0.51978424812E+02 -0.72753116192E+02 -0.54880169094E+02  0.10491237068E+03  0.00000000000E+00 0. -1.
         11    1    1    2    0    0  0.61560745232E+02 -0.60154155699E+02  0.36193858697E+02  0.93371533182E+02  0.00000000000E+00 0.  1.
</event>
<event>
 7    1  0.2693725E-009  0.1154257E+03  0.7561462E-02  0.1250840E+00
         -2   -1    0    0    0  501 -0.00000000000E+00  0.00000000000E+00  0.20484034647E+02  0.20484034647E+02  0.00000000000E+00 0.  1.
          2   -1    0    0  501    0  0.00000000000E+00 -0.00000000000E+00 -0.10344380942E+04  0.10344380942E+04  0.00000000000E+00 0. -1.
         25    2    1    2    0    0 -0.27777492418E+02 -0.32196773798E+02 -0.84917527083E+03  0.85939256881E+03  0.12509486561E+03 0.  0.
          5    1    3    3  502    0  0.48790106824E+02 -0.20593346814E+02 -0.40926974322E+03  0.41270298712E+03  0.41800000000E+01 0.  1.
         -5    1    3    3    0  502 -0.76567599242E+02 -0.11603426984E+02 -0.43990552761E+03  0.44668958169E+03  0.41800000000E+01 0.  1.
        -11    1    1    2    0    0 -0.16881795631E+02  0.49484977534E+02 -0.55667483493E+02  0.76371635727E+02  0.00000000000E+00 0.  1.
         11    1    1    2    0    0  0.44659288049E+02 -0.17288203735E+02 -0.10911130523E+03  0.11915792431E+03  0.00000000000E+00 0. -1.
</event>
<event>
 7    1  0.2693725E-009  0.1096036E+03  0.7561462E-02  0.1261306E+00
          1   -1    0    0  501    0  0.00000000000E+00  0.00000000000E+00  0.22827431493E+02  0.22827431493E+02  0.00000000000E+00 0. -1.
         -1   -1    0    0    0  501 -0.00000000000E+00 -0.00000000000E+00 -0.74213439650E+03  0.74213439650E+03  0.00000000000E+00 0.  1.
         25    2    1    2    0    0 -0.63716286425E+02  0.17375786594E+02 -0.32452484604E+03  0.35401340988E+03  0.12508971006E+03 0.  0.
          5    1    3    3  502    0  0.22197974509E+02 -0.41529162243E+01 -0.65143649830E+01  0.23872706939E+02  0.41800000000E+01 0. -1.
         -5    1    3    3    0  502 -0.85914260934E+02  0.21528702818E+02 -0.31801048105E+03  0.33014070294E+03  0.41800000000E+01 0. -1.
        -11    1    1    2    0    0  0.55571535709E+01 -0.43472001061E+02 -0.23251729937E+03  0.23661147761E+03  0.00000000000E+00 0.  1.
         11    1    1    2    0    0  0.58159132854E+02  0.26096214467E+02 -0.16226481960E+03  0.17433694051E+03  0.00000000000E+00 0. -1.
</event>
<event>
 7    1  0.2693725E-009  0.1883574E+03  0.7561462E-02  0.1159951E+00
          1   -1    0    0  501    0  0.00000000000E+00  0.00000000000E+00  0.52916671628E+03  0.52916671628E+03  0.00000000000E+00 0. -1.
         -1   -1    0    0    0  501 -0.00000000000E+00 -0.00000000000E+00 -0.93528366539E+02  0.93528366539E+02  0.00000000000E+00 0.  1.
         25    2    1    2    0    0 -0.11649882104E+03  0.12108394602E+03  0.95463454702E+02  0.23020369095E+03  0.12508865198E+03 0.  0.
          5    1    3    3  502    0 -0.69010528998E+02 -0.66366294853E+01  0.53158580305E+02  0.87463163810E+02  0.41800000000E+01 0.  1.
         -5    1    3    3    0  502 -0.47488292040E+02  0.12772057551E+03  0.42304874397E+02  0.14274052714E+03  0.41800000000E+01 0.  1.
        -11    1    1    2    0    0  0.10204100488E+03 -0.87689924259E+02  0.16174454610E+03  0.21038818334E+03  0.00000000000E+00 0.  1.
         11    1    1    2    0    0  0.14457816156E+02 -0.33394021766E+02  0.17843034893E+03  0.18210320853E+03  0.00000000000E+00 0. -1.
</event>
<event>
 7    1  0.3054403E-009  0.1140812E+03  0.7561462E-02  0.1253193E+00
         -2   -1    0    0    0  501 -0.00000000000E+00  0.00000000000E+00  0.27982046769E+02  0.27982046769E+02  0.00000000000E+00 0.  1.
          2   -1    0    0  501    0  0.00000000000E+00 -0.00000000000E+00 -0.77086634593E+03  0.77086634593E+03  0.00000000000E+00 0. -1.
         25    2    1    2    0    0 -0.52084964352E+02  0.60865006262E+02 -0.55815049693E+03  0.57757795504E+03  0.12508766696E+03 0.  0.
          5    1    3    3  502    0  0.21159797133E+02  0.54218735630E+01 -0.15301275500E+02  0.26995095102E+02  0.41800000000E+01 0.  1.
         -5    1    3    3    0  502 -0.73244761485E+02  0.55443132699E+02 -0.54284922143E+03  0.55058285994E+03  0.41800000000E+01 0.  1.
        -11    1    1    2    0    0  0.36191317574E+01 -0.65204961023E+02 -0.65517030034E+02  0.92505493248E+02  0.00000000000E+00 0.  1.
         11    1    1    2    0    0  0.48465832594E+02  0.43399547604E+01 -0.11921677220E+03  0.12876494441E+03  0.00000000000E+00 0. -1.
</event>
<event>
 7    1  0.2693725E-009  0.9802075E+02  0.7561462E-02  0.1284514E+00
          1   -1    0    0  501    0  0.00000000000E+00  0.00000000000E+00  0.70919541109E+03  0.70919541109E+03  0.00000000000E+00 0. -1.
         -1   -1    0    0    0  501 -0.00000000000E+00 -0.00000000000E+00 -0.26119673665E+02  0.26119673665E+02  0.00000000000E+00 0.  1.
         25    2    1    2    0    0  0.78608695917E+02 -0.78230545631E+01  0.43626824616E+03  0.46067175766E+03  0.12509180003E+03 0.  0.
          5    1    3    3  502    0  0.72586090074E+01  0.27567787428E+00  0.34196352596E+03  0.34206620542E+03  0.41800000000E+01 0. -1.
         -5    1    3    3    0  502  0.71350086910E+02 -0.80987324373E+01  0.94304720206E+02  0.11860555224E+03  0.41800000000E+01 0. -1.
        -11    1    1    2    0    0 -0.51475726029E+02  0.45905377231E+02  0.18277229154E+03  0.19535292315E+03  0.00000000000E+00 0. -1.
         11    1    1    2    0    0 -0.27132969889E+02 -0.38082322668E+02  0.64035199726E+02  0.79290403951E+02  0.00000000000E+00 0.  1.
</event>
<event>
 7    1  0.2693725E-009  0.1278320E+03  0.7561462E-02  0.1230709E+00
          2   -1    0    0  501    0  0.00000000000E+00  0.00000000000E+00  0.38927969262E+03  0.38927969262E+03  0.00000000000E+00 0. -1.
         -2   -1    0    0    0  501 -0.00000000000E+00 -0.00000000000E+00 -0.57267493614E+02  0.57267493614E+02  0.00000000000E+00 0.  1.
         25    2    1    2    0    0  0.77848136525E+02  0.50553179929E+02  0.11331840196E+03  0.19262483017E+03  0.12508920262E+03 0.  0.
          5    1    3    3  502    0  0.11115223400E+03  0.47924142339E+02  0.79327839173E+02  0.14478232285E+03  0.41800000000E+01 0.  1.
         -5    1    3    3    0  502 -0.33304097480E+02  0.26290375904E+01  0.33990562783E+02  0.47842507312E+02  0.41800000000E+01 0.  1.
        -11    1    1    2    0    0 -0.32079352544E+02  0.80223321087E+00  0.16092302412E+03  0.16409127988E+03  0.00000000000E+00 0. -1.
         11    1    1    2    0    0 -0.45768783980E+02 -0.51355413140E+02  0.57770772928E+02  0.89831076196E+02  0.00000000000E+00 0.  1.
</event>
<event>
 7    1  0.2693725E-009  0.1491372E+03  0.7561462E-02  0.1201537E+00
          3   -1    0    0  501    0  0.00000000000E+00  0.00000000000E+00  0.19032352607E+03  0.19032352607E+03  0.00000000000E+00 0. -1.
         -3   -1    0    0    0  501 -0.00000000000E+00 -0.00000000000E+00 -0.16403880883E+03  0.16403880883E+03  0.00000000000E+00 0.  1.
         25    2    1    2    0    0  0.33199357847E+01  0.11652434099E+03 -0.20244557504E+02  0.17217332667E+03  0.12507944792E+03 0.  0.
          5    1    3    3  502    0  0.91269603229E+01  0.39662483463E+01  0.41991273357E+02  0.43356337124E+02  0.41800000000E+01 0.  1.
         -5    1    3    3    0  502 -0.58070245382E+01  0.11255809264E+03 -0.62235830860E+02  0.12881698954E+03  0.41800000000E+01 0.  1.
        -11    1    1    2    0    0 -0.47624377299E+02  0.25027634038E+01  0.23297202201E+02  0.53076405004E+02  0.00000000000E+00 0. -1.
         11    1    1    2    0    0  0.44304441514E+02 -0.11902710439E+03  0.23232072548E+02  0.12911260323E+03  0.00000000000E+00 0.  1.
</event>
<event>
 7    1  0.2693725E-009  0.1416471E+03  0.7561462E-02  0.1211130E+00
          1   -1    0    0  501    0  0.00000000000E+00  0.00000000000E+00  0.12212300739E+03  0.12212300739E+03  0.00000000000E+00 0. -1.
         -1   -1    0    0    0  501 -0.00000000000E+00 -0.00000000000E+00 -0.43898309331E+03  0.43898309331E+03  0.00000000000E+00 0.  1.
         25    2    1    2    0    0 -0.27448404719E+02  0.12568648831E+03 -0.35648518819E+03  0.39909886308E+03  0.12509078643E+03 0.  0.
          5    1    3    3  502    0 -0.51062175865E+02  0.48019559852E+02 -0.27568416157E+03  0.28448629717E+03  0.41800000000E+01 0. -1.
         -5    1    3    3    0  502  0.23613771146E+02  0.77666928456E+02 -0.80801026620E+02  0.11461256592E+03  0.41800000000E+01 0. -1.
        -11    1    1    2    0    0  0.32888156720E+02 -0.11705805786E+03  0.51764972383E+00  0.12159147883E+03  0.00000000000E+00 0.  1.
         11    1    1    2    0    0 -0.54397520005E+01 -0.86284304491E+01  0.39107452547E+02  0.40415758790E+02  0.00000000000E+00 0. -1.
</event>
<event>
 7    1  0.2693725E-009  0.1033157E+03  0.7561462E-02  0.1273474E+00
          2   -1    0    0  501    0  0.00000000000E+00  0.00000000000E+00  0.20179246995E+03  0.20179246995E+03  0.00000000000E+00 0. -1.
         -2   -1    0    0    0  501 -0.00000000000E+00 -0.00000000000E+00 -0.73297600339E+02  0.73297600339E+02  0.00000000000E+00 0.  1.
         25    2    1    2    0    0 -0.10488571004E+02 -0.21731738960E+02  0.13099601221E+03  0.18272892462E+03  0.12509047158E+03 0.  0.
          5    1    3    3  502    0 -0.17289910653E+02 -0.72587618261E+02  0.65132478135E+02  0.99134330295E+02  0.41800000000E+01 0. -1.
         -5    1    3    3    0  502  0.68013396484E+01  0.50855879300E+02  0.65863534074E+02  0.83594594329E+02  0.41800000000E+01 0. -1.
        -11    1    1    2    0    0 -0.31198502659E+02  0.22921102960E+02 -0.23890818895E+02  0.45491699865E+02  0.00000000000E+00 0.  1.
         11    1    1    2    0    0  0.41687073664E+02 -0.11893640001E+01  0.21389676295E+02  0.46869445798E+02  0.00000000000E+00 0. -1.
</event>
<event>
 7    1  0.2693725E-009  0.1037340E+03  0.7561462E-02  0.1272634E+00
          1   -1    0    0  501    0  0.00000000000E+00  0.00000000000E+00  0.13943999075E+03  0.13943999075E+03  0.00000000000E+00 0. -1.
         -1   -1    0    0    0  501 -0.00000000000E+00 -0.00000000000E+00 -0.12044702330E+03  0.12044702330E+03  0.00000000000E+00 0.  1.
         25    2    1    2    0    0 -0.15680265301E+01  0.65320149227E+02  0.44207052443E+02  0.14789609517E+03  0.12509920414E+03 0.  0.
          5    1    3    3  502    0  0.28902546881E+02  0.36233599325E+01  0.68699444661E+02  0.74736684768E+02  0.41800000000E+01 0. -1.
         -5    1    3    3    0  502 -0.30470573412E+02  0.61696789295E+02 -0.24492392217E+02  0.73159410399E+02  0.41800000000E+01 0. -1.
        -11    1    1    2    0    0  0.10097263851E+01 -0.87205107322E+02 -0.19472016585E+02  0.89358322054E+02  0.00000000000E+00 0. -1.
         11    1    1    2    0    0  0.55830014506E+00  0.21884958094E+02 -0.57420684020E+01  0.22632596833E+02  0.00000000000E+00 0.  1.
</event>
<event>
 7    1  0.2693725E-009  0.1339908E+03  0.7561462E-02  0.1221651E+00
         -1   -1    0    0    0  501 -0.00000000000E+00  0.00000000000E+00  0.91990999199E+02  0.91990999199E+02  0.00000000000E+00 0.  1.
          1   -1    0    0  501    0  0.00000000000E+00 -0.00000000000E+00 -0.41707915533E+03  0.41707915533E+03  0.00000000000E+00 0. -1.
         25    2    1    2    0    0 -0.49073998187E+02 -0.94458496216E+02 -0.88089435216E+01  0.16447932294E+03  0.12508071547E+03 0.  0.
          5    1    3    3  502    0 -0.89323365822E+02 -0.57043139540E+02  0.92866530624E+01  0.10647205162E+03  0.41800000000E+01 0.  1.
         -5    1    3    3    0  502  0.40249367635E+02 -0.37415356676E+02 -0.18095596584E+02  0.58007271320E+02  0.41800000000E+01 0.  1.
        -11    1    1    2    0    0  0.46850674085E+02  0.84698034792E+02 -0.31968501361E+03  0.33401684192E+03  0.00000000000E+00 0. -1.
         11    1    1    2    0    0  0.22233241016E+01  0.97604614248E+01  0.34058009945E+01  0.10573989678E+02  0.00000000000E+00 0.  1.
</event>
<event>
 7    1  0.2693725E-009  0.1705935E+03  0.7561462E-02  0.1177230E+00
          2   -1    0    0  501    0  0.00000000000E+00  0.00000000000E+00  0.66820428537E+03  0.66820428537E+03  0.00000000000E+00 0. -1.
         -2   -1    0    0    0  501 -0.00000000000E+00 -0.00000000000E+00 -0.96937779575E+02  0.96937779575E+02  0.00000000000E+00 0.  1.
         25    2    1    2    0    0  0.11022674233E+03 -0.10737252026E+03  0.55019497585E+03  0.58484363329E+03  0.12509504831E+03 0.  0.
          5    1    3    3  502    0 -0.15533041066E+02 -0.36244641557E+02  0.23191421097E+03  0.23527988239E+03  0.41800000000E+01 0. -1.
         -5    1    3    3    0  502  0.12575978340E+03 -0.71127878704E+02  0.31828076488E+03  0.34956375090E+03  0.41800000000E+01 0. -1.
        -11    1    1    2    0    0 -0.23043610537E+02  0.42414978024E+02 -0.33395310036E+02  0.58696550833E+02  0.00000000000E+00 0.  1.
         11    1    1    2    0    0 -0.87183131794E+02  0.64957542237E+02  0.54466839978E+02  0.12160188082E+03  0.00000000000E+00 0. -1.
</event>
<event>
 7    1  0.2693725E-009  0.1026158E+03  0.7561462E-02  0.1274889E+00
          2   -1    0    0  501    0  0.00000000000E+00  0.00000000000E+00  0.21977953882E+03  0.21977953882E+03  0.00000000000E+00 0. -1.
         -2   -1    0    0    0  501 -0.00000000000E+00 -0.00000000000E+00 -0.79252558592E+02  0.79252558592E+02  0.00000000000E+00 0.  1.
         25    2    1    2    0    0  0.38100668587E+02  0.64534636308E+02  0.89269325971E+02  0.17097547788E+03  0.12508885340E+03 0.  0.
          5    1    3    3  502    0  0.14473643604E+02  0.78193768425E+02  0.11046002278E+03  0.13617136561E+03  0.41800000000E+01 0.  1.
         -5    1    3    3    0  502  0.23627024983E+02 -0.13659132117E+02 -0.21190696806E+02  0.34804112269E+02  0.41800000000E+01 0.  1.
        -11    1    1    2    0    0 -0.49772058800E+02 -0.22967383436E+02 -0.73038398792E+01  0.55300132152E+02  0.00000000000E+00 0.  1.
         11    1    1    2    0    0  0.11671390213E+02 -0.41567252872E+02  0.58561494141E+02  0.72756487387E+02  0.00000000000E+00 0. -1.
</event>
<event>
 7    1  0.2693725E-009  0.1226752E+03  0.7561462E-02  0.1238748E+00
         -2   -1    0    0    0  501 -0.00000000000E+00  0.00000000000E+00  0.18643135061E+02  0.18643135061E+02  0.00000000000E+00 0.  1.
          2   -1    0    0  501    0  0.00000000000E+00 -0.00000000000E+00 -0.11016835687E+04  0.11016835687E+04  0.00000000000E+00 0. -1.
         25    2    1    2    0    0  0.71713351965E+02 -0.25175326412E+02 -0.80083892578E+03  0.81410570440E+03  0.12509400860E+03 0.  0.
          5    1    3    3  502    0 -0.32228941053E+02 -0.17866345478E+02 -0.12913127833E+03  0.13435129469E+03  0.41800000000E+01 0.  1.
         -5    1    3    3    0  502  0.10394229302E+03 -0.73089809342E+01 -0.67170764744E+03  0.67975440971E+03  0.41800000000E+01 0.  1.
        -11    1    1    2    0    0  0.62516310684E+01 -0.15016917119E+02 -0.76070599042E+01  0.17957117006E+02  0.00000000000E+00 0.  1.
         11    1    1    2    0    0 -0.77964983033E+02  0.40192243531E+02 -0.27459444791E+03  0.28826388231E+03  0.00000000000E+00 0. -1.
</event>
<event>
 7    1  0.2693725E-009  0.1097919E+03  0.7561462E-02  0.1260956E+00
         -1   -1    0    0    0  501 -0.00000000000E+00  0.00000000000E+00  0.10102290058E+03  0.10102290058E+03  0.00000000000E+00 0.  1.
          1   -1    0    0  501    0  0.00000000000E+00 -0.00000000000E+00 -0.14366973482E+03  0.14366973482E+03  0.00000000000E+00 0. -1.
         25    2    1    2    0    0 -0.38702475059E+02 -0.34295897455E+02 -0.34412517609E+02  0.13966300772E+03  0.12508974458E+03 0.  0.
          5    1    3    3  502    0 -0.32615469105E+02  0.44291287121E+02 -0.48518635963E+01  0.55375986855E+02  0.41800000000E+01 0. -1.
         -5    1    3    3    0  502 -0.60870059541E+01 -0.78587184576E+02 -0.29560654012E+02  0.84287020867E+02  0.41800000000E+01 0. -1.
        -11    1    1    2    0    0  0.52058975590E+02  0.44652849074E+02  0.20594966486E+02  0.71611217798E+02  0.00000000000E+00 0.  1.
         11    1    1    2    0    0 -0.13356500531E+02 -0.10356951620E+02 -0.28829283126E+02  0.33418409879E+02  0.00000000000E+00 0. -1.
</event>
<event>
 7    1  0.2693725E-009  0.2779373E+03  0.7561462E-02  0.1096821E+00
          1   -1    0    0  501    0  0.00000000000E+00  0.00000000000E+00  0.43394297712E+03  0.43394297712E+03  0.00000000000E+00 0. -1.
         -1   -1    0    0    0  501 -0.00000000000E+00 -0.00000000000E+00 -0.19491382870E+03  0.19491382870E+03  0.00000000000E+00 0.  1.
         25    2    1    2    0    0  0.12362710709E+03 -0.24244464648E+03  0.13335971439E+03  0.32786083600E+03  0.12507935940E+03 0.  0.
          5    1    3    3  502    0  0.12282481100E+03 -0.18757800195E+03  0.52942664964E+02  0.23041666430E+03  0.41800000000E+01 0.  1.
         -5    1    3    3    0  502  0.80229608790E+00 -0.54866644534E+02  0.80417049422E+02  0.97444171704E+02  0.41800000000E+01 0.  1.
        -11    1    1    2    0    0 -0.48559777312E+02  0.14909096429E+03  0.88296500347E+02  0.17995121444E+03  0.00000000000E+00 0. -1.
         11    1    1    2    0    0 -0.75067329778E+02  0.93353682195E+02  0.17372933691E+02  0.12104475538E+03  0.00000000000E+00 0.  1.
</event>
<event>
 7    1  0.2693725E-009  0.1255976E+03  0.7561462E-02  0.1234138E+00
          2   -1    0    0  501    0  0.00000000000E+00  0.00000000000E+00  0.17023922811E+02  0.17023922811E+02  0.00000000000E+00 0. -1.
         -2   -1    0    0    0  501 -0.00000000000E+00 -0.00000000000E+00 -0.11184758932E+04  0.11184758932E+04  0.00000000000E+00 0.  1.
         25    2    1    2    0    0 -0.31208606784E+02  0.59966379862E+02 -0.82073911641E+03  0.83296467600E+03  0.12509000922E+03 0.  0.
          5    1    3    3  502    0  0.29296390384E+02  0.71052692033E+02 -0.54559794475E+03  0.55100032055E+03  0.41800000000E+01 0.  1.
         -5    1    3    3    0  502 -0.60504997168E+02 -0.11086312171E+02 -0.27514117166E+03  0.28196435545E+03  0.41800000000E+01 0.  1.
        -11    1    1    2    0    0  0.39602393004E+02 -0.80869921670E+02 -0.23216843321E+03  0.24901902566E+03  0.00000000000E+00 0.  1.
         11    1    1    2    0    0 -0.83937862198E+01  0.20903541809E+02 -0.48544420778E+02  0.53516114358E+02  0.00000000000E+00 0. -1.
</event>
<event>
 7    1  0.2693725E-009  0.7217742E+02  0.7561462E-02  0.1352841E+00
          2   -1    0    0  501    0  0.00000000000E+00  0.00000000000E+00  0.75819498527E+03  0.75819498527E+03  0.00000000000E+00 0. -1.
         -2   -1    0    0    0  501 -0.00000000000E+00 -0.00000000000E+00 -0.52381441231E+02  0.52381441231E+02  0.00000000000E+00 0.  1.
         25    2    1    2    0    0 -0.44222684490E+01  0.37440542984E+01  0.70737071931E+03  0.71836947911E+03  0.12509116510E+03 0.  0.
          5    1    3    3  502    0  0.33530424688E+02 -0.21681440784E+02  0.81822008068E+02  0.91141031695E+02  0.41800000000E+01 0.  1.
         -5    1    3    3    0  502 -0.37952693137E+02  0.25425495083E+02  0.62554871124E+03  0.62722844742E+03  0.41800000000E+01 0.  1.
        -11    1    1    2    0    0 -0.23886727308E+02 -0.14622220658E+02 -0.36456058804E+02  0.45972049138E+02  0.00000000000E+00 0.  1.
         11    1    1    2    0    0  0.28308995757E+02  0.10878166360E+02  0.34898883532E+02  0.46234898247E+02  0.00000000000E+00 0. -1.
</event>
<event>
 7    1  0.2693725E-009  0.3821460E+03  0.7561462E-02  0.1050143E+00
         -1   -1    0    0    0  501 -0.00000000000E+00  0.00000000000E+00  0.74264182147E+02  0.74264182147E+02  0.00000000000E+00 0.  1.
          1   -1    0    0  501    0  0.00000000000E+00 -0.00000000000E+00 -0.20006838987E+04  0.20006838987E+04  0.00000000000E+00 0. -1.
         25    2    1    2    0    0  0.73475679821E+02  0.35947072220E+03 -0.11035088445E+04  0.11696139452E+04  0.12508850988E+03 0.  0.
          5    1    3    3  502    0 -0.91349561068E+01  0.24860180410E+03 -0.68004822140E+03  0.72413352378E+03  0.41800000000E+01 0.  1.
         -5    1    3    3    0  502  0.82610635928E+02  0.11086891809E+03 -0.42346062306E+03  0.44548042140E+03  0.41800000000E+01 0.  1.
        -11    1    1    2    0    0  0.18486638504E+02 -0.10429645217E+03 -0.21624061002E+03  0.24078934188E+03  0.00000000000E+00 0.  1.
         11    1    1    2    0    0 -0.91962318325E+02 -0.25517427003E+03 -0.60667026203E+03  0.66454479376E+03  0.00000000000E+00 0. -1.
</event>
<event>
 7    1  0.2693725E-009  0.2624654E+03  0.7561462E-02  0.1105671E+00
         -1   -1    0    0    0  501 -0.00000000000E+00  0.00000000000E+00  0.15225015454E+03  0.15225015454E+03  0.00000000000E+00 0.  1.
          1   -1    0    0  501    0  0.00000000000E+00 -0.00000000000E+00 -0.56936841770E+03  0.56936841770E+03  0.00000000000E+00 0. -1.
         25    2    1    2    0    0  0.11744365726E+02  0.25291531553E+03 -0.86759132435E+02  0.29542994976E+03  0.12509045207E+03 0.  0.
          5    1    3    3  502    0 -0.35135036918E+02  0.18827125262E+03 -0.22572553805E+02  0.19289252958E+03  0.41800000000E+01 0.  1.
         -5    1    3    3    0  502  0.46879402644E+02  0.64644062910E+02 -0.64186578630E+02  0.10253742018E+03  0.41800000000E+01 0.  1.
        -11    1    1    2    0    0  0.19648507519E+01 -0.28931623178E+02 -0.10193307712E+03  0.10597759985E+03  0.00000000000E+00 0. -1.
         11    1    1    2    0    0 -0.13709216478E+02 -0.22398369235E+03 -0.22842605361E+03  0.32021102264E+03  0.00000000000E+00 0.  1.
</event>
<event>
 7    1  0.2693725E-009  0.1332384E+03  0.7561462E-02  0.1222728E+00
         -1   -1    0    0    0  501 -0.00000000000E+00  0.00000000000E+00  0.40042101513E+03  0.40042101513E+03  0.00000000000E+00 0.  1.
          1   -1    0    0  501    0  0.00000000000E+00 -0.00000000000E+00 -0.73090121420E+02  0.73090121420E+02  0.00000000000E+00 0. -1.
         25    2    1    2    0    0 -0.12091268096E+03 -0.11634258724E+02  0.23574892129E+03  0.29322420892E+03  0.12509056886E+03 0.  0.
          5    1    3    3  502    0 -0.46480075697E+02  0.74977241837E+01  0.20494205596E+03  0.21032197224E+03  0.41800000000E+01 0. -1.
         -5    1    3    3    0  502 -0.74432605258E+02 -0.19131982908E+02  0.30806865324E+02  0.82902236680E+02  0.41800000000E+01 0. -1.
        -11    1    1    2    0    0  0.12208688065E+03 -0.82131960195E+01  0.46294927925E+02  0.13082768578E+03  0.00000000000E+00 0. -1.
         11    1    1    2    0    0 -0.11741996943E+01  0.19847454744E+02  0.45287044499E+02  0.49459241848E+02  0.00000000000E+00 0.  1.
</event>
<event>
 7    1  0.2693725E-009  0.2379144E+03  0.7561462E-02  0.1121190E+00
         -2   -1    0    0    0  501 -0.00000000000E+00  0.00000000000E+00  0.18465253638E+03  0.18465253638E+03  0.00000000000E+00 0.  1.
          2   -1    0    0  501    0  0.00000000000E+00 -0.00000000000E+00 -0.39558208813E+03  0.39558208813E+03  0.00000000000E+00 0. -1.
         25    2    1    2    0    0 -0.18603133079E+03  0.12431672303E+03 -0.22147297407E+03  0.33876342914E+03  0.12509228202E+03 0.  0.
          5    1    3    3  502    0 -0.17205711763E+03  0.61515649628E+02 -0.19970189285E+03  0.27071413943E+03  0.41800000000E+01 0.  1.
         -5    1    3    3    0  502 -0.13974213160E+02  0.62801073398E+02 -0.21771081218E+02  0.68049289716E+02  0.41800000000E+01 0.  1.
        -11    1    1    2    0    0  0.82524533653E+02 -0.27856645738E+02 -0.33453067380E+02  0.93302728168E+02  0.00000000000E+00 0. -1.
         11    1    1    2    0    0  0.10350679714E+03 -0.96460077289E+02  0.43996489703E+02  0.14816846719E+03  0.00000000000E+00 0.  1.
</event>
<event>
 7    1  0.2693725E-009  0.1315188E+03  0.7561462E-02  0.1225219E+00
         -1   -1    0    0    0  501 -0.00000000000E+00  0.00000000000E+00  0.87981751194E+02  0.87981751194E+02  0.00000000000E+00 0.  1.
          1   -1    0    0  501    0  0.00000000000E+00 -0.00000000000E+00 -0.42589185571E+03  0.42589185571E+03  0.00000000000E+00 0. -1.
         25    2    1    2    0    0  0.87173090521E+02  0.90117939950E+02 -0.47063185923E+02  0.18325491938E+03  0.12508809374E+03 0.  0.
          5    1    3    3  502    0  0.30018065719E+02 -0.54524047717E+00  0.36386484621E+02  0.47358528479E+02  0.41800000000E+01 0. -1.
         -5    1    3    3    0  502  0.57155024802E+02  0.90663180427E+02 -0.83449670544E+02  0.13589639090E+03  0.41800000000E+01 0. -1.
        -11    1    1    2    0    0 -0.28430586993E+02 -0.26281642613E+02 -0.15116986358E+02  0.41563761761E+02  0.00000000000E+00 0.  1.
         11    1    1    2    0    0 -0.58742503528E+02 -0.63836297338E+02 -0.27572993224E+03  0.28905492577E+03  0.00000000000E+00 0. -1.
</event>
<event>
 7    1  0.2693725E-009  0.1342572E+03  0.7561462E-02  0.1221272E+00
          1   -1    0    0  501    0  0.00000000000E+00  0.00000000000E+00  0.22247380589E+02  0.22247380589E+02  0.00000000000E+00 0. -1.
         -1   -1    0    0    0  501 -0.00000000000E+00 -0.00000000000E+00 -0.90603200776E+03  0.90603200776E+03  0.00000000000E+00 0.  1.
         25    2    1    2    0    0 -0.33301145743E+02  0.85839668537E+02 -0.48816432478E+03  0.51227866698E+03  0.12509040592E+03 0.  0.
          5    1    3    3  502    0  0.20119730479E+02  0.97379749903E+02 -0.28631348240E+03  0.30311796689E+03  0.41800000000E+01 0. -1.
         -5    1    3    3    0  502 -0.53420876222E+02 -0.11540081366E+02 -0.20185084238E+03  0.20916070009E+03  0.41800000000E+01 0. -1.
        -11    1    1    2    0    0  0.49416249721E+02 -0.34239132585E+02 -0.11044852018E+03  0.12575038587E+03  0.00000000000E+00 0. -1.
         11    1    1    2    0    0 -0.16115103978E+02 -0.51600535951E+02 -0.28517178221E+03  0.29025033549E+03  0.00000000000E+00 0.  1.
</event>
<event>
 7    1  0.2693725E-009  0.1536834E+03  0.7561462E-02  0.1196019E+00
          1   -1    0    0  501    0  0.00000000000E+00  0.00000000000E+00  0.17395732785E+03  0.17395732785E+03  0.00000000000E+00 0. -1.
         -1   -1    0    0    0  501 -0.00000000000E+00 -0.00000000000E+00 -0.17351700134E+03  0.17351700134E+03  0.00000000000E+00 0.  1.
         25    2    1    2    0    0  0.71997305539E+02 -0.10413209718E+03 -0.49155416382E+02  0.18463675502E+03  0.12508945070E+03 0.  0.
          5    1    3    3  502    0  0.57092040604E+02 -0.12709588151E+03 -0.14308552139E+02  0.14012519853E+03  0.41800000000E+01 0.  1.
         -5    1    3    3    0  502  0.14905264935E+02  0.22963784335E+02 -0.34846864243E+02  0.44511556492E+02  0.41800000000E+01 0.  1.
        -11    1    1    2    0    0  0.10320550135E+02  0.20391183760E+02 -0.16407027365E+02  0.28133692918E+02  0.00000000000E+00 0.  1.
         11    1    1    2    0    0 -0.82317855674E+02  0.83740913419E+02  0.66002770254E+02  0.13470388125E+03  0.00000000000E+00 0. -1.
</event>
<event>
 7    1  0.2693725E-009  0.1040340E+03  0.7561462E-02  0.1272035E+00
         -2   -1    0    0    0  501 -0.00000000000E+00  0.00000000000E+00  0.15312041791E+02  0.15312041791E+02  0.00000000000E+00 0.  1.
          2   -1    0    0  501    0  0.00000000000E+00 -0.00000000000E+00 -0.93909130046E+03  0.93909130046E+03  0.00000000000E+00 0. -1.
         25    2    1    2    0    0  0.29685025793E+02  0.31295698604E+01 -0.67896417007E+03  0.69103534646E+03  0.12508601381E+03 0.  0.
          5    1    3    3  502    0  0.66454776979E+02  0.38542191361E+02 -0.43515827615E+03  0.44190715722E+03  0.41800000000E+01 0. -1.
         -5    1    3    3    0  502 -0.36769751185E+02 -0.35412621501E+02 -0.24380589392E+03  0.24912818924E+03  0.41800000000E+01 0. -1.
        -11    1    1    2    0    0  0.32754542041E+01 -0.34353482400E+02 -0.18543961333E+03  0.18862327678E+03  0.00000000000E+00 0. -1.
         11    1    1    2    0    0 -0.32960479997E+02  0.31223912540E+02 -0.59375475266E+02  0.74744719004E+02  0.00000000000E+00 0.  1.
</event>
<event>
 7    1  0.2693725E-009  0.7829919E+02  0.7561462E-02  0.1333949E+00
         -1   -1    0    0    0  501 -0.00000000000E+00  0.00000000000E+00  0.58072312381E+02  0.58072312381E+02  0.00000000000E+00 0.  1.
          1   -1    0    0  501    0  0.00000000000E+00 -0.00000000000E+00 -0.27412641057E+03  0.27412641057E+03  0.00000000000E+00 0. -1.
         25    2    1    2    0    0 -0.45405144412E+02  0.35432195338E+02 -0.15481377014E+03  0.20720374069E+03  0.12509603960E+03 0.  0.
          5    1    3    3  502    0 -0.52723445015E+01  0.40923469666E+02 -0.16078392462E+03  0.16604659226E+03  0.41800000000E+01 0.  1.
         -5    1    3    3    0  502 -0.40132799910E+02 -0.54912743274E+01  0.59701544742E+01  0.41157148429E+02  0.41800000000E+01 0.  1.
        -11    1    1    2    0    0 -0.94491730612E+01 -0.10570542939E+02  0.19597768702E+02  0.24188753330E+02  0.00000000000E+00 0.  1.
         11    1    1    2    0    0  0.54854317473E+02 -0.24861652399E+02 -0.80838096745E+02  0.10080622893E+03  0.00000000000E+00 0. -1.
</event>
<event>
 7    1  0.2693725E-009  0.1248873E+03  0.7561462E-02  0.1235246E+00
         -1   -1    0    0    0  501 -0.00000000000E+00  0.00000000000E+00  0.25567252166E+03  0.25567252166E+03  0.00000000000E+00 0.  1.
          1   -1    0    0  501    0  0.00000000000E+00 -0.00000000000E+00 -0.94703219712E+02  0.94703219712E+02  0.00000000000E+00 0. -1.
         25    2    1    2    0    0 -0.38246649726E+01 -0.71587978680E+02  0.18214137632E+03  0.23229771899E+03  0.12508909836E+03 0.  0.
          5    1    3    3  502    0 -0.59088341721E+02 -0.41983737332E+02  0.57140646024E+02  0.92393680280E+02  0.41800000000E+01 0. -1.
         -5    1    3    3    0  502  0.55263676748E+02 -0.29604241348E+02  0.12500073029E+03  0.13990403871E+03  0.41800000000E+01 0. -1.
        -11    1    1    2    0    0  0.45184767598E+02  0.23574529643E+02  0.89952719151E+00  0.50972843946E+02  0.00000000000E+00 0.  1.
         11    1    1    2    0    0 -0.41360102625E+02  0.48013449037E+02 -0.22071601561E+02  0.67105178437E+02  0.00000000000E+00 0. -1.
</event>
<event>
 7    1  0.2693725E-009  0.2065172E+03  0.7561462E-02  0.1144354E+00
          2   -1    0    0  501    0  0.00000000000E+00  0.00000000000E+00  0.19330910570E+03  0.19330910570E+03  0.00000000000E+00 0. -1.
         -2   -1    0    0    0  501 -0.00000000000E+00 -0.00000000000E+00 -0.24385303983E+03  0.24385303983E+03  0.00000000000E+00 0.  1.
         25    2    1    2    0    0 -0.47264170167E+02  0.18100640612E+03 -0.10235581681E+02  0.22527662419E+03  0.12509024516E+03 0.  0.
          5    1    3    3  502    0 -0.88678027112E+01 -0.18329107325E+02  0.58610541435E+01  0.21596723268E+02  0.41800000000E+01 0. -1.
         -5    1    3    3    0  502 -0.38396367456E+02  0.19933551345E+03 -0.16096635824E+02  0.20367990092E+03  0.41800000000E+01 0. -1.
        -11    1    1    2    0    0  0.21362801308E+02 -0.13255390701E+03 -0.67842431864E+02  0.15043105765E+03  0.00000000000E+00 0. -1.
         11    1    1    2    0    0  0.25901368860E+02 -0.48452499111E+02  0.27534079420E+02  0.61454463698E+02  0.00000000000E+00 0.  1.
</event>
<event>
 7    1  0.2693725E-009  0.1177656E+03  0.7561462E-02  0.1246829E+00
          2   -1    0    0  501    0  0.00000000000E+00  0.00000000000E+00  0.67660410213E+03  0.67660410213E+03  0.00000000000E+00 0. -1.
         -2   -1    0    0    0  501 -0.00000000000E+00 -0.00000000000E+00 -0.29553394552E+02  0.29553394552E+02  0.00000000000E+00 0.  1.
         25    2    1    2    0    0 -0.46426822936E+02  0.70948746280E+02  0.42208569987E+03  0.44832125697E+03  0.12508571831E+03 0.  0.
          5    1    3    3  502    0 -0.63961616790E+02  0.88365336740E+02  0.22982743940E+03  0.25443593587E+03  0.41800000000E+01 0. -1.
         -5    1    3    3    0  502  0.17534793853E+02 -0.17416590460E+02  0.19225826047E+03  0.19388532110E+03  0.41800000000E+01 0. -1.
        -11    1    1    2    0    0  0.21958527205E+02  0.41228329447E+01  0.33708592471E+01  0.22595073812E+02  0.00000000000E+00 0.  1.
         11    1    1    2    0    0  0.24468295732E+02 -0.75071579225E+02  0.22159414846E+03  0.23524116590E+03  0.00000000000E+00 0. -1.
</event>
<event>
 7    1  0.2693725E-009  0.1279657E+03  0.7561462E-02  0.1230506E+00
          2   -1    0    0  501    0  0.00000000000E+00  0.00000000000E+00  0.15537547241E+04  0.15537547241E+04  0.00000000000E+00 0. -1.
         -2   -1    0    0    0  501 -0.00000000000E+00 -0.00000000000E+00 -0.14889973625E+02  0.14889973625E+02  0.00000000000E+00 0.  1.
         25    2    1    2    0    0  0.68560871261E+02  0.10111166991E+03  0.94644306970E+03  0.96245855079E+03  0.12509122647E+03 0.  0.
          5    1    3    3  502    0  0.65167279859E+02  0.52269638947E+02  0.85107790563E+03  0.85517832256E+03  0.41800000000E+01 0.  1.
         -5    1    3    3    0  502  0.33935914020E+01  0.48842030959E+02  0.95365164066E+02  0.10728022823E+03  0.41800000000E+01 0.  1.
        -11    1    1    2    0    0 -0.31762365476E+02 -0.33445862396E+02  0.14428261441E+03  0.15147589377E+03  0.00000000000E+00 0.  1.
         11    1    1    2    0    0 -0.36798505785E+02 -0.67665807510E+02  0.44813906633E+03  0.45471025313E+03  0.00000000000E+00 0. -1.
</event>
<event>
 7    1  0.2693725E-009  0.1451758E+03  0.7561462E-02  0.1206529E+00
          2   -1    0    0  501    0  0.00000000000E+00  0.00000000000E+00  0.23238578206E+03  0.23238578206E+03  0.00000000000E+00 0.  1.
         -2   -1    0    0    0  501 -0.00000000000E+00 -0.00000000000E+00 -0.14790647396E+03  0.14790647396E+03  0.00000000000E+00 0. -1.
         25    2    1    2    0    0 -0.13347206486E+03  0.16850441241E+02 -0.20587356047E+02  0.18485293425E+03  0.12509212047E+03 0.  0.
          5    1    3    3  502    0 -0.79452930299E+02  0.11100913069E+02 -0.73514097596E+02  0.10889349544E+03  0.41800000000E+01 0.  1.
         -5    1    3    3    0  502 -0.54019134564E+02  0.57495281724E+01  0.52926741549E+02  0.75959438810E+02  0.41800000000E+01 0.  1.
        -11    1    1    2    0    0  0.13526786228E+03  0.32949408137E+01  0.64038690109E+02  0.14969704417E+03  0.00000000000E+00 0. -1.
         11    1    1    2    0    0 -0.17957974183E+01 -0.20145382055E+02  0.41027974038E+02  0.45742277601E+02  0.00000000000E+00 0.  1.
</event>
<event>
 7    1  0.2693725E-009  0.1106524E+03  0.7561462E-02  0.1259366E+00
          2   -1    0    0  501    0  0.00000000000E+00  0.00000000000E+00  0.27784670400E+03  0.27784670400E+03  0.00000000000E+00 0. -1.
         -2   -1    0    0    0  501 -0.00000000000E+00 -0.00000000000E+00 -0.59464644830E+02  0.59464644830E+02  0.00000000000E+00 0.  1.
         25    2    1    2    0    0  0.19569051958E+02  0.30182002326E+02  0.43012663249E+02  0.13707980893E+03  0.12508750440E+03 0.  0.
          5    1    3    3  502    0 -0.24070452796E+02  0.67146265276E+02  0.13985726085E+02  0.72808519917E+02  0.41800000000E+01 0. -1.
         -5    1    3    3    0  502  0.43639504754E+02 -0.36964262950E+02  0.29026937163E+02  0.64271289015E+02  0.41800000000E+01 0. -1.
        -11    1    1    2    0    0  0.10457678876E+02 -0.53486823767E+02  0.73492671006E+02  0.91495224223E+02  0.00000000000E+00 0.  1.
         11    1    1    2    0    0 -0.30026730834E+02  0.23304821440E+02  0.10187672492E+03  0.10873631568E+03  0.00000000000E+00 0. -1.
</event>
<event>
 7    1  0.2693725E-009  0.9060972E+02  0.7561462E-02  0.1301382E+00
         -1   -1    0    0    0  501 -0.00000000000E+00  0.00000000000E+00  0.12937821212E+03  0.12937821212E+03  0.00000000000E+00 0.  1.
          1   -1    0    0  501    0  0.00000000000E+00 -0.00000000000E+00 -0.89563204622E+02  0.89563204622E+02  0.00000000000E+00 0. -1.
         25    2    1    2    0    0 -0.29848497461E+02 -0.21689328884E+02  0.29327965229E+02  0.13367557293E+03  0.12509064500E+03 0.  0.
          5    1    3    3  502    0  0.22713903292E+02 -0.40661785615E+02  0.54867981285E+02  0.72092093758E+02  0.41800000000E+01 0. -1.
         -5    1    3    3    0  502 -0.52562400753E+02  0.18972456731E+02 -0.25540016056E+02  0.61583479176E+02  0.41800000000E+01 0. -1.
        -11    1    1    2    0    0  0.66950426303E+01 -0.25226957879E+02  0.18967733050E+02  0.32264499016E+02  0.00000000000E+00 0. -1.
         11    1    1    2    0    0  0.23153454830E+02  0.46916286763E+02 -0.84806907770E+01  0.53001344797E+02  0.00000000000E+00 0.  1.
</event>
<event>
 7    1  0.2693725E-009  0.6740985E+02  0.7561462E-02  0.1369129E+00
         -2   -1    0    0    0  501 -0.00000000000E+00  0.00000000000E+00  0.22014043667E+02  0.22014043667E+02  0.00000000000E+00 0. -1.
          2   -1    0    0  501    0  0.00000000000E+00 -0.00000000000E+00 -0.58515618877E+03  0.58515618877E+03  0.00000000000E+00 0.  1.
         25    2    1    2    0    0 -0.30750947347E+02 -0.16693579685E+02 -0.33984180672E+03  0.36381880922E+03  0.12508947192E+03 0.  0.
          5    1    3    3  502    0  0.17646310835E+02 -0.27600652598E+02 -0.29491398862E+03  0.29675734430E+03  0.41800000000E+01 0. -1.
         -5    1    3    3    0  502 -0.48397258182E+02  0.10907072913E+02 -0.44927818097E+02  0.67061464926E+02  0.41800000000E+01 0. -1.
        -11    1    1    2    0    0 -0.65163163124E+01  0.13020220103E+02  0.22331853384E+01  0.14730092551E+02  0.00000000000E+00 0. -1.
         11    1    1    2    0    0  0.37267263659E+02  0.36733595820E+01 -0.22553352373E+03  0.22862133067E+03  0.00000000000E+00 0.  1.
</event>
<event>
 7    1  0.2693725E-009  0.1043708E+03  0.7561462E-02  0.1271364E+00
          2   -1    0    0  501    0  0.00000000000E+00  0.00000000000E+00  0.92253609685E+03  0.92253609685E+03  0.00000000000E+00 0.  1.
         -2   -1    0    0    0  501 -0.00000000000E+00 -0.00000000000E+00 -0.36087304738E+02  0.36087304738E+02  0.00000000000E+00 0. -1.
         25    2    1    2    0    0  0.60045701789E+02 -0.65619017513E+02  0.78379961328E+03  0.79868747259E+03  0.12509397798E+03 0.  0.
          5    1    3    3  502    0  0.33622566746E+01 -0.18702445412E+02  0.60475201692E+03  0.60506492263E+03  0.41800000000E+01 0.  1.
         -5    1    3    3    0  502  0.56683445114E+02 -0.46916572100E+02  0.17904759636E+03  0.19362254995E+03  0.41800000000E+01 0.  1.
        -11    1    1    2    0    0 -0.55723910291E+02  0.62659400344E+01  0.76705161806E+02  0.95016304024E+02  0.00000000000E+00 0. -1.
         11    1    1    2    0    0 -0.43217914976E+01  0.59353077478E+02  0.25944017027E+02  0.64919624979E+02  0.00000000000E+00 0.  1.
</event>
<event>
 7    1  0.2693725E-009  0.8304926E+02  0.7561462E-02  0.1320614E+00
          1   -1    0    0  501    0  0.00000000000E+00  0.00000000000E+00  0.66870101857E+03  0.66870101857E+03  0.00000000000E+00 0. -1.
         -1   -1    0    0    0  501 -0.00000000000E+00 -0.00000000000E+00 -0.20462307581E+02  0.20462307581E+02  0.00000000000E+00 0.  1.
         25    2    1    2    0    0  0.34386953689E+02 -0.24552716850E+02  0.40916136932E+03  0.42993513745E+03  0.12508356317E+03 0.  0.
          5    1    3    3  502    0  0.42758517066E+02  0.84708909643E+00  0.36753079217E+02  0.56544403557E+02  0.41800000000E+01 0.  1.
         -5    1    3    3    0  502 -0.83715633772E+01 -0.25399805947E+02  0.37240829010E+03  0.37339073389E+03  0.41800000000E+01 0.  1.
        -11    1    1    2    0    0 -0.58004490867E+02  0.37553564399E+02  0.13424915742E+03  0.15098883213E+03  0.00000000000E+00 0.  1.
         11    1    1    2    0    0  0.23617537178E+02 -0.13000847549E+02  0.10482818425E+03  0.10823935657E+03  0.00000000000E+00 0. -1.
</event>
<event>
 7    1  0.2693725E-009  0.2533662E+03  0.7561462E-02  0.1111196E+00
         -2   -1    0    0    0  501 -0.00000000000E+00  0.00000000000E+00  0.24420571799E+03  0.24420571799E+03  0.00000000000E+00 0.  1.
          2   -1    0    0  501    0  0.00000000000E+00 -0.00000000000E+00 -0.32767812228E+03  0.32767812228E+03  0.00000000000E+00 0. -1.
         25    2    1    2    0    0  0.86315988351E+02  0.22634001801E+03  0.55112568675E+02  0.27814688057E+03  0.12509211944E+03 0.  0.
          5    1    3    3  502    0  0.10176246474E+03  0.15160935859E+03 -0.21400058239E+01  0.18265554705E+03  0.41800000000E+01 0.  1.
         -5    1    3    3    0  502 -0.15446476392E+02  0.74730659419E+02  0.57252574499E+02  0.95491333517E+02  0.41800000000E+01 0.  1.
        -11    1    1    2    0    0 -0.54542647620E+02 -0.73329031758E+02 -0.11105804231E+02  0.92061860700E+02  0.00000000000E+00 0.  1.
         11    1    1    2    0    0 -0.31773340731E+02 -0.15301098625E+03 -0.12747916873E+03  0.20167509900E+03  0.00000000000E+00 0. -1.
</event>
<event>
 7    1  0.2693725E-009  0.9360284E+02  0.7561462E-02  0.1294354E+00
         -2   -1    0    0    0  501 -0.00000000000E+00  0.00000000000E+00  0.12824529153E+03  0.12824529153E+03  0.00000000000E+00 0.  1.
          2   -1    0    0  501    0  0.00000000000E+00 -0.00000000000E+00 -0.11247520003E+03  0.11247520003E+03  0.00000000000E+00 0. -1.
         25    2    1    2    0    0 -0.22359017214E+02 -0.14065863620E+02  0.52458189740E+02  0.13819513635E+03  0.12509300487E+03 0.  0.
          5    1    3    3  502    0  0.24764282017E+02 -0.57735728392E+02  0.19789523321E+02  0.65998345661E+02  0.41800000000E+01 0.  1.
         -5    1    3    3    0  502 -0.47123299231E+02  0.43669864771E+02  0.32668666419E+02  0.72196790685E+02  0.41800000000E+01 0.  1.
        -11    1    1    2    0    0  0.39910957264E+02  0.14043006240E+02  0.17334611267E+02  0.45722852948E+02  0.00000000000E+00 0.  1.
         11    1    1    2    0    0 -0.17551940050E+02  0.22857380426E-01 -0.54022709507E+02  0.56802502273E+02  0.00000000000E+00 0. -1.
</event>
<event>
 7    1  0.2693725E-009  0.8196556E+02  0.7561462E-02  0.1323564E+00
          2   -1    0    0  501    0  0.00000000000E+00  0.00000000000E+00  0.43894359981E+03  0.43894359981E+03  0.00000000000E+00 0.  1.
         -2   -1    0    0    0  501 -0.00000000000E+00 -0.00000000000E+00 -0.32565873397E+02  0.32565873397E+02  0.00000000000E+00 0. -1.
         25    2    1    2    0    0  0.43617565437E+02  0.20528824381E+02  0.27516119089E+03  0.30608000556E+03  0.12508942476E+03 0.  0.
          5    1    3    3  502    0  0.26336594256E+02 -0.98875102598E+01 -0.23309048046E+00  0.28441269087E+02  0.41800000000E+01 0.  1.
         -5    1    3    3    0  502  0.17280971181E+02  0.30416334641E+02  0.27539428137E+03  0.27763873647E+03  0.41800000000E+01 0.  1.
        -11    1    1    2    0    0  0.26778953265E+02 -0.12011441431E+02  0.46045942818E+02  0.54604174870E+02  0.00000000000E+00 0.  1.
         11    1    1    2    0    0 -0.70396518703E+02 -0.85173829503E+01  0.85170592703E+02  0.11082529278E+03  0.00000000000E+00 0. -1.
</event>
<event>
 7    1  0.2693725E-009  0.1011901E+03  0.7561462E-02  0.1277813E+00
          2   -1    0    0  501    0  0.00000000000E+00  0.00000000000E+00  0.14299783938E+04  0.14299783938E+04  0.00000000000E+00 0. -1.
         -2   -1    0    0    0  501 -0.00000000000E+00 -0.00000000000E+00 -0.11709189844E+02  0.11709189844E+02  0.00000000000E+00 0.  1.
         25    2    1    2    0    0 -0.59704279662E+02  0.38367414141E+02  0.86665857970E+03  0.87851110195E+03  0.12509197822E+03 0.  0.
          5    1    3    3  502    0 -0.24336202781E+02  0.48464975391E+02  0.12996663506E+03  0.14088968462E+03  0.41800000000E+01 0. -1.
         -5    1    3    3    0  502 -0.35368076881E+02 -0.10097561249E+02  0.73669194464E+03  0.73762141733E+03  0.41800000000E+01 0. -1.
        -11    1    1    2    0    0  0.74927096085E+01 -0.55511678072E+02  0.33800651109E+03  0.34261653293E+03  0.00000000000E+00 0. -1.
         11    1    1    2    0    0  0.52211570054E+02  0.17144263931E+02  0.21360411317E+03  0.22055994876E+03  0.00000000000E+00 0.  1.
</event>
<event>
 7    1  0.2693725E-009  0.1980922E+03  0.7561462E-02  0.1151359E+00
         -1   -1    0    0    0  501 -0.00000000000E+00  0.00000000000E+00  0.59531537084E+02  0.59531537084E+02  0.00000000000E+00 0. -1.
          1   -1    0    0  501    0  0.00000000000E+00 -0.00000000000E+00 -0.11131693202E+04  0.11131693202E+04  0.00000000000E+00 0.  1.
         25    2    1    2    0    0 -0.19987515505E+02  0.19440037521E+03 -0.25228059607E+03  0.34276329606E+03  0.12510064474E+03 0.  0.
          5    1    3    3  502    0  0.56735315788E+01  0.49694997220E+02  0.66150017427E+00  0.50196530674E+02  0.41800000000E+01 0. -1.
         -5    1    3    3    0  502 -0.25661047084E+02  0.14470537799E+03 -0.25294209624E+03  0.29256676538E+03  0.41800000000E+01 0. -1.
        -11    1    1    2    0    0  0.29506615056E+02 -0.10509851153E+03 -0.59430703007E+03  0.60424927261E+03  0.00000000000E+00 0. -1.
         11    1    1    2    0    0 -0.95190995511E+01 -0.89301863680E+02 -0.20705015695E+03  0.22568828859E+03  0.00000000000E+00 0.  1.
</event>
<event>
 7    1  0.2693725E-009  0.1347783E+03  0.7561462E-02  0.1220533E+00
          2   -1    0    0  501    0  0.00000000000E+00  0.00000000000E+00  0.45594762378E+03  0.45594762378E+03  0.00000000000E+00 0. -1.
         -2   -1    0    0    0  501 -0.00000000000E+00 -0.00000000000E+00 -0.62392214562E+02  0.62392214562E+02  0.00000000000E+00 0.  1.
         25    2    1    2    0    0  0.90189290741E+02  0.54562013105E+02  0.95735995690E+02  0.18953671611E+03  0.12509062492E+03 0.  0.
          5    1    3    3  502    0 -0.74146369826E+01  0.52699190415E+02  0.70844108084E+02  0.88704800108E+02  0.41800000000E+01 0.  1.
         -5    1    3    3    0  502  0.97603927724E+02  0.18628226894E+01  0.24891887606E+02  0.10083191600E+03  0.41800000000E+01 0.  1.
        -11    1    1    2    0    0 -0.25585958893E+02 -0.46876278962E+02  0.22457172460E+03  0.23083432655E+03  0.00000000000E+00 0.  1.
         11    1    1    2    0    0 -0.64603331848E+02 -0.76857341430E+01  0.73247688924E+02  0.97968795685E+02  0.00000000000E+00 0. -1.
</event>
<event>
 7    1  0.2693725E-009  0.2838088E+03  0.7561462E-02  0.1093627E+00
         -2   -1    0    0    0  501 -0.00000000000E+00  0.00000000000E+00  0.13772707847E+03  0.13772707847E+03  0.00000000000E+00 0.  1.
          2   -1    0    0  501    0  0.00000000000E+00 -0.00000000000E+00 -0.64678377043E+03  0.64678377043E+03  0.00000000000E+00 0. -1.
         25    2    1    2    0    0 -0.26223861663E+03 -0.64844367641E+02 -0.17515904329E+03  0.34539999917E+03  0.12508630987E+03 0.  0.
          5    1    3    3  502    0 -0.29306182712E+02 -0.51181618083E+02 -0.11165370737E+02  0.60170992001E+02  0.41800000000E+01 0. -1.
         -5    1    3    3    0  502 -0.23293243391E+03 -0.13662749558E+02 -0.16399367255E+03  0.28522900717E+03  0.41800000000E+01 0. -1.
        -11    1    1    2    0    0  0.10696641085E+03  0.53057959515E+02 -0.89098437301E+02  0.14898151445E+03  0.00000000000E+00 0.  1.
         11    1    1    2    0    0  0.15527220578E+03  0.11786408126E+02 -0.24479921137E+03  0.29012933528E+03  0.00000000000E+00 0. -1.
</event>
<event>
 7    1  0.2693725E-009  0.1077712E+03  0.7561462E-02  0.1264754E+00
          1   -1    0    0  501    0  0.00000000000E+00  0.00000000000E+00  0.77868429807E+02  0.77868429807E+02  0.00000000000E+00 0. -1.
         -1   -1    0    0    0  501 -0.00000000000E+00 -0.00000000000E+00 -0.22563564227E+03  0.22563564227E+03  0.00000000000E+00 0.  1.
         25    2    1    2    0    0 -0.58182886833E+02  0.39230790509E+02 -0.11604561193E+03  0.18449414827E+03  0.12508878229E+03 0.  0.
          5    1    3    3  502    0 -0.83838627382E+02 -0.11581928719E+02 -0.82628905650E+02  0.11835567144E+03  0.41800000000E+01 0.  1.
         -5    1    3    3    0  502  0.25655740549E+02  0.50812719228E+02 -0.33416706276E+02  0.66138476826E+02  0.41800000000E+01 0.  1.
        -11    1    1    2    0    0  0.26805770654E+02 -0.31598430796E+02 -0.62112674467E+02  0.74665885775E+02  0.00000000000E+00 0.  1.
         11    1    1    2    0    0  0.31377116179E+02 -0.76323597128E+01  0.30391073929E+02  0.44344038033E+02  0.00000000000E+00 0. -1.
</event>
<event>
 7    1  0.2693725E-009  0.1021296E+03  0.7561462E-02  0.1275880E+00
         -3   -1    0    0    0  501 -0.00000000000E+00  0.00000000000E+00  0.87263597927E+02  0.87263597927E+02  0.00000000000E+00 0.  1.
          3   -1    0    0  501    0  0.00000000000E+00 -0.00000000000E+00 -0.24464815227E+03  0.24464815227E+03  0.00000000000E+00 0. -1.
         25    2    1    2    0    0 -0.18512125591E+02  0.95673232268E+01  0.23729905211E+02  0.12902018743E+03  0.12509543515E+03 0.  0.
          5    1    3    3  502    0 -0.14814386595E+01 -0.51899063371E+02 -0.15098052991E+02  0.54232195635E+02  0.41800000000E+01 0.  1.
         -5    1    3    3    0  502 -0.17030686931E+02  0.61466386597E+02  0.38827958202E+02  0.74787991796E+02  0.41800000000E+01 0.  1.
        -11    1    1    2    0    0  0.58788272423E+01  0.38298506772E+02 -0.53880076392E+02  0.66365645199E+02  0.00000000000E+00 0.  1.
         11    1    1    2    0    0  0.12633298349E+02 -0.47865829999E+02 -0.12723438316E+03  0.13652591756E+03  0.00000000000E+00 0. -1.
</event>
<event>
 7    1  0.2693725E-009  0.3274942E+03  0.7561462E-02  0.1072251E+00
          1   -1    0    0  501    0  0.00000000000E+00  0.00000000000E+00  0.20485273685E+03  0.20485273685E+03  0.00000000000E+00 0. -1.
         -1   -1    0    0    0  501 -0.00000000000E+00 -0.00000000000E+00 -0.66858386991E+03  0.66858386991E+03  0.00000000000E+00 0.  1.
         25    2    1    2    0    0 -0.18360568304E+03 -0.25841658415E+03 -0.50412154722E+02  0.34449521128E+03  0.12508152318E+03 0.  0.
          5    1    3    3  502    0 -0.19156677790E+02 -0.12299326432E+03 -0.41341496009E+02  0.13122847657E+03  0.41800000000E+01 0. -1.
         -5    1    3    3    0  502 -0.16444900525E+03 -0.13542331983E+03 -0.90706587126E+01  0.21326673470E+03  0.41800000000E+01 0. -1.
        -11    1    1    2    0    0  0.15420892479E+03  0.22609919963E+03 -0.29300071385E+03  0.40093722560E+03  0.00000000000E+00 0.  1.
         11    1    1    2    0    0  0.29396758252E+02  0.32317384515E+02 -0.12031826449E+03  0.12800416988E+03  0.00000000000E+00 0. -1.
</event>
<event>
 7    1  0.2693725E-009  0.1193417E+03  0.7561462E-02  0.1244187E+00
          2   -1    0    0  501    0  0.00000000000E+00  0.00000000000E+00  0.65488678248E+03  0.65488678248E+03  0.00000000000E+00 0. -1.
         -2   -1    0    0    0  501 -0.00000000000E+00 -0.00000000000E+00 -0.27617709577E+02  0.27617709577E+02  0.00000000000E+00 0.  1.
         25    2    1    2    0    0  0.59688388396E+02 -0.29638833604E+02  0.45281591718E+03  0.47447937598E+03  0.12508900515E+03 0.  0.
          5    1    3    3  502    0 -0.34380239784E+02 -0.15396179704E+01  0.20467372687E+03  0.20758896450E+03  0.41800000000E+01 0.  1.
         -5    1    3    3    0  502  0.94068628180E+02 -0.28099215634E+02  0.24814219031E+03  0.26689041148E+03  0.41800000000E+01 0.  1.
        -11    1    1    2    0    0  0.12988897106E+02  0.30412004414E+02  0.23760902792E+02  0.40720780469E+02  0.00000000000E+00 0.  1.
         11    1    1    2    0    0 -0.72677285502E+02 -0.77317080968E+00  0.15069225293E+03  0.16730433561E+03  0.00000000000E+00 0. -1.
</event>
<event>
 7    1  0.2693725E-009  0.1623826E+03  0.7561462E-02  0.1186033E+00
          2   -1    0    0  501    0  0.00000000000E+00  0.00000000000E+00  0.11193086485E+04  0.11193086485E+04  0.00000000000E+00 0.  1.
         -2   -1    0    0    0  501 -0.00000000000E+00 -0.00000000000E+00 -0.36907368552E+02  0.36907368552E+02  0.00000000000E+00 0. -1.
         25    2    1    2    0    0  0.11574767211E+03 -0.10964227417E+03  0.75206827073E+03  0.77889288172E+03  0.12509390657E+03 0.  0.
          5    1    3    3  502    0  0.90733473008E+02 -0.97627699106E+02  0.73284346669E+03  0.74487633190E+03  0.41800000000E+01 0. -1.
         -5    1    3    3    0  502  0.25014199107E+02 -0.12014575067E+02  0.19224804047E+02  0.34016549820E+02  0.41800000000E+01 0. -1.
        -11    1    1    2    0    0 -0.38736328812E+02  0.61029292976E+02  0.23332187813E+03  0.24426251572E+03  0.00000000000E+00 0.  1.
         11    1    1    2    0    0 -0.77011343302E+02  0.48612981197E+02  0.97011131083E+02  0.13306061961E+03  0.00000000000E+00 0. -1.
</event>
<event>
 7    1  0.2693725E-009  0.1182401E+03  0.7561462E-02  0.1246029E+00
          1   -1    0    0  501    0  0.00000000000E+00  0.00000000000E+00  0.98912108608E+02  0.98912108608E+02  0.00000000000E+00 0. -1.
         -1   -1    0    0    0  501 -0.00000000000E+00 -0.00000000000E+00 -0.15210546381E+03  0.15210546381E+03  0.00000000000E+00 0.  1.
         25    2    1    2    0    0  0.44075644670E+02 -0.36015847572E+02 -0.33943208710E+02  0.14156540666E+03  0.12509524058E+03 0.  0.
          5    1    3    3  502    0  0.74119267375E+02 -0.56148530472E+02 -0.19512943263E+01  0.93099963587E+02  0.41800000000E+01 0. -1.
         -5    1    3    3    0  502 -0.30043622705E+02  0.20132682900E+02 -0.31991914383E+02  0.48465443069E+02  0.41800000000E+01 0. -1.
        -11    1    1    2    0    0 -0.11635256185E+02  0.63450564223E+02 -0.17895557923E+02  0.66944785309E+02  0.00000000000E+00 0.  1.
         11    1    1    2    0    0 -0.32440388486E+02 -0.27434716651E+02 -0.13545885706E+01  0.42507380454E+02  0.00000000000E+00 0. -1.
</event>
<event>
 7    1  0.2693725E-009  0.2427304E+03  0.7561462E-02  0.1117987E+00
          1   -1    0    0  501    0  0.00000000000E+00  0.00000000000E+00  0.51496626852E+03  0.51496626852E+03  0.00000000000E+00 0. -1.
         -1   -1    0    0    0  501 -0.00000000000E+00 -0.00000000000E+00 -0.13490206674E+03  0.13490206674E+03  0.00000000000E+00 0.  1.
         25    2    1    2    0    0 -0.11744895388E+03  0.20961801347E+03  0.19679849939E+03  0.33482968148E+03  0.12508915980E+03 0.  0.
          5    1    3    3  502    0 -0.85215660659E+02  0.15984320157E+03  0.20636344978E+03  0.27461774108E+03  0.41800000000E+01 0. -1.
         -5    1    3    3    0  502 -0.32233293217E+02  0.49774811900E+02 -0.95649503868E+01  0.60211940404E+02  0.41800000000E+01 0. -1.
        -11    1    1    2    0    0  0.10390546508E+03 -0.14252590235E+03  0.86330758924E+02  0.19637458708E+03  0.00000000000E+00 0.  1.
         11    1    1    2    0    0  0.13543488797E+02 -0.67092111119E+02  0.96934943461E+02  0.11866406671E+03  0.00000000000E+00 0. -1.
</event>
<event>
 7    1  0.2693725E-009  0.1203389E+03  0.7561462E-02  0.1242539E+00
         -2   -1    0    0    0  501 -0.00000000000E+00  0.00000000000E+00  0.30520133129E+02  0.30520133129E+02  0.00000000000E+00 0.  1.
          2   -1    0    0  501    0  0.00000000000E+00 -0.00000000000E+00 -0.67158904176E+03  0.67158904176E+03  0.00000000000E+00 0. -1.
         25    2    1    2    0    0 -0.67576773472E+02 -0.42904405792E+02 -0.44693176366E+03  0.47096305875E+03  0.12510312944E+03 0.  0.
          5    1    3    3  502    0  0.20145688711E+02 -0.10532397892E+02 -0.26831209704E+03  0.26930583728E+03  0.41800000000E+01 0.  1.
         -5    1    3    3    0  502 -0.87722462184E+02 -0.32372007900E+02 -0.17861966662E+03  0.20165722147E+03  0.41800000000E+01 0.  1.
        -11    1    1    2    0    0  0.71776163082E+02 -0.86006497038E+01 -0.95305948450E+02  0.11962028495E+03  0.00000000000E+00 0.  1.
         11    1    1    2    0    0 -0.41993896094E+01  0.51505055496E+02 -0.98831196522E+02  0.11152583118E+03  0.00000000000E+00 0. -1.
</event>
<event>
 7    1  0.2693725E-009  0.9193698E+02  0.7561462E-02  0.1298228E+00
          2   -1    0    0  501    0  0.00000000000E+00  0.00000000000E+00  0.36094559048E+03  0.36094559048E+03  0.00000000000E+00 0.  1.
         -2   -1    0    0    0  501 -0.00000000000E+00 -0.00000000000E+00 -0.31738337053E+02  0.31738337053E+02  0.00000000000E+00 0. -1.
         25    2    1    2    0    0 -0.84001662080E+01  0.53273660977E+01  0.17871309741E+03  0.21836875134E+03  0.12509035435E+03 0.  0.
          5    1    3    3  502    0 -0.61358347791E+02 -0.15906800548E+02  0.63960528636E+02  0.90145963696E+02  0.41800000000E+01 0.  1.
         -5    1    3    3    0  502  0.52958181583E+02  0.21234166645E+02  0.11475256878E+03  0.12822278764E+03  0.41800000000E+01 0.  1.
        -11    1    1    2    0    0  0.25257569775E+02 -0.26145325065E+02  0.20798279919E+02  0.41881873183E+02  0.00000000000E+00 0. -1.
         11    1    1    2    0    0 -0.16857403567E+02  0.20817958968E+02  0.12969587610E+03  0.13243330301E+03  0.00000000000E+00 0.  1.
</event>
<event>
 7    1  0.2693725E-009  0.1158045E+03  0.7561462E-02  0.1250183E+00
          1   -1    0    0  501    0  0.00000000000E+00  0.00000000000E+00  0.60975486964E+03  0.60975486964E+03  0.00000000000E+00 0. -1.
         -1   -1    0    0    0  501 -0.00000000000E+00 -0.00000000000E+00 -0.28372954227E+02  0.28372954227E+02  0.00000000000E+00 0.  1.
         25    2    1    2    0    0 -0.25665091363E+02  0.59830780367E+02  0.43809320326E+03  0.46022545531E+03  0.12507356149E+03 0.  0.
          5    1    3    3  502    0 -0.68310335128E+02  0.47058408744E+02  0.17935715666E+03  0.19765438969E+03  0.41800000000E+01 0. -1.
         -5    1    3    3    0  502  0.42645243765E+02  0.12772371623E+02  0.25873604660E+03  0.26257106563E+03  0.41800000000E+01 0. -1.
        -11    1    1    2    0    0 -0.18937081894E+02 -0.55952298122E+02  0.65921135595E+02  0.88514794549E+02  0.00000000000E+00 0. -1.
         11    1    1    2    0    0  0.44602173257E+02 -0.38784822445E+01  0.77367576563E+02  0.89387574008E+02  0.00000000000E+00 0.  1.
</event>
<event>
 7    1  0.2693725E-009  0.1133962E+03  0.7561462E-02  0.1254407E+00
          2   -1    0    0  501    0  0.00000000000E+00  0.00000000000E+00  0.16370638252E+03  0.16370638252E+03  0.00000000000E+00 0. -1.
         -2   -1    0    0    0  501 -0.00000000000E+00 -0.00000000000E+00 -0.92033353811E+02  0.92033353811E+02  0.00000000000E+00 0.  1.
         25    2    1    2    0    0  0.51025211343E+02 -0.48128675338E+02  0.24810285500E+02  0.14554525715E+03  0.12509168650E+03 0.  0.
          5    1    3    3  502    0  0.40938627945E+02 -0.82696871912E+02  0.46381961379E+02  0.10336103049E+03  0.41800000000E+01 0.  1.
         -5    1    3    3    0  502  0.10086583398E+02  0.34568196574E+02 -0.21571675879E+02  0.42184226664E+02  0.41800000000E+01 0.  1.
        -11    1    1    2    0    0 -0.45109164810E+01 -0.17308377019E+02  0.14234248066E+01  0.17943088382E+02  0.00000000000E+00 0.  1.
         11    1    1    2    0    0 -0.46514294862E+02  0.65437052356E+02  0.45439318405E+02  0.92251390801E+02  0.00000000000E+00 0. -1.
</event>
<event>
 7    1  0.2693725E-009  0.1232839E+03  0.7561462E-02  0.1237776E+00
         -2   -1    0    0    0  501 -0.00000000000E+00  0.00000000000E+00  0.22054853561E+03  0.22054853561E+03  0.00000000000E+00 0.  1.
          2   -1    0    0  501    0  0.00000000000E+00 -0.00000000000E+00 -0.76039099684E+02  0.76039099684E+02  0.00000000000E+00 0. -1.
         25    2    1    2    0    0 -0.45596144989E+02  0.56110032504E+02  0.47638261862E+02  0.15212002801E+03  0.12507499647E+03 0.  0.
          5    1    3    3  502    0 -0.38136723830E+02  0.94986989596E+02  0.45956640291E+02  0.11227832865E+03  0.41800000000E+01 0. -1.
         -5    1    3    3    0  502 -0.74594211586E+01 -0.38876957093E+02  0.16816215705E+01  0.39841699360E+02  0.41800000000E+01 0. -1.
        -11    1    1    2    0    0  0.37897597049E+02  0.88398058457E+01  0.20729335039E+02  0.44091669968E+02  0.00000000000E+00 0. -1.
         11    1    1    2    0    0  0.76985479403E+01 -0.64949838349E+02  0.76141839021E+02  0.10037593731E+03  0.00000000000E+00 0.  1.
</event>
<event>
 7    1  0.2693725E-009  0.1756496E+03  0.7561462E-02  0.1172081E+00
          1   -1    0    0  501    0  0.00000000000E+00  0.00000000000E+00  0.10779667490E+04  0.10779667490E+04  0.00000000000E+00 0. -1.
         -1   -1    0    0    0  501 -0.00000000000E+00 -0.00000000000E+00 -0.37290677472E+02  0.37290677472E+02  0.00000000000E+00 0.  1.
         25    2    1    2    0    0  0.13965770904E+03 -0.31609055976E+01  0.29192804595E+03  0.34696799759E+03  0.12510211955E+03 0.  0.
          5    1    3    3  502    0  0.15613090793E+03  0.20935946177E+02  0.23664177725E+03  0.28430965054E+03  0.41800000000E+01 0.  1.
         -5    1    3    3    0  502 -0.16473198886E+02 -0.24096851774E+02  0.55286268705E+02  0.62658347044E+02  0.41800000000E+01 0.  1.
        -11    1    1    2    0    0 -0.70623826628E+01  0.28388888783E+02  0.64050104276E+02  0.70414644166E+02  0.00000000000E+00 0.  1.
         11    1    1    2    0    0 -0.13259532638E+03 -0.25227983186E+02  0.68469792128E+03  0.69787478470E+03  0.00000000000E+00 0. -1.
</event>
<event>
 7    1  0.2693725E-009  0.1074725E+03  0.7561462E-02  0.1265323E+00
          1   -1    0    0  501    0  0.00000000000E+00  0.00000000000E+00  0.15535659791E+03  0.15535659791E+03  0.00000000000E+00 0. -1.
         -1   -1    0    0    0  501 -0.00000000000E+00 -0.00000000000E+00 -0.10138137093E+03  0.10138137093E+03  0.00000000000E+00 0.  1.
         25    2    1    2    0    0 -0.48146961707E+02 -0.34750337202E+02  0.30261773831E+02  0.14173175717E+03  0.12508557142E+03 0.  0.
          5    1    3    3  502    0 -0.79760429193E+02  0.13111295713E+02  0.16748167670E+02  0.82653527818E+02  0.41800000000E+01 0. -1.
         -5    1    3    3    0  502  0.31613467487E+02 -0.47861632916E+02  0.13513606161E+02  0.59078229352E+02  0.41800000000E+01 0. -1.
        -11    1    1    2    0    0 -0.89942678894E+01  0.11986181012E+02 -0.29878201381E+02  0.33425623523E+02  0.00000000000E+00 0.  1.
         11    1    1    2    0    0  0.57141229596E+02  0.22764156190E+02  0.53591654535E+02  0.81580588148E+02  0.00000000000E+00 0. -1.
</event>
<event>
 7    1  0.2693725E-009  0.9457592E+02  0.7561462E-02  0.1292134E+00
          2   -1    0    0  501    0  0.00000000000E+00  0.00000000000E+00  0.67970722475E+02  0.67970722475E+02  0.00000000000E+00 0. -1.
         -2   -1    0    0    0  501 -0.00000000000E+00 -0.00000000000E+00 -0.20409482391E+03  0.20409482391E+03  0.00000000000E+00 0.  1.
         25    2    1    2    0    0  0.53700028849E+01 -0.85591893072E+00 -0.13032299479E+03  0.18072402390E+03  0.12509004883E+03 0.  0.
          5    1    3    3  502    0  0.20601442317E+02  0.58686811889E+02 -0.52712757939E+02  0.81637421351E+02  0.41800000000E+01 0. -1.
         -5    1    3    3    0  502 -0.15231439432E+02 -0.59542730820E+02 -0.77610236849E+02  0.99086602548E+02  0.41800000000E+01 0. -1.
        -11    1    1    2    0    0  0.27476938021E+02 -0.11941816713E+02 -0.34638147622E+02  0.45797274811E+02  0.00000000000E+00 0.  1.
         11    1    1    2    0    0 -0.32846940906E+02  0.12797735643E+02  0.28837040973E+02  0.45544247678E+02  0.00000000000E+00 0. -1.
</event>
<event>
 7    1  0.2693725E-009  0.1151941E+03  0.7561462E-02  0.1251243E+00
          2   -1    0    0  501    0  0.00000000000E+00  0.00000000000E+00  0.42231418448E+03  0.42231418448E+03  0.00000000000E+00 0. -1.
         -2   -1    0    0    0  501 -0.00000000000E+00 -0.00000000000E+00 -0.49006987195E+02  0.49006987195E+02  0.00000000000E+00 0.  1.
         25    2    1    2    0    0  0.69813173568E+02 -0.41500611693E+02  0.28281009094E+03  0.31972913670E+03  0.12509593657E+03 0.  0.
          5    1    3    3  502    0 -0.12369994947E+02  0.67657236721E+01  0.17561678896E+03  0.17623144088E+03  0.41800000000E+01 0.  1.
         -5    1    3    3    0  502  0.82183168515E+02 -0.48266335365E+02  0.10719330198E+03  0.14349769582E+03  0.41800000000E+01 0.  1.
        -11    1    1    2    0    0 -0.28497504719E+02 -0.27664304076E+02  0.40761468569E+02  0.56911499850E+02  0.00000000000E+00 0. -1.
         11    1    1    2    0    0 -0.41315668849E+02  0.69164915769E+02  0.49735637783E+02  0.94680535125E+02  0.00000000000E+00 0.  1.
</event>
<event>
 7    1  0.2693725E-009  0.1310221E+03  0.7561462E-02  0.1225947E+00
          1   -1    0    0  501    0  0.00000000000E+00  0.00000000000E+00  0.10260935889E+03  0.10260935889E+03  0.00000000000E+00 0. -1.
         -1   -1    0    0    0  501 -0.00000000000E+00 -0.00000000000E+00 -0.20824398262E+03  0.20824398262E+03  0.00000000000E+00 0.  1.
         25    2    1    2    0    0  0.88435160765E+02 -0.14879499775E+02 -0.10263550011E+03  0.18499646498E+03  0.12508984371E+03 0.  0.
          5    1    3    3  502    0  0.26949437736E+02 -0.56015144442E+02 -0.90564508704E+02  0.10992438873E+03  0.41800000000E+01 0. -1.
         -5    1    3    3    0  502  0.61485723029E+02  0.41135644666E+02 -0.12070991407E+02  0.75072076247E+02  0.41800000000E+01 0. -1.
        -11    1    1    2    0    0 -0.53187708364E+01  0.38796002982E+02  0.21231031772E+01  0.39216409036E+02  0.00000000000E+00 0.  1.
         11    1    1    2    0    0 -0.83116389929E+02 -0.23916503207E+02 -0.51222268048E+01  0.86640467496E+02  0.00000000000E+00 0. -1.
</event>
<event>
 7    1  0.2693725E-009  0.1138556E+03  0.7561462E-02  0.1253592E+00
          1   -1    0    0  501    0  0.00000000000E+00  0.00000000000E+00  0.22783911216E+04  0.22783911216E+04  0.00000000000E+00 0. -1.
         -1   -1    0    0    0  501 -0.00000000000E+00 -0.00000000000E+00 -0.10298090411E+02  0.10298090411E+02  0.00000000000E+00 0.  1.
         25    2    1    2    0    0  0.23880771013E+02  0.32177203581E+02  0.19865030877E+04  0.19908409248E+04  0.12508959499E+03 0.  0.
          5    1    3    3  502    0 -0.50374128075E+02  0.24022021008E+01  0.86649595839E+03  0.86797237379E+03  0.41800000000E+01 0. -1.
         -5    1    3    3    0  502  0.74254899088E+02  0.29775001481E+02  0.11200071293E+04  0.11228685510E+04  0.41800000000E+01 0. -1.
        -11    1    1    2    0    0  0.19167908419E+02  0.21095736974E+02  0.87780160161E+02  0.92291902947E+02  0.00000000000E+00 0.  1.
         11    1    1    2    0    0 -0.43048679432E+02 -0.53272940555E+02  0.19380978331E+03  0.20555638424E+03  0.00000000000E+00 0. -1.
</event>
<event>
 7    1  0.2693725E-009  0.3037415E+03  0.7561462E-02  0.1083385E+00
          2   -1    0    0  501    0  0.00000000000E+00  0.00000000000E+00  0.20663813165E+04  0.20663813165E+04  0.00000000000E+00 0. -1.
         -2   -1    0    0    0  501 -0.00000000000E+00 -0.00000000000E+00 -0.52888499477E+02  0.52888499477E+02  0.00000000000E+00 0.  1.
         25    2    1    2    0    0  0.27968880071E+03 -0.10842269852E+03  0.12963246154E+04  0.13364455166E+04  0.12509118037E+03 0.  0.
          5    1    3    3  502    0  0.22123303046E+03 -0.88690018866E+02  0.75852136882E+03  0.79509880680E+03  0.41800000000E+01 0.  1.
         -5    1    3    3    0  502  0.58455770243E+02 -0.19732679653E+02  0.53780324662E+03  0.54134670979E+03  0.41800000000E+01 0.  1.
        -11    1    1    2    0    0 -0.20205463984E+03  0.44981361385E+02  0.40313021777E+03  0.45317035741E+03  0.00000000000E+00 0.  1.
         11    1    1    2    0    0 -0.77634160868E+02  0.63441337134E+02  0.31403798382E+03  0.32965394199E+03  0.00000000000E+00 0. -1.
</event>
<event>
 7    1  0.2693725E-009  0.1373778E+03  0.7561462E-02  0.1216902E+00
         -2   -1    0    0    0  501 -0.00000000000E+00  0.00000000000E+00  0.96926130683E+02  0.96926130683E+02  0.00000000000E+00 0. -1.
          2   -1    0    0  501    0  0.00000000000E+00 -0.00000000000E+00 -0.22946091522E+03  0.22946091522E+03  0.00000000000E+00 0.  1.
         25    2    1    2    0    0  0.55856788310E+02 -0.68469483397E+02 -0.14416827016E+02  0.15382847032E+03  0.12508917788E+03 0.  0.
          5    1    3    3  502    0  0.17973322657E+02  0.36060817676E+02 -0.13049975507E+02  0.42558162079E+02  0.41800000000E+01 0.  1.
         -5    1    3    3    0  502  0.37883465653E+02 -0.10453030107E+03 -0.13668515088E+01  0.11127030824E+03  0.41800000000E+01 0.  1.
        -11    1    1    2    0    0  0.16781084702E+02 -0.70508260050E+01 -0.61623526164E+01  0.19217011757E+02  0.00000000000E+00 0.  1.
         11    1    1    2    0    0 -0.72637873012E+02  0.75520309402E+02 -0.11195560490E+03  0.15334156383E+03  0.00000000000E+00 0. -1.
</event>
<event>
 7    1  0.2693725E-009  0.1009351E+03  0.7561462E-02  0.1278342E+00
          2   -1    0    0  501    0  0.00000000000E+00  0.00000000000E+00  0.59173962228E+03  0.59173962228E+03  0.00000000000E+00 0.  1.
         -2   -1    0    0    0  501 -0.00000000000E+00 -0.00000000000E+00 -0.28283429133E+02  0.28283429133E+02  0.00000000000E+00 0. -1.
         25    2    1    2    0    0 -0.38150599904E+02 -0.18056756089E+02  0.44769966295E+03  0.46675437253E+03  0.12507254438E+03 0.  0.
          5    1    3    3  502    0 -0.45905048487E+02 -0.60726496618E+02  0.17921517075E+03  0.19475762038E+03  0.41800000000E+01 0. -1.
         -5    1    3    3    0  502  0.77544485830E+01  0.42669740529E+02  0.26848449220E+03  0.27199675215E+03  0.41800000000E+01 0. -1.
        -11    1    1    2    0    0  0.57837646019E+02  0.42068959000E+01  0.32234364245E+02  0.66347159008E+02  0.00000000000E+00 0.  1.
         11    1    1    2    0    0 -0.19687046115E+02  0.13849860189E+02  0.83522165955E+02  0.86921519878E+02  0.00000000000E+00 0. -1.
</event>
<event>
 7    1  0.2693725E-009  0.1323789E+03  0.7561462E-02  0.1223968E+00
          4   -1    0    0  501    0  0.00000000000E+00  0.00000000000E+00  0.10191747031E+03  0.10191747031E+03  0.00000000000E+00 0. -1.
         -4   -1    0    0    0  501 -0.00000000000E+00 -0.00000000000E+00 -0.23698514129E+03  0.23698514129E+03  0.00000000000E+00 0.  1.
         25    2    1    2    0    0  0.95744574934E+02  0.15430278208E+02 -0.13131942373E+03  0.20565471448E+03  0.12507579072E+03 0.  0.
          5    1    3    3  502    0  0.68762889911E+02 -0.45768670697E+02 -0.38647763215E+02  0.91291994434E+02  0.41800000000E+01 0.  1.
         -5    1    3    3    0  502  0.26981685023E+02  0.61198948905E+02 -0.92671660512E+02  0.11436272004E+03  0.41800000000E+01 0.  1.
        -11    1    1    2    0    0 -0.96244883918E+02 -0.29727008683E+02 -0.28477286385E+02  0.10467916968E+03  0.00000000000E+00 0.  1.
         11    1    1    2    0    0  0.50030898431E+00  0.14296730476E+02  0.24729039129E+02  0.28568727442E+02  0.00000000000E+00 0. -1.
</event>
<event>
 7    1  0.2693725E-009  0.1511177E+03  0.7561462E-02  0.1199106E+00
         -2   -1    0    0    0  501 -0.00000000000E+00  0.00000000000E+00  0.56256069632E+02  0.56256069632E+02  0.00000000000E+00 0.  1.
          2   -1    0    0  501    0  0.00000000000E+00 -0.00000000000E+00 -0.50689512593E+03  0.50689512593E+03  0.00000000000E+00 0. -1.
         25    2    1    2    0    0 -0.34271651815E+02 -0.10910758408E+03 -0.13992966362E+03  0.21978680524E+03  0.12508764117E+03 0.  0.
          5    1    3    3  502    0 -0.53845784701E+02 -0.12740437482E+03 -0.96929760910E+02  0.16894997545E+03  0.41800000000E+01 0.  1.
         -5    1    3    3    0  502  0.19574132886E+02  0.18296790744E+02 -0.42999902708E+02  0.50836829786E+02  0.41800000000E+01 0.  1.
        -11    1    1    2    0    0  0.33762798502E+02  0.68139589455E+01 -0.34195985969E+02  0.48535781189E+02  0.00000000000E+00 0.  1.
         11    1    1    2    0    0  0.50885331370E+00  0.10229362513E+03 -0.27651340671E+03  0.29482860914E+03  0.00000000000E+00 0. -1.
</event>
<event>
 7    1  0.2693725E-009  0.1011257E+03  0.7561462E-02  0.1277946E+00
         -1   -1    0    0    0  501 -0.00000000000E+00  0.00000000000E+00  0.52014764326E+02  0.52014764326E+02  0.00000000000E+00 0.  1.
          1   -1    0    0  501    0  0.00000000000E+00 -0.00000000000E+00 -0.23861814939E+03  0.23861814939E+03  0.00000000000E+00 0. -1.
         25    2    1    2    0    0  0.10647042692E+02  0.68262905817E+01 -0.13769601097E+03  0.18645818181E+03  0.12508598788E+03 0.  0.
          5    1    3    3  502    0  0.14978177221E+02  0.57349138866E+02 -0.11758839515E+03  0.13174889979E+03  0.41800000000E+01 0. -1.
         -5    1    3    3    0  502 -0.43311345288E+01 -0.50522848284E+02 -0.20107615819E+02  0.54709282019E+02  0.41800000000E+01 0. -1.
        -11    1    1    2    0    0 -0.36439865136E+01 -0.49032600576E+02 -0.27466290529E+02  0.56319372088E+02  0.00000000000E+00 0. -1.
         11    1    1    2    0    0 -0.70030561785E+01  0.42206309994E+02 -0.21441083568E+02  0.47855359822E+02  0.00000000000E+00 0.  1.
</event>
<event>
 7    1  0.2693725E-009  0.1696917E+03  0.7561462E-02  0.1178170E+00
         -1   -1    0    0    0  501 -0.00000000000E+00  0.00000000000E+00  0.14284691000E+02  0.14284691000E+02  0.00000000000E+00 0.  1.
          1   -1    0    0  501    0  0.00000000000E+00 -0.00000000000E+00 -0.21295229256E+04  0.21295229256E+04  0.00000000000E+00 0. -1.
         25    2    1    2    0    0 -0.58508364024E+02 -0.11698730954E+03 -0.13379979166E+04  0.13501838577E+04  0.12509502664E+03 0.  0.
          5    1    3    3  502    0 -0.73657526519E+02 -0.12604810382E+02 -0.60941745709E+03  0.61399627187E+03  0.41800000000E+01 0.  1.
         -5    1    3    3    0  502  0.15149162495E+02 -0.10438249915E+03 -0.72858045947E+03  0.73618758586E+03  0.41800000000E+01 0.  1.
        -11    1    1    2    0    0 -0.10253983274E+02  0.80472466668E+02 -0.44960146947E+03  0.45686151448E+03  0.00000000000E+00 0.  1.
         11    1    1    2    0    0  0.68762347298E+02  0.36514842868E+02 -0.32763884856E+03  0.33676224438E+03  0.00000000000E+00 0. -1.
</event>
<event>
 7    1  0.2693725E-009  0.6883293E+02  0.7561462E-02  0.1364107E+00
          1   -1    0    0  501    0  0.00000000000E+00  0.00000000000E+00  0.33917900409E+03  0.33917900409E+03  0.00000000000E+00 0. -1.
         -1   -1    0    0    0  501 -0.00000000000E+00 -0.00000000000E+00 -0.45527842475E+02  0.45527842475E+02  0.00000000000E+00 0.  1.
         25    2    1    2    0    0  0.21077192474E+02  0.46282344223E+02  0.19754786680E+03  0.23928872676E+03  0.12509049383E+03 0.  0.
          5    1    3    3  502    0  0.33289976781E+02  0.25264986340E+02  0.18481350174E+01  0.42040814596E+02  0.41800000000E+01 0. -1.
         -5    1    3    3    0  502 -0.12212784307E+02  0.21017357882E+02  0.19569973178E+03  0.19724791216E+03  0.41800000000E+01 0. -1.
        -11    1    1    2    0    0 -0.36741814141E+02 -0.24462598482E+02 -0.15203833223E+01  0.44166629895E+02  0.00000000000E+00 0.  1.
         11    1    1    2    0    0  0.15664621666E+02 -0.21819745741E+02  0.97623678139E+02  0.10125148991E+03  0.00000000000E+00 0. -1.
</event>
<event>
 7    1  0.2693725E-009  0.8472832E+02  0.7561462E-02  0.1316145E+00
          1   -1    0    0  501    0  0.00000000000E+00  0.00000000000E+00  0.21905842251E+04  0.21905842251E+04  0.00000000000E+00 0. -1.
         -1   -1    0    0    0  501 -0.00000000000E+00 -0.00000000000E+00 -0.39024530555E+02  0.39024530555E+02  0.00000000000E+00 0.  1.
         25    2    1    2    0    0 -0.38917617080E+02 -0.57182757747E+01  0.21197772712E+04  0.21238296432E+04  0.12509753900E+03 0.  0.
          5    1    3    3  502    0 -0.79545313301E+02 -0.19738923994E+01  0.17443270779E+04  0.17461459791E+04  0.41800000000E+01 0.  1.
         -5    1    3    3    0  502  0.40627696221E+02 -0.37443833753E+01  0.37545019329E+03  0.37768366413E+03  0.41800000000E+01 0.  1.
        -11    1    1    2    0    0  0.31496171543E+02 -0.85888591719E+01  0.62825535662E+02  0.70801308286E+02  0.00000000000E+00 0. -1.
         11    1    1    2    0    0  0.74214455371E+01  0.14307134947E+02 -0.31043112299E+02  0.34977804183E+02  0.00000000000E+00 0.  1.
</event>
<event>
 7    1  0.2693725E-009  0.1406299E+03  0.7561462E-02  0.1212484E+00
          2   -1    0    0  501    0  0.00000000000E+00  0.00000000000E+00  0.53457650742E+03  0.53457650742E+03  0.00000000000E+00 0.  1.
         -2   -1    0    0    0  501 -0.00000000000E+00 -0.00000000000E+00 -0.47606790514E+02  0.47606790514E+02  0.00000000000E+00 0. -1.
         25    2    1    2    0    0 -0.30807649909E+02 -0.10880878664E+03  0.30938201783E+03  0.35235396020E+03  0.12509043514E+03 0.  0.
          5    1    3    3  502    0 -0.65899510080E+02 -0.15446646230E+02  0.10679470604E+03  0.12650662412E+03  0.41800000000E+01 0. -1.
         -5    1    3    3    0  502  0.35091860170E+02 -0.93362140407E+02  0.20258731180E+03  0.22584733607E+03  0.41800000000E+01 0. -1.
        -11    1    1    2    0    0  0.12560855239E+02  0.64283580285E+02  0.25461125399E+02  0.70273911839E+02  0.00000000000E+00 0. -1.
         11    1    1    2    0    0  0.18246794670E+02  0.44525206353E+02  0.15212657367E+03  0.15955542590E+03  0.00000000000E+00 0.  1.
</event>
<event>
 7    1  0.2693725E-009  0.1085534E+03  0.7561462E-02  0.1263273E+00
          2   -1    0    0  501    0  0.00000000000E+00  0.00000000000E+00  0.25617815958E+03  0.25617815958E+03  0.00000000000E+00 0.  1.
         -2   -1    0    0    0  501 -0.00000000000E+00 -0.00000000000E+00 -0.60534966282E+02  0.60534966282E+02  0.00000000000E+00 0. -1.
         25    2    1    2    0    0  0.13004710395E+02 -0.23800932423E+02  0.17949732656E+03  0.22045952319E+03  0.12508998459E+03 0.  0.
          5    1    3    3  502    0  0.70959274939E+01  0.50712565394E+02  0.55621430302E+02  0.75718771680E+02  0.41800000000E+01 0. -1.
         -5    1    3    3    0  502  0.59087829010E+01 -0.74513497817E+02  0.12387589626E+03  0.14474075151E+03  0.41800000000E+01 0. -1.
        -11    1    1    2    0    0 -0.24821229507E+02 -0.28183362557E+02  0.20463670524E+02  0.42768647051E+02  0.00000000000E+00 0.  1.
         11    1    1    2    0    0  0.11816519112E+02  0.51984294980E+02 -0.43178037899E+01  0.53484955624E+02  0.00000000000E+00 0. -1.
</event>
<event>
 7    1  0.2693725E-009  0.1422867E+03  0.7561462E-02  0.1210285E+00
         -2   -1    0    0    0  501 -0.00000000000E+00  0.00000000000E+00  0.24171922300E+02  0.24171922300E+02  0.00000000000E+00 0. -1.
          2   -1    0    0  501    0  0.00000000000E+00 -0.00000000000E+00 -0.93255062813E+03  0.93255062813E+03  0.00000000000E+00 0.  1.
         25    2    1    2    0    0 -0.87661705054E+02 -0.54177588637E+02 -0.44508420433E+03  0.47367407428E+03  0.12508954415E+03 0.  0.
          5    1    3    3  502    0  0.24796209324E+02  0.14931458890E+02 -0.64266006015E+02  0.70607311169E+02  0.41800000000E+01 0. -1.
         -5    1    3    3    0  502 -0.11245791438E+03 -0.69109047527E+02 -0.38081819831E+03  0.40306676311E+03  0.41800000000E+01 0. -1.
        -11    1    1    2    0    0  0.55828973144E+02 -0.50185741609E+01 -0.11045434384E+03  0.12386372512E+03  0.00000000000E+00 0. -1.
         11    1    1    2    0    0  0.31832731909E+02  0.59196162798E+02 -0.35284015767E+03  0.35918475103E+03  0.00000000000E+00 0.  1.
</event>
<event>
 7    1  0.2693725E-009  0.2716751E+03  0.7561462E-02  0.1100325E+00
         -2   -1    0    0    0  501 -0.00000000000E+00  0.00000000000E+00  0.10915671574E+03  0.10915671574E+03  0.00000000000E+00 0. -1.
          2   -1    0    0  501    0  0.00000000000E+00 -0.00000000000E+00 -0.10765071572E+04  0.10765071572E+04  0.00000000000E+00 0.  1.
         25    2    1    2    0    0 -0.21886873796E+03  0.12042677443E+03 -0.13175599877E+03  0.30888927415E+03  0.12508720163E+03 0.  0.
          5    1    3    3  502    0 -0.73010269376E+02  0.11111489815E+03 -0.67716514855E+02  0.14926492826E+03  0.41800000000E+01 0. -1.
         -5    1    3    3    0  502 -0.14585846859E+03  0.93118762846E+01 -0.64039483920E+02  0.15962434589E+03  0.41800000000E+01 0. -1.
        -11    1    1    2    0    0  0.24873219817E+02  0.13575880907E+02 -0.12158375635E+03  0.12484226613E+03  0.00000000000E+00 0.  1.
         11    1    1    2    0    0  0.19399551815E+03 -0.13400265534E+03 -0.71401068629E+03  0.75193233261E+03  0.00000000000E+00 0. -1.
</event>
<event>
 7    1  0.2693725E-009  0.1093829E+03  0.7561462E-02  0.1261717E+00
         -2   -1    0    0    0  501 -0.00000000000E+00  0.00000000000E+00  0.10908996733E+03  0.10908996733E+03  0.00000000000E+00 0. -1.
          2   -1    0    0  501    0  0.00000000000E+00 -0.00000000000E+00 -0.13160532339E+03  0.13160532339E+03  0.00000000000E+00 0.  1.
         25    2    1    2    0    0  0.37086888908E+02 -0.20539697904E+02  0.18626396337E+02  0.13338828162E+03  0.12509266371E+03 0.  0.
          5    1    3    3  502    0  0.52224943960E+01  0.51175913776E+02 -0.35467519468E+01  0.51732972541E+02  0.41800000000E+01 0.  1.
         -5    1    3    3    0  502  0.31864394512E+02 -0.71715611680E+02  0.22173148284E+02  0.81655309081E+02  0.41800000000E+01 0.  1.
        -11    1    1    2    0    0 -0.55229815478E+02  0.34983343027E+02 -0.50183048092E+02  0.82416655616E+02  0.00000000000E+00 0.  1.
         11    1    1    2    0    0  0.18142926570E+02 -0.14443645123E+02  0.90412956905E+01  0.24890353488E+02  0.00000000000E+00 0. -1.
</event>
<event>
 7    1  0.2693725E-009  0.1318284E+03  0.7561462E-02  0.1224768E+00
          2   -1    0    0  501    0  0.00000000000E+00  0.00000000000E+00  0.52788875895E+03  0.52788875895E+03  0.00000000000E+00 0. -1.
         -2   -1    0    0    0  501 -0.00000000000E+00 -0.00000000000E+00 -0.44587305316E+02  0.44587305316E+02  0.00000000000E+00 0.  1.
         25    2    1    2    0    0  0.63718057291E+02  0.70810803623E+02  0.35811892577E+03  0.39111522604E+03  0.12509114399E+03 0.  0.
          5    1    3    3  502    0 -0.25478798150E+02 -0.25865844854E+01  0.15713741966E+03  0.15926550358E+03  0.41800000000E+01 0. -1.
         -5    1    3    3    0  502  0.89196855441E+02  0.73397388109E+02  0.20098150611E+03  0.23184972245E+03  0.41800000000E+01 0. -1.
        -11    1    1    2    0    0 -0.29441370759E+01  0.15934097166E+02 -0.14553670013E+01  0.16269034658E+02  0.00000000000E+00 0. -1.
         11    1    1    2    0    0 -0.60773920215E+02 -0.86744900789E+02  0.12663789486E+03  0.16509180357E+03  0.00000000000E+00 0.  1.
</event>
<event>
 7    1  0.2693725E-009  0.1270676E+03  0.7561462E-02  0.1231873E+00
         -2   -1    0    0    0  501 -0.00000000000E+00  0.00000000000E+00  0.15071911261E+02  0.15071911261E+02  0.00000000000E+00 0.  1.
          2   -1    0    0  501    0  0.00000000000E+00 -0.00000000000E+00 -0.26873670372E+04  0.26873670372E+04  0.00000000000E+00 0. -1.
         25    2    1    2    0    0  0.14392595002E+02 -0.10105517610E+03 -0.23751547776E+04  0.23806356366E+04  0.12508605601E+03 0.  0.
          5    1    3    3  502    0 -0.30615348741E+02 -0.73706416775E+02 -0.68359939201E+03  0.68825542977E+03  0.41800000000E+01 0. -1.
         -5    1    3    3    0  502  0.45007943743E+02 -0.27348759328E+02 -0.16915553855E+04  0.16923802068E+04  0.41800000000E+01 0. -1.
        -11    1    1    2    0    0  0.14730007724E+02  0.88417628238E+02 -0.19044259375E+03  0.21048285352E+03  0.00000000000E+00 0. -1.
         11    1    1    2    0    0 -0.29122602726E+02  0.12637547865E+02 -0.10669775459E+03  0.11132045831E+03  0.00000000000E+00 0.  1.
</event>
<event>
 7    1  0.2693725E-009  0.1377456E+03  0.7561462E-02  0.1216395E+00
          2   -1    0    0  501    0  0.00000000000E+00  0.00000000000E+00  0.10454813983E+04  0.10454813983E+04  0.00000000000E+00 0.  1.
         -2   -1    0    0    0  501 -0.00000000000E+00 -0.00000000000E+00 -0.28729792051E+02  0.28729792051E+02  0.00000000000E+00 0. -1.
         25    2    1    2    0    0  0.56101417916E+02 -0.12026964857E+03  0.63934091509E+03  0.66484336442E+03  0.12509091114E+03 0.  0.
          5    1    3    3  502    0  0.35420519099E+02 -0.69225741499E+02  0.57412069007E+03  0.57937799029E+03  0.41800000000E+01 0. -1.
         -5    1    3    3    0  502  0.20680898817E+02 -0.51043907068E+02  0.65220225014E+02  0.85465374132E+02  0.41800000000E+01 0. -1.
        -11    1    1    2    0    0 -0.41349095202E+02  0.30422962505E+02  0.59056953488E+02  0.78249780044E+02  0.00000000000E+00 0. -1.
         11    1    1    2    0    0 -0.14752322714E+02  0.89846686062E+02  0.31835373766E+03  0.33111804587E+03  0.00000000000E+00 0.  1.
</event>
<event>
 7    1  0.2693725E-009  0.2428114E+03  0.7561462E-02  0.1117934E+00
          2   -1    0    0  501    0  0.00000000000E+00  0.00000000000E+00  0.16537461308E+03  0.16537461308E+03  0.00000000000E+00 0.  1.
         -2   -1    0    0    0  501 -0.00000000000E+00 -0.00000000000E+00 -0.38228925399E+03  0.38228925399E+03  0.00000000000E+00 0. -1.
         25    2    1    2    0    0 -0.22468688227E+03 -0.11828887199E+02 -0.14168694345E+03  0.29384756364E+03  0.12508830112E+03 0.  0.
          5    1    3    3  502    0 -0.17553655243E+03  0.43155184921E+02 -0.11944895892E+03  0.21670481631E+03  0.41800000000E+01 0. -1.
         -5    1    3    3    0  502 -0.49150329839E+02 -0.54984072120E+02 -0.22237984531E+02  0.77142747333E+02  0.41800000000E+01 0. -1.
        -11    1    1    2    0    0  0.10704789500E+03 -0.20388191022E+02 -0.74210464820E+02  0.13184128051E+03  0.00000000000E+00 0.  1.
         11    1    1    2    0    0  0.11763898726E+03  0.32217078220E+02 -0.10172326392E+01  0.12197502292E+03  0.00000000000E+00 0. -1.
</event>
<event>
 7    1  0.2693725E-009  0.1030457E+03  0.7561462E-02  0.1274019E+00
         -2   -1    0    0    0  501 -0.00000000000E+00  0.00000000000E+00  0.28184085058E+03  0.28184085058E+03  0.00000000000E+00 0.  1.
          2   -1    0    0  501    0  0.00000000000E+00 -0.00000000000E+00 -0.60813266322E+02  0.60813266322E+02  0.00000000000E+00 0. -1.
         25    2    1    2    0    0  0.12428149282E+02 -0.16999042057E+02  0.29537904160E+02  0.13024301202E+03  0.12508928040E+03 0.  0.
          5    1    3    3  502    0  0.12089216194E+01 -0.64772645879E+02 -0.11752169607E+02  0.65973805682E+02  0.41800000000E+01 0.  1.
         -5    1    3    3    0  502  0.11219227663E+02  0.47773603822E+02  0.41290073767E+02  0.64269206337E+02  0.41800000000E+01 0.  1.
        -11    1    1    2    0    0 -0.81988430620E+01 -0.36928926123E+02  0.77933949244E+02  0.86629481454E+02  0.00000000000E+00 0.  1.
         11    1    1    2    0    0 -0.42293062201E+01  0.53927968180E+02  0.11355573085E+03  0.12578162343E+03  0.00000000000E+00 0. -1.
</event>
<event>
 7    1  0.2693725E-009  0.9911462E+02  0.7561462E-02  0.1282169E+00
         -2   -1    0    0    0  501 -0.00000000000E+00  0.00000000000E+00  0.64495672741E+02  0.64495672741E+02  0.00000000000E+00 0.  1.
          2   -1    0    0  501    0  0.00000000000E+00 -0.00000000000E+00 -0.21858348497E+03  0.21858348497E+03  0.00000000000E+00 0. -1.
         25    2    1    2    0    0  0.41971165526E+02 -0.24486561923E+01 -0.11446028916E+03  0.17468724288E+03  0.12508757083E+03 0.  0.
          5    1    3    3  502    0  0.54018472985E+02  0.31353633540E+02 -0.12259787595E+03  0.13765448539E+03  0.41800000000E+01 0.  1.
         -5    1    3    3    0  502 -0.12047307458E+02 -0.33802289732E+02  0.81375867954E+01  0.37032757485E+02  0.41800000000E+01 0.  1.
        -11    1    1    2    0    0 -0.46942140526E+02  0.39970468902E+02 -0.15728456194E+02  0.63628509928E+02  0.00000000000E+00 0.  1.
         11    1    1    2    0    0  0.49709749992E+01 -0.37521812709E+02 -0.23899066879E+02  0.44763404910E+02  0.00000000000E+00 0. -1.
</event>
<event>
 7    1  0.2693725E-009  0.8500892E+02  0.7561462E-02  0.1315409E+00
         -1   -1    0    0    0  501 -0.00000000000E+00  0.00000000000E+00  0.16245871868E+03  0.16245871868E+03  0.00000000000E+00 0.  1.
          1   -1    0    0  501    0  0.00000000000E+00 -0.00000000000E+00 -0.80668288981E+02  0.80668288981E+02  0.00000000000E+00 0. -1.
         25    2    1    2    0    0  0.58627181479E+01  0.31092307566E+02  0.68621335639E+02  0.14614743119E+03  0.12509628645E+03 0.  0.
          5    1    3    3  502    0  0.31008792356E+02 -0.37878184868E+02  0.50418383257E+02  0.70397356928E+02  0.41800000000E+01 0. -1.
         -5    1    3    3    0  502 -0.25146074208E+02  0.68970492434E+02  0.18202952382E+02  0.75750074258E+02  0.41800000000E+01 0. -1.
        -11    1    1    2    0    0 -0.20293078126E+02 -0.23507345095E+02 -0.34607492243E+02  0.46498202251E+02  0.00000000000E+00 0. -1.
         11    1    1    2    0    0  0.14430359978E+02 -0.75849624712E+01  0.47776586300E+02  0.50481374221E+02  0.00000000000E+00 0.  1.
</event>
<event>
 7    1  0.2693725E-009  0.1045422E+03  0.7561462E-02  0.1271024E+00
         -1   -1    0    0    0  501 -0.00000000000E+00  0.00000000000E+00  0.96419156040E+02  0.96419156040E+02  0.00000000000E+00 0.  1.
          1   -1    0    0  501    0  0.00000000000E+00 -0.00000000000E+00 -0.12995135783E+03  0.12995135783E+03  0.00000000000E+00 0. -1.
         25    2    1    2    0    0  0.41805946519E+01 -0.63434870930E+01 -0.50082133451E+02  0.13495944255E+03  0.12509242120E+03 0.  0.
          5    1    3    3  502    0 -0.25942774389E+02 -0.58930184935E+02 -0.23850658975E+02  0.68790410473E+02  0.41800000000E+01 0.  1.
         -5    1    3    3    0  502  0.30123369041E+02  0.52586697842E+02 -0.26231474475E+02  0.66169032073E+02  0.41800000000E+01 0.  1.
        -11    1    1    2    0    0  0.11878472980E+02 -0.36327758430E+02  0.24118451211E+02  0.45194068656E+02  0.00000000000E+00 0.  1.
         11    1    1    2    0    0 -0.16059067632E+02  0.42671245523E+02 -0.75685195536E+01  0.46217002671E+02  0.00000000000E+00 0. -1.
</event>
<event>
 7    1  0.2693725E-009  0.1776494E+03  0.7561462E-02  0.1170098E+00
          1   -1    0    0  501    0  0.00000000000E+00  0.00000000000E+00  0.46161302036E+03  0.46161302036E+03  0.00000000000E+00 0. -1.
         -1   -1    0    0    0  501 -0.00000000000E+00 -0.00000000000E+00 -0.47756156760E+03  0.47756156760E+03  0.00000000000E+00 0.  1.
         25    2    1    2    0    0  0.14533199830E+03 -0.68253186831E+02 -0.43590256955E+03  0.48108065345E+03  0.12509059814E+03 0.  0.
          5    1    3    3  502    0  0.33376529496E+02  0.17302095154E+02 -0.22003616307E+03  0.22326383647E+03  0.41800000000E+01 0.  1.
         -5    1    3    3    0  502  0.11195546881E+03 -0.85555281985E+02 -0.21586640649E+03  0.25781681698E+03  0.41800000000E+01 0.  1.
        -11    1    1    2    0    0 -0.31806450016E+02  0.53206901695E+02  0.20976371327E+03  0.21873143362E+03  0.00000000000E+00 0.  1.
         11    1    1    2    0    0 -0.11352554829E+03  0.15046285136E+02  0.21019030905E+03  0.23936250088E+03  0.00000000000E+00 0. -1.
</event>
<event>
 7    1  0.2693725E-009  0.5155810E+02  0.7561462E-02  0.1437114E+00
         -1   -1    0    0    0  501 -0.00000000000E+00  0.00000000000E+00  0.87831925889E+02  0.87831925889E+02  0.00000000000E+00 0.  1.
          1   -1    0    0  501    0  0.00000000000E+00 -0.00000000000E+00 -0.14373596322E+03  0.14373596322E+03  0.00000000000E+00 0. -1.
         25    2    1    2    0    0  0.23163591852E+02  0.68148174538E+01 -0.31560780632E+02  0.13125054814E+03  0.12509048641E+03 0.  0.
          5    1    3    3  502    0 -0.13952826197E+02  0.60905618852E+00  0.44207097114E+02  0.46548814631E+02  0.41800000000E+01 0. -1.
         -5    1    3    3    0  502  0.37116418049E+02  0.62057612653E+01 -0.75767877746E+02  0.84701733511E+02  0.41800000000E+01 0. -1.
        -11    1    1    2    0    0  0.73746770701E+01  0.12519945026E+02  0.30988662637E+02  0.34226190226E+02  0.00000000000E+00 0.  1.
         11    1    1    2    0    0 -0.30538268922E+02 -0.19334762480E+02 -0.55331919339E+02  0.66091150744E+02  0.00000000000E+00 0. -1.
</event>
<event>
 7    1  0.2693725E-009  0.1011442E+03  0.7561462E-02  0.1277908E+00
         -1   -1    0    0    0  501 -0.00000000000E+00  0.00000000000E+00  0.59792617383E+03  0.59792617383E+03  0.00000000000E+00 0.  1.
          1   -1    0    0  501    0  0.00000000000E+00 -0.00000000000E+00 -0.28174055365E+02  0.28174055365E+02  0.00000000000E+00 0. -1.
         25    2    1    2    0    0 -0.59191207313E+01  0.64957231190E+02  0.39425575433E+03  0.41873628052E+03  0.12509194590E+03 0.  0.
          5    1    3    3  502    0  0.38601548191E+02  0.10180667574E+02  0.37136430041E+02  0.54683748511E+02  0.41800000000E+01 0.  1.
         -5    1    3    3    0  502 -0.44520668923E+02  0.54776563615E+02  0.35711932429E+03  0.36405253201E+03  0.41800000000E+01 0.  1.
        -11    1    1    2    0    0  0.21120947577E+02  0.34156440788E+01  0.10797834142E+03  0.11007762382E+03  0.00000000000E+00 0.  1.
         11    1    1    2    0    0 -0.15201826846E+02 -0.68372875268E+02  0.67518022725E+02  0.97286324859E+02  0.00000000000E+00 0. -1.
</event>
<event>
 7    1  0.2693725E-009  0.1662095E+03  0.7561462E-02  0.1181859E+00
         -1   -1    0    0    0  501 -0.00000000000E+00  0.00000000000E+00  0.91735001953E+02  0.91735001953E+02  0.00000000000E+00 0.  1.
          1   -1    0    0  501    0  0.00000000000E+00 -0.00000000000E+00 -0.32842176809E+03  0.32842176809E+03  0.00000000000E+00 0. -1.
         25    2    1    2    0    0 -0.27299175411E+02  0.13738758497E+03 -0.12923016481E+03  0.22796618465E+03  0.12509017693E+03 0.  0.
          5    1    3    3  502    0 -0.67842150729E+02  0.79621732032E+02 -0.35458907020E+02  0.11053046691E+03  0.41800000000E+01 0.  1.
         -5    1    3    3    0  502  0.40542975319E+02  0.57765852936E+02 -0.93771257794E+02  0.11743571774E+03  0.41800000000E+01 0.  1.
        -11    1    1    2    0    0 -0.23026276965E+02 -0.64273120338E+02 -0.63087948497E+02  0.92958768680E+02  0.00000000000E+00 0. -1.
         11    1    1    2    0    0  0.50325452376E+02 -0.73114464630E+02 -0.44368652823E+02  0.99231816713E+02  0.00000000000E+00 0.  1.
</event>
<event>
 7    1  0.2693725E-009  0.1490241E+03  0.7561462E-02  0.1201677E+00
         -2   -1    0    0    0  501 -0.00000000000E+00  0.00000000000E+00  0.67819698486E+03  0.67819698486E+03  0.00000000000E+00 0.  1.
          2   -1    0    0  501    0  0.00000000000E+00 -0.00000000000E+00 -0.56528733213E+02  0.56528733213E+02  0.00000000000E+00 0. -1.
         25    2    1    2    0    0 -0.92778647629E+02 -0.67825964821E+02  0.54009244167E+03  0.56617629148E+03  0.12509000170E+03 0.  0.
          5    1    3    3  502    0 -0.10008453526E+03 -0.94282709833E+01  0.42612141094E+03  0.43783870975E+03  0.41800000000E+01 0. -1.
         -5    1    3    3    0  502  0.73058876293E+01 -0.58397693837E+02  0.11397103073E+03  0.12833758174E+03  0.41800000000E+01 0. -1.
        -11    1    1    2    0    0  0.81709620483E+02  0.13288572476E+02  0.76417002915E+02  0.11266146889E+03  0.00000000000E+00 0.  1.
         11    1    1    2    0    0  0.11069027146E+02  0.54537392345E+02  0.51588070596E+01  0.55887957701E+02  0.00000000000E+00 0. -1.
</event>
<event>
 7    1  0.2693725E-009  0.6855923E+02  0.7561462E-02  0.1365062E+00
         -1   -1    0    0    0  501 -0.00000000000E+00  0.00000000000E+00  0.56389767095E+02  0.56389767095E+02  0.00000000000E+00 0.  1.
          1   -1    0    0  501    0  0.00000000000E+00 -0.00000000000E+00 -0.24595143884E+03  0.24595143884E+03  0.00000000000E+00 0. -1.
         25    2    1    2    0    0 -0.12902810648E+02 -0.37329154809E+02 -0.13896564884E+03  0.19109893886E+03  0.12508958612E+03 0.  0.
          5    1    3    3  502    0 -0.24984810955E+02  0.13713583248E+02  0.12015331842E+02  0.31211275898E+02  0.41800000000E+01 0. -1.
         -5    1    3    3    0  502  0.12082000306E+02 -0.51042738057E+02 -0.15098098068E+03  0.15988766296E+03  0.41800000000E+01 0. -1.
        -11    1    1    2    0    0 -0.92164115926E+01  0.31497374359E+02 -0.72493356736E+02  0.79575835560E+02  0.00000000000E+00 0. -1.
         11    1    1    2    0    0  0.22119222241E+02  0.58317804502E+01  0.21897333833E+02  0.31666431512E+02  0.00000000000E+00 0.  1.
</event>
<event>
 7    1  0.2693725E-009  0.2363011E+03  0.7561462E-02  0.1122282E+00
         -1   -1    0    0    0  501 -0.00000000000E+00  0.00000000000E+00  0.86078489677E+03  0.86078489677E+03  0.00000000000E+00 0.  1.
          1   -1    0    0  501    0  0.00000000000E+00 -0.00000000000E+00 -0.70763319333E+02  0.70763319333E+02  0.00000000000E+00 0. -1.
         25    2    1    2    0    0 -0.77497243844E+02  0.20625873129E+03  0.38189539027E+03  0.45830047156E+03  0.12508695408E+03 0.  0.
          5    1    3    3  502    0 -0.58594472399E+02  0.21755094691E+03  0.36921651294E+03  0.43255061268E+03  0.41800000000E+01 0.  1.
         -5    1    3    3    0  502 -0.18902771445E+02 -0.11292215624E+02  0.12678877333E+02  0.25749858881E+02  0.41800000000E+01 0.  1.
        -11    1    1    2    0    0  0.20707159188E+02 -0.11864577687E+03  0.13537631448E+03  0.18119700144E+03  0.00000000000E+00 0. -1.
         11    1    1    2    0    0  0.56790084656E+02 -0.87612954421E+02  0.27274987268E+03  0.29205074310E+03  0.00000000000E+00 0.  1.
</event>
<event>
 7    1  0.2693725E-009  0.1326739E+03  0.7561462E-02  0.1223541E+00
          2   -1    0    0  501    0  0.00000000000E+00  0.00000000000E+00  0.60049426839E+03  0.60049426839E+03  0.00000000000E+00 0. -1.
         -2   -1    0    0    0  501 -0.00000000000E+00 -0.00000000000E+00 -0.38261038507E+02  0.38261038507E+02  0.00000000000E+00 0.  1.
         25    2    1    2    0    0  0.15321895164E+02 -0.85506966850E+02  0.41978346041E+03  0.44655452490E+03  0.12508632308E+03 0.  0.
          5    1    3    3  502    0 -0.28308667539E+02 -0.90078747690E+02  0.36051404979E+03  0.37269748314E+03  0.41800000000E+01 0.  1.
         -5    1    3    3    0  502  0.43630562702E+02  0.45717808401E+01  0.59269410623E+02  0.73857041759E+02  0.41800000000E+01 0.  1.
        -11    1    1    2    0    0 -0.54371749536E+02  0.53421200059E+02  0.67577599615E+02  0.10186679406E+03  0.00000000000E+00 0.  1.
         11    1    1    2    0    0  0.39049854372E+02  0.32085766791E+02  0.74872169856E+02  0.90333987933E+02  0.00000000000E+00 0. -1.
</event>
<event>
 7    1  0.2693725E-009  0.1564355E+03  0.7561462E-02  0.1192781E+00
         -1   -1    0    0    0  501 -0.00000000000E+00  0.00000000000E+00  0.15479296956E+03  0.15479296956E+03  0.00000000000E+00 0.  1.
          1   -1    0    0  501    0  0.00000000000E+00 -0.00000000000E+00 -0.21537320567E+03  0.21537320567E+03  0.00000000000E+00 0. -1.
         25    2    1    2    0    0  0.87950530799E+02  0.79297219934E+02  0.56715157538E+02  0.18134716307E+03  0.12508732750E+03 0.  0.
          5    1    3    3  502    0  0.94363001720E+02  0.10699279985E+03  0.40511388400E+02  0.14835929463E+03  0.41800000000E+01 0. -1.
         -5    1    3    3    0  502 -0.64124709204E+01 -0.27695579911E+02  0.16203769138E+02  0.32987868440E+02  0.41800000000E+01 0. -1.
        -11    1    1    2    0    0 -0.24626661103E+02  0.14249294889E+02 -0.49438643448E+02  0.57041163276E+02  0.00000000000E+00 0. -1.
         11    1    1    2    0    0 -0.63323869696E+02 -0.93546514824E+02 -0.67856750199E+02  0.13177784888E+03  0.00000000000E+00 0.  1.
</event>
<event>
 7    1  0.2693725E-009  0.1244166E+03  0.7561462E-02  0.1235984E+00
          2   -1    0    0  501    0  0.00000000000E+00  0.00000000000E+00  0.10117518277E+04  0.10117518277E+04  0.00000000000E+00 0.  1.
         -2   -1    0    0    0  501 -0.00000000000E+00 -0.00000000000E+00 -0.18323495962E+02  0.18323495962E+02  0.00000000000E+00 0. -1.
         25    2    1    2    0    0  0.40466193711E+02  0.62275935136E+02  0.56417129433E+03  0.58262466809E+03  0.12508576891E+03 0.  0.
          5    1    3    3  502    0  0.69300910282E+02  0.64416678398E+02  0.52651193467E+03  0.53496206816E+03  0.41800000000E+01 0. -1.
         -5    1    3    3    0  502 -0.28834716571E+02 -0.21407432616E+01  0.37659359665E+02  0.47662599927E+02  0.41800000000E+01 0. -1.
        -11    1    1    2    0    0 -0.74194194169E+02 -0.38037006323E+02  0.25378360135E+03  0.26712863682E+03  0.00000000000E+00 0. -1.
         11    1    1    2    0    0  0.33728000458E+02 -0.24238928813E+02  0.17547343611E+03  0.18032201880E+03  0.00000000000E+00 0.  1.
</event>
<event>
 7    1  0.2693725E-009  0.4054337E+03  0.7561462E-02  0.1041914E+00
          1   -1    0    0  501    0  0.00000000000E+00  0.00000000000E+00  0.17294270386E+04  0.17294270386E+04  0.00000000000E+00 0. -1.
         -1   -1    0    0    0  501 -0.00000000000E+00 -0.00000000000E+00 -0.99592322175E+02  0.99592322175E+02  0.00000000000E+00 0.  1.
         25    2    1    2    0    0 -0.37439357959E+03  0.12864030331E+03  0.95567933718E+03  0.10419642981E+04  0.12509085829E+03 0.  0.
          5    1    3    3  502    0 -0.26465319027E+03  0.13237780475E+03  0.58891540614E+03  0.65909333353E+03  0.41800000000E+01 0. -1.
         -5    1    3    3    0  502 -0.10974038932E+03 -0.37375014318E+01  0.36676393104E+03  0.38287096452E+03  0.41800000000E+01 0. -1.
        -11    1    1    2    0    0  0.44085260146E+02 -0.47714416657E+02  0.87859072687E+02  0.10926752661E+03  0.00000000000E+00 0.  1.
         11    1    1    2    0    0  0.33030831944E+03 -0.80925886657E+02  0.58629630657E+03  0.67778753612E+03  0.00000000000E+00 0. -1.
</event>
<event>
 7    1  0.2693725E-009  0.1097846E+03  0.7561462E-02  0.1260969E+00
          2   -1    0    0  501    0  0.00000000000E+00  0.00000000000E+00  0.91398633562E+03  0.91398633562E+03  0.00000000000E+00 0. -1.
         -2   -1    0    0    0  501 -0.00000000000E+00 -0.00000000000E+00 -0.24411185454E+02  0.24411185454E+02  0.00000000000E+00 0.  1.
         25    2    1    2    0    0  0.89107315161E+02  0.40921443782E+02  0.60904438962E+03  0.62944158241E+03  0.12508780501E+03 0.  0.
          5    1    3    3  502    0  0.77636485277E+02  0.39685620475E+02  0.17828948021E+03  0.19851192275E+03  0.41800000000E+01 0. -1.
         -5    1    3    3    0  502  0.11470829884E+02  0.12358233065E+01  0.43075490940E+03  0.43092965966E+03  0.41800000000E+01 0. -1.
        -11    1    1    2    0    0 -0.11348102741E+02 -0.40694175648E+02  0.48903121692E+02  0.64624381457E+02  0.00000000000E+00 0. -1.
         11    1    1    2    0    0 -0.77759212420E+02 -0.22726813428E+00  0.23162763886E+03  0.24433155721E+03  0.00000000000E+00 0.  1.
</event>
<event>
 7    1  0.3232167E-009  0.1259713E+03  0.7561462E-02  0.1233559E+00
          1   -1    0    0  501    0  0.00000000000E+00  0.00000000000E+00  0.17217706613E+03  0.17217706613E+03  0.00000000000E+00 0. -1.
         -1   -1    0    0    0  501 -0.00000000000E+00 -0.00000000000E+00 -0.10315758102E+03  0.10315758102E+03  0.00000000000E+00 0.  1.
         25    2    1    2    0    0  0.70434281503E+02 -0.17284807630E+02  0.11205794129E+02  0.14502529607E+03  0.12508802538E+03 0.  0.
          5    1    3    3  502    0  0.35163174334E+02 -0.66948805276E+02  0.29510213857E+02  0.81282940886E+02  0.41800000000E+01 0.  1.
         -5    1    3    3    0  502  0.35271107169E+02  0.49663997646E+02 -0.18304419728E+02  0.63742355187E+02  0.41800000000E+01 0.  1.
        -11    1    1    2    0    0 -0.96535099005E+00  0.41551546706E+02  0.10645969186E+02  0.42904540507E+02  0.00000000000E+00 0.  1.
         11    1    1    2    0    0 -0.69468930512E+02 -0.24266739077E+02  0.47167721799E+02  0.87404810575E+02  0.00000000000E+00 0. -1.
</event>
<event>
 7    1  0.2693725E-009  0.1357338E+03  0.7561462E-02  0.1219188E+00
          1   -1    0    0  501    0  0.00000000000E+00  0.00000000000E+00  0.57708420005E+03  0.57708420005E+03  0.00000000000E+00 0. -1.
         -1   -1    0    0    0  501 -0.00000000000E+00 -0.00000000000E+00 -0.41380675014E+02  0.41380675014E+02  0.00000000000E+00 0.  1.
         25    2    1    2    0    0 -0.92785819396E+02 -0.56918801170E+02  0.27596813270E+03  0.32195493526E+03  0.12509041476E+03 0.  0.
          5    1    3    3  502    0 -0.95152492333E+02 -0.27646969640E+02  0.90921033845E+02  0.13454537719E+03  0.41800000000E+01 0.  1.
         -5    1    3    3    0  502  0.23666729370E+01 -0.29271831530E+02  0.18504709886E+03  0.18740955807E+03  0.41800000000E+01 0.  1.
        -11    1    1    2    0    0  0.81028668258E+01  0.57374970872E+02  0.94840200033E+02  0.11114048441E+03  0.00000000000E+00 0.  1.
         11    1    1    2    0    0  0.84682952570E+02 -0.45616970159E+00  0.16489519230E+03  0.18536945539E+03  0.00000000000E+00 0. -1.
</event>
<event>
 7    1  0.2693725E-009  0.6125669E+02  0.7561462E-02  0.1392632E+00
          1   -1    0    0  501    0  0.00000000000E+00  0.00000000000E+00  0.13747415778E+03  0.13747415778E+03  0.00000000000E+00 0. -1.
         -1   -1    0    0    0  501 -0.00000000000E+00 -0.00000000000E+00 -0.10734837415E+03  0.10734837415E+03  0.00000000000E+00 0.  1.
         25    2    1    2    0    0 -0.26129379620E+02 -0.57846947961E+01 -0.31814045100E+02  0.13181778354E+03  0.12509031704E+03 0.  0.
          5    1    3    3  502    0 -0.62993766195E+01 -0.27184020768E+02 -0.74660037622E+02  0.79813825549E+02  0.41800000000E+01 0.  1.
         -5    1    3    3    0  502 -0.19830003001E+02  0.21399325972E+02  0.42845992523E+02  0.52003957987E+02  0.41800000000E+01 0.  1.
        -11    1    1    2    0    0  0.32091014951E+02 -0.20363011406E+02 -0.73458114623E+01  0.38709771636E+02  0.00000000000E+00 0.  1.
         11    1    1    2    0    0 -0.59616353309E+01  0.26147706202E+02  0.69285640187E+02  0.74294976758E+02  0.00000000000E+00 0. -1.
</event>
<event>
 7    1  0.2693725E-009  0.1485377E+03  0.7561462E-02  0.1202281E+00
          2   -1    0    0  501    0  0.00000000000E+00  0.00000000000E+00  0.77483209424E+03  0.77483209424E+03  0.00000000000E+00 0. -1.
         -2   -1    0    0    0  501 -0.00000000000E+00 -0.00000000000E+00 -0.69436269048E+02  0.69436269048E+02  0.00000000000E+00 0.  1.
         25    2    1    2    0    0  0.15066480519E+02 -0.12350737359E+03  0.65811408697E+03  0.68135390974E+03  0.12509168111E+03 0.  0.
          5    1    3    3  502    0 -0.39459787554E+02 -0.37828823802E+01  0.94271905918E+02  0.10235257534E+03  0.41800000000E+01 0. -1.
         -5    1    3    3    0  502  0.54526268073E+02 -0.11972449121E+03  0.56384218105E+03  0.57900133440E+03  0.41800000000E+01 0. -1.
        -11    1    1    2    0    0 -0.13607696006E+02  0.43657656636E+02 -0.27619948994E+02  0.53423047049E+02  0.00000000000E+00 0.  1.
         11    1    1    2    0    0 -0.14587845126E+01  0.79849716953E+02  0.74901687217E+02  0.10949140650E+03  0.00000000000E+00 0. -1.
</event>
<event>
 7    1  0.2693725E-009  0.8497634E+02  0.7561462E-02  0.1315494E+00
          2   -1    0    0  501    0  0.00000000000E+00  0.00000000000E+00  0.97927637697E+03  0.97927637697E+03  0.00000000000E+00 0. -1.
         -2   -1    0    0    0  501 -0.00000000000E+00 -0.00000000000E+00 -0.16179388267E+02  0.16179388267E+02  0.00000000000E+00 0.  1.
         25    2    1    2    0    0  0.19105100387E+02 -0.55645462975E+02  0.63997747121E+03  0.65473705939E+03  0.12509208957E+03 0.  0.
          5    1    3    3  502    0  0.18626985244E+02 -0.56860625970E+02  0.11465246205E+03  0.12939379745E+03  0.41800000000E+01 0.  1.
         -5    1    3    3    0  502  0.47811514300E+00  0.12151629951E+01  0.52532500917E+03  0.52534326194E+03  0.41800000000E+01 0.  1.
        -11    1    1    2    0    0 -0.49078110376E+02  0.57459072409E+02  0.19505528489E+03  0.20918118960E+03  0.00000000000E+00 0. -1.
         11    1    1    2    0    0  0.29973009990E+02 -0.18136094340E+01  0.12806423260E+03  0.13153751624E+03  0.00000000000E+00 0.  1.
</event>
<event>
 7    1  0.2693725E-009  0.1635624E+03  0.7561462E-02  0.1184733E+00
         -2   -1    0    0    0  501 -0.00000000000E+00  0.00000000000E+00  0.21520637090E+02  0.21520637090E+02  0.00000000000E+00 0.  1.
          2   -1    0    0  501    0  0.00000000000E+00 -0.00000000000E+00 -0.14916230193E+04  0.14916230193E+04  0.00000000000E+00 0. -1.
         25    2    1    2    0    0  0.37360176320E+02 -0.13345555551E+03 -0.92970271683E+03  0.94826136465E+03  0.12508519469E+03 0.  0.
          5    1    3    3  502    0  0.64191882336E+02 -0.77642873686E+02 -0.77563198419E+03  0.78215820707E+03  0.41800000000E+01 0.  1.
         -5    1    3    3    0  502 -0.26831706017E+02 -0.55812681823E+02 -0.15407073265E+03  0.16610315758E+03  0.41800000000E+01 0.  1.
        -11    1    1    2    0    0  0.19159704318E+02  0.92411621036E+02 -0.32648429748E+03  0.33985143588E+03  0.00000000000E+00 0. -1.
         11    1    1    2    0    0 -0.56519880638E+02  0.41043934472E+02 -0.21391536789E+03  0.22503085585E+03  0.00000000000E+00 0.  1.
</event>
<event>
 7    1  0.2693725E-009  0.1044235E+03  0.7561462E-02  0.1271260E+00
          4   -1    0    0  501    0  0.00000000000E+00  0.00000000000E+00  0.22561064070E+03  0.22561064070E+03  0.00000000000E+00 0. -1.
         -4   -1    0    0    0  501 -0.00000000000E+00 -0.00000000000E+00 -0.68466250541E+02  0.68466250541E+02  0.00000000000E+00 0.  1.
         25    2    1    2    0    0  0.33331662919E+02  0.44938713691E+02  0.10548008832E+03  0.17293034540E+03  0.12509343543E+03 0.  0.
          5    1    3    3  502    0  0.22633279227E+02  0.76714910325E+02  0.11281486980E+03  0.13835501452E+03  0.41800000000E+01 0.  1.
         -5    1    3    3    0  502  0.10698383692E+02 -0.31776196634E+02 -0.73347814799E+01  0.34575330880E+02  0.41800000000E+01 0.  1.
        -11    1    1    2    0    0 -0.17764183517E+02  0.20831897849E+02 -0.10495859288E+02  0.29320594234E+02  0.00000000000E+00 0.  1.
         11    1    1    2    0    0 -0.15567479402E+02 -0.65770611541E+02  0.62160161126E+02  0.91825951607E+02  0.00000000000E+00 0. -1.
</event>
<event>
 7    1  0.2693725E-009  0.1268956E+03  0.7561462E-02  0.1232136E+00
         -1   -1    0    0    0  501 -0.00000000000E+00  0.00000000000E+00  0.35405444179E+02  0.35405444179E+02  0.00000000000E+00 0.  1.
          1   -1    0    0  501    0  0.00000000000E+00 -0.00000000000E+00 -0.59942580127E+03  0.59942580127E+03  0.00000000000E+00 0. -1.
         25    2    1    2    0    0  0.70124539768E+02  0.36985778786E+02 -0.41939830170E+03  0.44477711518E+03  0.12508536209E+03 0.  0.
          5    1    3    3  502    0  0.92966598652E+02 -0.43988434624E+01 -0.33751174381E+03  0.35013395708E+03  0.41800000000E+01 0. -1.
         -5    1    3    3    0  502 -0.22842058884E+02  0.41384622248E+02 -0.81886557895E+02  0.94643158107E+02  0.41800000000E+01 0. -1.
        -11    1    1    2    0    0  0.21014221814E+01 -0.40792137834E+02 -0.91848072230E+02  0.10052105678E+03  0.00000000000E+00 0.  1.
         11    1    1    2    0    0 -0.72225961949E+02  0.38063590485E+01 -0.52773983153E+02  0.89533073479E+02  0.00000000000E+00 0. -1.
</event>
<event>
 7    1  0.2693725E-009  0.1140623E+03  0.7561462E-02  0.1253227E+00
         -4   -1    0    0    0  501 -0.00000000000E+00  0.00000000000E+00  0.21511110236E+03  0.21511110236E+03  0.00000000000E+00 0. -1.
          4   -1    0    0  501    0  0.00000000000E+00 -0.00000000000E+00 -0.76510557581E+02  0.76510557581E+02  0.00000000000E+00 0.  1.
         25    2    1    2    0    0 -0.46874322200E+01  0.67131866474E+02  0.59030758599E+02  0.15382308276E+03  0.12509296868E+03 0.  0.
          5    1    3    3  502    0  0.44919208238E+02  0.29592142767E+02 -0.15992433285E+02  0.56273088636E+02  0.41800000000E+01 0.  1.
         -5    1    3    3    0  502 -0.49606640458E+02  0.37539723707E+02  0.75023191884E+02  0.97549994126E+02  0.41800000000E+01 0.  1.
        -11    1    1    2    0    0 -0.42333399127E+02 -0.29534310745E+02  0.44319207616E+02  0.68033700153E+02  0.00000000000E+00 0.  1.
         11    1    1    2    0    0  0.47020831347E+02 -0.37597555728E+02  0.35250578565E+02  0.69764877026E+02  0.00000000000E+00 0. -1.
</event>
<event>
 7    1  0.2693725E-009  0.1711805E+03  0.7561462E-02  0.1176622E+00
          4   -1    0    0  501    0  0.00000000000E+00  0.00000000000E+00  0.45317222714E+03  0.45317222714E+03  0.00000000000E+00 0. -1.
         -4   -1    0    0    0  501 -0.00000000000E+00 -0.00000000000E+00 -0.79959540850E+02  0.79959540850E+02  0.00000000000E+00 0.  1.
         25    2    1    2    0    0 -0.11688397180E+03  0.90997849392E+02  0.26283354822E+03  0.32660255792E+03  0.12508111493E+03 0.  0.
          5    1    3    3  502    0  0.20329292901E+02  0.44177787516E+02  0.68419628880E+02  0.84045672558E+02  0.41800000000E+01 0.  1.
         -5    1    3    3    0  502 -0.13721326470E+03  0.46820061876E+02  0.19441391934E+03  0.24255688536E+03  0.41800000000E+01 0.  1.
        -11    1    1    2    0    0  0.72931299076E+02 -0.63190086331E+02  0.14678504487E+02  0.97608503161E+02  0.00000000000E+00 0.  1.
         11    1    1    2    0    0  0.43952672720E+02 -0.27807763060E+02  0.95700633589E+02  0.10892070692E+03  0.00000000000E+00 0. -1.
</event>
<event>
 7    1  0.3412478E-009  0.2032389E+03  0.7561462E-02  0.1147035E+00
          2   -1    0    0  501    0  0.00000000000E+00  0.00000000000E+00  0.14219804680E+04  0.14219804680E+04  0.00000000000E+00 0. -1.
         -2   -1    0    0    0  501 -0.00000000000E+00 -0.00000000000E+00 -0.33628227248E+02  0.33628227248E+02  0.00000000000E+00 0.  1.
         25    2    1    2    0    0 -0.81712727940E+02  0.17082321606E+03  0.69602785775E+03  0.73209260842E+03  0.12508903822E+03 0.  0.
          5    1    3    3  502    0  0.61214206352E+01  0.25935482021E+02  0.16217794118E+02  0.31473961688E+02  0.41800000000E+01 0.  1.
         -5    1    3    3    0  502 -0.87834148575E+02  0.14488773404E+03  0.67981006364E+03  0.70061864673E+03  0.41800000000E+01 0.  1.
        -11    1    1    2    0    0 -0.17828554580E+02 -0.52226821569E+02  0.17097682767E+03  0.17966238853E+03  0.00000000000E+00 0.  1.
         11    1    1    2    0    0  0.99541282520E+02 -0.11859639449E+03  0.52134755534E+03  0.54385369831E+03  0.00000000000E+00 0. -1.
</event>
<event>
 7    1  0.2693725E-009  0.1102433E+03  0.7561462E-02  0.1260120E+00
          2   -1    0    0  501    0  0.00000000000E+00  0.00000000000E+00  0.39486196468E+02  0.39486196468E+02  0.00000000000E+00 0. -1.
         -2   -1    0    0    0  501 -0.00000000000E+00 -0.00000000000E+00 -0.36633530361E+03  0.36633530361E+03  0.00000000000E+00 0.  1.
         25    2    1    2    0    0 -0.31563829926E+02  0.53705287009E+01 -0.25467494963E+03  0.28553733773E+03  0.12508846204E+03 0.  0.
          5    1    3    3  502    0 -0.43059358011E+01  0.63265251082E+02 -0.10547609389E+03  0.12314102428E+03  0.41800000000E+01 0.  1.
         -5    1    3    3    0  502 -0.27257894124E+02 -0.57894722381E+02 -0.14919885573E+03  0.16239631345E+03  0.41800000000E+01 0.  1.
        -11    1    1    2    0    0 -0.11843808909E+02  0.32883895900E+02 -0.43222988467E+02  0.55586447549E+02  0.00000000000E+00 0. -1.
         11    1    1    2    0    0  0.43407638834E+02 -0.38254424601E+02 -0.28951169053E+02  0.64697714800E+02  0.00000000000E+00 0.  1.
</event>
<event>
 7    1  0.2693725E-009  0.1214760E+03  0.7561462E-02  0.1240682E+00
          2   -1    0    0  501    0  0.00000000000E+00  0.00000000000E+00  0.16122648183E+03  0.16122648183E+03  0.00000000000E+00 0. -1.
         -2   -1    0    0    0  501 -0.00000000000E+00 -0.00000000000E+00 -0.11045435420E+03  0.11045435420E+03  0.00000000000E+00 0.  1.
         25    2    1    2    0    0 -0.53697290527E+02 -0.39695986215E+02 -0.15355930684E+02  0.14263263261E+03  0.12509633466E+03 0.  0.
          5    1    3    3  502    0 -0.86790941806E+02 -0.48951872211E+01  0.10952019631E+02  0.87715731608E+02  0.41800000000E+01 0. -1.
         -5    1    3    3    0  502  0.33093651279E+02 -0.34800798994E+02 -0.26307950315E+02  0.54916901000E+02  0.41800000000E+01 0. -1.
        -11    1    1    2    0    0 -0.28219629027E+01  0.50158475442E+02  0.46086951182E+02  0.68175092244E+02  0.00000000000E+00 0.  1.
         11    1    1    2    0    0  0.56519253429E+02 -0.10462489227E+02  0.20041107130E+02  0.60873111174E+02  0.00000000000E+00 0. -1.
</event>
<event>
 7    1  0.2693725E-009  0.1439598E+03  0.7561462E-02  0.1208098E+00
          2   -1    0    0  501    0  0.00000000000E+00  0.00000000000E+00  0.12641984684E+04  0.12641984684E+04  0.00000000000E+00 0. -1.
         -2   -1    0    0    0  501 -0.00000000000E+00 -0.00000000000E+00 -0.41957315531E+02  0.41957315531E+02  0.00000000000E+00 0.  1.
         25    2    1    2    0    0  0.11250765436E+03  0.84107268277E+02  0.10501248317E+04  0.10668367641E+04  0.12508602695E+03 0.  0.
          5    1    3    3  502    0  0.10950346229E+03  0.71489946954E+02  0.50923221843E+03  0.52577252254E+03  0.41800000000E+01 0.  1.
         -5    1    3    3    0  502  0.30041920691E+01  0.12617321323E+02  0.54089261328E+03  0.54106424153E+03  0.41800000000E+01 0.  1.
        -11    1    1    2    0    0 -0.49892027915E+02 -0.19746579256E+02  0.12899005108E+03  0.13970531529E+03  0.00000000000E+00 0. -1.
         11    1    1    2    0    0 -0.62615626440E+02 -0.64360689021E+02  0.43126270062E+02  0.99613704555E+02  0.00000000000E+00 0.  1.
</event>
<event>
 7    1  0.2693725E-009  0.6962805E+02  0.7561462E-02  0.1361362E+00
          1   -1    0    0  501    0  0.00000000000E+00  0.00000000000E+00  0.14312489395E+03  0.14312489395E+03  0.00000000000E+00 0. -1.
         -1   -1    0    0    0  501 -0.00000000000E+00 -0.00000000000E+00 -0.91905611780E+02  0.91905611780E+02  0.00000000000E+00 0.  1.
         25    2    1    2    0    0  0.29701905918E+02  0.16339855705E+02  0.29463627443E+02  0.13290995163E+03  0.12509099009E+03 0.  0.
          5    1    3    3  502    0  0.34262616648E+00 -0.33941604958E+02 -0.32922866076E+02  0.47471438260E+02  0.41800000000E+01 0.  1.
         -5    1    3    3    0  502  0.29359279751E+02  0.50281460663E+02  0.62386493518E+02  0.85438513373E+02  0.41800000000E+01 0.  1.
        -11    1    1    2    0    0 -0.27057514359E+02  0.29436520648E+01 -0.33717507284E+02  0.43331795119E+02  0.00000000000E+00 0.  1.
         11    1    1    2    0    0 -0.26443915593E+01 -0.19283507770E+02  0.55473162013E+02  0.58788758979E+02  0.00000000000E+00 0. -1.
</event>
<event>
 7    1  0.2693725E-009  0.1232160E+03  0.7561462E-02  0.1237884E+00
          2   -1    0    0  501    0  0.00000000000E+00  0.00000000000E+00  0.56424956656E+03  0.56424956656E+03  0.00000000000E+00 0. -1.
         -2   -1    0    0    0  501 -0.00000000000E+00 -0.00000000000E+00 -0.46316345101E+02  0.46316345101E+02  0.00000000000E+00 0.  1.
         25    2    1    2    0    0  0.64895434180E+02 -0.40045007249E+02  0.10293696082E+03  0.17905143390E+03  0.12509347743E+03 0.  0.
          5    1    3    3  502    0  0.73311989442E+02  0.18473717307E+02  0.22220978324E+02  0.78912421739E+02  0.41800000000E+01 0.  1.
         -5    1    3    3    0  502 -0.84165552617E+01 -0.58518724556E+02  0.80715982491E+02  0.10013901216E+03  0.41800000000E+01 0.  1.
        -11    1    1    2    0    0 -0.60944488876E+02 -0.95535436324E+01  0.15546602877E+03  0.16725784592E+03  0.00000000000E+00 0.  1.
         11    1    1    2    0    0 -0.39509453042E+01  0.49598550882E+02  0.25953023188E+03  0.26425663185E+03  0.00000000000E+00 0. -1.
</event>
<event>
 7    1  0.2693725E-009  0.2431471E+03  0.7561462E-02  0.1117714E+00
          1   -1    0    0  501    0  0.00000000000E+00  0.00000000000E+00  0.69811762102E+03  0.69811762102E+03  0.00000000000E+00 0. -1.
         -1   -1    0    0    0  501 -0.00000000000E+00 -0.00000000000E+00 -0.90107976411E+02  0.90107976411E+02  0.00000000000E+00 0.  1.
         25    2    1    2    0    0  0.22438478944E+03  0.14860255732E+02  0.34090927936E+03  0.42712288694E+03  0.12508182467E+03 0.  0.
          5    1    3    3  502    0 -0.13842710000E+02 -0.56452606795E+00  0.42826092260E+02  0.45204932121E+02  0.41800000000E+01 0. -1.
         -5    1    3    3    0  502  0.23822749944E+03  0.15424781800E+02  0.29808318710E+03  0.38191795482E+03  0.41800000000E+01 0. -1.
        -11    1    1    2    0    0 -0.34561097330E+02  0.20191986521E+02  0.13183024368E+02  0.42142352804E+02  0.00000000000E+00 0.  1.
         11    1    1    2    0    0 -0.18982369211E+03 -0.35052242253E+02  0.25391734089E+03  0.31896035769E+03  0.00000000000E+00 0. -1.
</event>
<event>
 7    1  0.2693725E-009  0.1708562E+03  0.7561462E-02  0.1176958E+00
         -4   -1    0    0    0  501 -0.00000000000E+00  0.00000000000E+00  0.70879406449E+02  0.70879406449E+02  0.00000000000E+00 0.  1.
          4   -1    0    0  501    0  0.00000000000E+00 -0.00000000000E+00 -0.45820889789E+03  0.45820889789E+03  0.00000000000E+00 0. -1.
         25    2    1    2    0    0 -0.11906733496E+03  0.68328567116E+02 -0.14368707027E+03  0.23481865499E+03  0.12509197909E+03 0.  0.
          5    1    3    3  502    0 -0.68412635320E+02  0.97458700345E+02 -0.12647862906E+03  0.17376076356E+03  0.41800000000E+01 0. -1.
         -5    1    3    3    0  502 -0.50654699637E+02 -0.29130133229E+02 -0.17208441206E+02  0.61057891431E+02  0.41800000000E+01 0. -1.
        -11    1    1    2    0    0  0.23500886822E+02 -0.64156613696E+02 -0.11804721891E+03  0.13639467972E+03  0.00000000000E+00 0.  1.
         11    1    1    2    0    0  0.95566448135E+02 -0.41719534199E+01 -0.12559520226E+03  0.15787496963E+03  0.00000000000E+00 0. -1.
</event>
<event>
 7    1  0.2693725E-009  0.9376463E+02  0.7561462E-02  0.1293983E+00
         -2   -1    0    0    0  501 -0.00000000000E+00  0.00000000000E+00  0.44418776545E+02  0.44418776545E+02  0.00000000000E+00 0.  1.
          2   -1    0    0  501    0  0.00000000000E+00 -0.00000000000E+00 -0.51999501202E+03  0.51999501202E+03  0.00000000000E+00 0. -1.
         25    2    1    2    0    0  0.45471068149E+02 -0.10729796621E+02 -0.43543091821E+03  0.45544105266E+03  0.12507486297E+03 0.  0.
          5    1    3    3  502    0  0.18294420795E+02 -0.48165556113E+02 -0.37827857245E+03  0.38179412960E+03  0.41800000000E+01 0.  1.
         -5    1    3    3    0  502  0.27176647354E+02  0.37435759492E+02 -0.57152345760E+02  0.73646923059E+02  0.41800000000E+01 0.  1.
        -11    1    1    2    0    0 -0.25955739196E+02  0.43844334632E+02  0.31853122781E+01  0.51050683549E+02  0.00000000000E+00 0.  1.
         11    1    1    2    0    0 -0.19515328953E+02 -0.33114538011E+02 -0.43330629541E+02  0.57922052349E+02  0.00000000000E+00 0. -1.
</event>
<event>
 7    1  0.2693725E-009  0.1038882E+03  0.7561462E-02  0.1272326E+00
         -2   -1    0    0    0  501 -0.00000000000E+00  0.00000000000E+00  0.23073499708E+03  0.23073499708E+03  0.00000000000E+00 0.  1.
          2   -1    0    0  501    0  0.00000000000E+00 -0.00000000000E+00 -0.56099467940E+02  0.56099467940E+02  0.00000000000E+00 0. -1.
         25    2    1    2    0    0 -0.26020854343E+02  0.23379090478E+02  0.92538605750E+02  0.15948271846E+03  0.12509067591E+03 0.  0.
          5    1    3    3  502    0 -0.40956779186E+02  0.69746123823E+02  0.58505089636E+02  0.99911448107E+02  0.41800000000E+01 0.  1.
         -5    1    3    3    0  502  0.14935924843E+02 -0.46367033345E+02  0.34033516115E+02  0.59571270351E+02  0.41800000000E+01 0.  1.
        -11    1    1    2    0    0 -0.74967228160E+01 -0.39849125651E+02  0.80307213276E+02  0.89963337934E+02  0.00000000000E+00 0.  1.
         11    1    1    2    0    0  0.33517577159E+02  0.16470035173E+02  0.17897101106E+01  0.37388408625E+02  0.00000000000E+00 0. -1.
</event>
<event>
 7    1  0.2693725E-009  0.1510918E+03  0.7561462E-02  0.1199138E+00
         -2   -1    0    0    0  501 -0.00000000000E+00  0.00000000000E+00  0.57594621509E+02  0.57594621509E+02  0.00000000000E+00 0.  1.
          2   -1    0    0  501    0  0.00000000000E+00 -0.00000000000E+00 -0.42277009374E+03  0.42277009374E+03  0.00000000000E+00 0. -1.
         25    2    1    2    0    0 -0.10765991526E+03 -0.21368771217E+02 -0.17112345590E+03  0.23870312565E+03  0.12509461739E+03 0.  0.
          5    1    3    3  502    0 -0.47398555822E+02 -0.72515599312E+02 -0.79877919199E+02  0.11791136338E+03  0.41800000000E+01 0.  1.
         -5    1    3    3    0  502 -0.60261359433E+02  0.51146828095E+02 -0.91245536699E+02  0.12079176227E+03  0.41800000000E+01 0.  1.
        -11    1    1    2    0    0  0.81808307223E+02  0.51445262089E+02 -0.97487119004E+02  0.13726963427E+03  0.00000000000E+00 0.  1.
         11    1    1    2    0    0  0.25851608032E+02 -0.30076490872E+02 -0.96564897326E+02  0.10439195533E+03  0.00000000000E+00 0. -1.
</event>
<event>
 7    1  0.2693725E-009  0.1181442E+03  0.7561462E-02  0.1246190E+00
         -1   -1    0    0    0  501 -0.00000000000E+00  0.00000000000E+00  0.20337235908E+03  0.20337235908E+03  0.00000000000E+00 0. -1.
          1   -1    0    0  501    0  0.00000000000E+00 -0.00000000000E+00 -0.69557636267E+02  0.69557636267E+02  0.00000000000E+00 0.  1.
         25    2    1    2    0    0 -0.49894528302E+02 -0.26125831901E+01  0.69776002954E+02  0.15169769151E+03  0.12508880635E+03 0.  0.
          5    1    3    3  502    0 -0.76999661469E+02 -0.40177929937E+02  0.55037947676E+02  0.10290705518E+03  0.41800000000E+01 0.  1.
         -5    1    3    3    0  502  0.27105133167E+02  0.37565346747E+02  0.14738055278E+02  0.48790636332E+02  0.41800000000E+01 0.  1.
        -11    1    1    2    0    0  0.33640938645E+01  0.41834078235E+02  0.23351845905E+02  0.48028282673E+02  0.00000000000E+00 0.  1.
         11    1    1    2    0    0  0.46530434437E+02 -0.39221495045E+02  0.40686873950E+02  0.73204021163E+02  0.00000000000E+00 0. -1.
</event>
<event>
 7    1  0.2693725E-009  0.1365459E+03  0.7561462E-02  0.1218054E+00
         -1   -1    0    0    0  501 -0.00000000000E+00  0.00000000000E+00  0.10862619739E+04  0.10862619739E+04  0.00000000000E+00 0.  1.
          1   -1    0    0  501    0  0.00000000000E+00 -0.00000000000E+00 -0.20695044776E+02  0.20695044776E+02  0.00000000000E+00 0. -1.
         25    2    1    2    0    0  0.34076795751E+02  0.97123505927E+02  0.65669605751E+03  0.67638083387E+03  0.12508843702E+03 0.  0.
          5    1    3    3  502    0 -0.30587539780E+02  0.48622331082E+02  0.11442704210E+03  0.12810444580E+03  0.41800000000E+01 0.  1.
         -5    1    3    3    0  502  0.64664335530E+02  0.48501174845E+02  0.54226901540E+03  0.54827638807E+03  0.41800000000E+01 0.  1.
        -11    1    1    2    0    0 -0.63418831426E+02 -0.60722219358E+02  0.25011031854E+03  0.26507415480E+03  0.00000000000E+00 0. -1.
         11    1    1    2    0    0  0.29342035675E+02 -0.36401286569E+02  0.15876055313E+03  0.16550203005E+03  0.00000000000E+00 0.  1.
</event>
<event>
 7    1  0.2693725E-009  0.2183599E+03  0.7561462E-02  0.1135112E+00
         -4   -1    0    0    0  501 -0.00000000000E+00  0.00000000000E+00  0.81919930052E+03  0.81919930052E+03  0.00000000000E+00 0. -1.
          4   -1    0    0  501    0  0.00000000000E+00 -0.00000000000E+00 -0.64024501684E+02  0.64024501684E+02  0.00000000000E+00 0.  1.
         25    2    1    2    0    0  0.29655118615E+02  0.18664379297E+03  0.52205398177E+03  0.56912406198E+03  0.12508599655E+03 0.  0.
          5    1    3    3  502    0  0.36880167275E+02  0.20400935769E+03  0.47879104692E+03  0.52176460571E+03  0.41800000000E+01 0.  1.
         -5    1    3    3    0  502 -0.72250486603E+01 -0.17365564724E+02  0.43262934850E+02  0.47359456269E+02  0.41800000000E+01 0.  1.
        -11    1    1    2    0    0 -0.59204395453E+02 -0.80583195606E+02  0.10115098241E+03  0.14223337547E+03  0.00000000000E+00 0.  1.
         11    1    1    2    0    0  0.29549276839E+02 -0.10606059736E+03  0.13196983465E+03  0.17186636475E+03  0.00000000000E+00 0. -1.
</event>
<event>
 7    1  0.2693725E-009  0.1084929E+03  0.7561462E-02  0.1263387E+00
         -2   -1    0    0    0  501 -0.00000000000E+00  0.00000000000E+00  0.18306107065E+02  0.18306107065E+02  0.00000000000E+00 0.  1.
          2   -1    0    0  501    0  0.00000000000E+00 -0.00000000000E+00 -0.82653082777E+03  0.82653082777E+03  0.00000000000E+00 0. -1.
         25    2    1    2    0    0 -0.24008927043E+02 -0.52304691971E+02 -0.47184424136E+03  0.49152542337E+03  0.12509214339E+03 0.  0.
          5    1    3    3  502    0 -0.43911750763E+02 -0.71641549406E+02 -0.44432943900E+03  0.45222436491E+03  0.41800000000E+01 0.  1.
         -5    1    3    3    0  502  0.19902823720E+02  0.19336857435E+02 -0.27514802364E+02  0.39301058466E+02  0.41800000000E+01 0.  1.
        -11    1    1    2    0    0  0.13988410302E+02 -0.24028071885E+02 -0.55551087398E+02  0.62120424760E+02  0.00000000000E+00 0.  1.
         11    1    1    2    0    0  0.10020516742E+02  0.76332763856E+02 -0.28082939195E+03  0.29119108671E+03  0.00000000000E+00 0. -1.
</event>
<event>
 7    1  0.2693725E-009  0.1557712E+03  0.7561462E-02  0.1193555E+00
          1   -1    0    0  501    0  0.00000000000E+00  0.00000000000E+00  0.14675107867E+04  0.14675107867E+04  0.00000000000E+00 0. -1.
         -1   -1    0    0    0  501 -0.00000000000E+00 -0.00000000000E+00 -0.17380118340E+02  0.17380118340E+02  0.00000000000E+00 0.  1.
         25    2    1    2    0    0  0.62426430950E+02 -0.99166890419E+02  0.85022768515E+03  0.86733266869E+03  0.12509080764E+03 0.  0.
          5    1    3    3  502    0  0.55250671622E+01 -0.10902352949E+03  0.45762765876E+03  0.47048613456E+03  0.41800000000E+01 0. -1.
         -5    1    3    3    0  502  0.56901363788E+02  0.98566390751E+01  0.39260002639E+03  0.39684653413E+03  0.41800000000E+01 0. -1.
        -11    1    1    2    0    0  0.20184970204E+02  0.32431934239E+02  0.11559933615E+03  0.12174756630E+03  0.00000000000E+00 0.  1.
         11    1    1    2    0    0 -0.82611401154E+02  0.66734956181E+02  0.48430364703E+03  0.49581067002E+03  0.00000000000E+00 0. -1.
</event>
<event>
 7    1  0.2693725E-009  0.1024839E+03  0.7561462E-02  0.1275158E+00
         -1   -1    0    0    0  501 -0.00000000000E+00  0.00000000000E+00  0.20989245905E+02  0.20989245905E+02  0.00000000000E+00 0.  1.
          1   -1    0    0  501    0  0.00000000000E+00 -0.00000000000E+00 -0.66968098898E+03  0.66968098898E+03  0.00000000000E+00 0. -1.
         25    2    1    2    0    0 -0.35471577859E+02 -0.30397026985E+02 -0.40301334674E+03  0.42455735404E+03  0.12508787763E+03 0.  0.
          5    1    3    3  502    0  0.32269179365E+02  0.27011554940E+02 -0.95305939966E+02  0.10426705438E+03  0.41800000000E+01 0. -1.
         -5    1    3    3    0  502 -0.67740757224E+02 -0.57408581925E+02 -0.30770740678E+03  0.32029029966E+03  0.41800000000E+01 0. -1.
        -11    1    1    2    0    0 -0.14867478320E+02 -0.21476445398E+00 -0.15197338177E+01  0.14946492105E+02  0.00000000000E+00 0.  1.
         11    1    1    2    0    0  0.50339056179E+02  0.30611791439E+02 -0.24415866252E+03  0.25116638874E+03  0.00000000000E+00 0. -1.
</event>
<event>
 7    1  0.2693725E-009  0.9691044E+02  0.7561462E-02  0.1286930E+00
         -1   -1    0    0    0  501 -0.00000000000E+00  0.00000000000E+00  0.40864603339E+02  0.40864603339E+02  0.00000000000E+00 0.  1.
          1   -1    0    0  501    0  0.00000000000E+00 -0.00000000000E+00 -0.34434024519E+03  0.34434024519E+03  0.00000000000E+00 0. -1.
         25    2    1    2    0    0  0.19034787324E+02  0.23320321822E+02 -0.23022676365E+03  0.26374054036E+03  0.12509416209E+03 0.  0.
          5    1    3    3  502    0  0.34925783616E+02  0.69424061606E+02 -0.16254186030E+03  0.18021331649E+03  0.41800000000E+01 0. -1.
         -5    1    3    3    0  502 -0.15890996292E+02 -0.46103739784E+02 -0.67684903358E+02  0.83527223873E+02  0.41800000000E+01 0. -1.
        -11    1    1    2    0    0 -0.46868022107E+01  0.20454011229E+02 -0.72411719121E+02  0.75390912956E+02  0.00000000000E+00 0. -1.
         11    1    1    2    0    0 -0.14347985113E+02 -0.43774333050E+02 -0.83715907366E+00  0.46073395209E+02  0.00000000000E+00 0.  1.
</event>
<event>
 7    1  0.2693725E-009  0.8576094E+02  0.7561462E-02  0.1313455E+00
         -1   -1    0    0    0  501 -0.00000000000E+00  0.00000000000E+00  0.29898780977E+02  0.29898780977E+02  0.00000000000E+00 0.  1.
          1   -1    0    0  501    0  0.00000000000E+00 -0.00000000000E+00 -0.76015662624E+03  0.76015662624E+03  0.00000000000E+00 0. -1.
         25    2    1    2    0    0  0.34514902199E+02 -0.55153905573E+02 -0.60162308918E+03  0.61792533896E+03  0.12509257098E+03 0.  0.
          5    1    3    3  502    0 -0.61578067943E+01 -0.15958089501E+02 -0.50935777949E+03  0.50966204404E+03  0.41800000000E+01 0. -1.
         -5    1    3    3    0  502  0.40672708993E+02 -0.39195816072E+02 -0.92265309691E+02  0.10826329492E+03  0.41800000000E+01 0. -1.
        -11    1    1    2    0    0 -0.57265522019E+02  0.41742669326E+02 -0.43866114042E+02  0.83342824621E+02  0.00000000000E+00 0.  1.
         11    1    1    2    0    0  0.22750619820E+02  0.13411236247E+02 -0.84768642042E+02  0.88787243642E+02  0.00000000000E+00 0. -1.
</event>
<event>
 7    1  0.2693725E-009  0.8542267E+02  0.7561462E-02  0.1314331E+00
         -1   -1    0    0    0  501 -0.00000000000E+00  0.00000000000E+00  0.17741473906E+02  0.17741473906E+02  0.00000000000E+00 0.  1.
          1   -1    0    0  501    0  0.00000000000E+00 -0.00000000000E+00 -0.82226057393E+03  0.82226057393E+03  0.00000000000E+00 0. -1.
         25    2    1    2    0    0  0.12670273895E+02  0.12967327749E+02 -0.60541336902E+03  0.61846614854E+03  0.12508533915E+03 0.  0.
          5    1    3    3  502    0 -0.25582099640E+02  0.22239333105E+02 -0.44197782080E+02  0.55856495591E+02  0.41800000000E+01 0.  1.
         -5    1    3    3    0  502  0.38252373535E+02 -0.92720053558E+01 -0.56121558694E+03  0.56260965294E+03  0.41800000000E+01 0.  1.
        -11    1    1    2    0    0  0.35485141465E+02 -0.29551348593E+02 -0.92202490673E+02  0.10312020537E+03  0.00000000000E+00 0.  1.
         11    1    1    2    0    0 -0.48155415361E+02  0.16584020844E+02 -0.10690324033E+03  0.11841569393E+03  0.00000000000E+00 0. -1.
</event>
<event>
 7    1  0.2693725E-009  0.1868249E+03  0.7561462E-02  0.1161357E+00
          1   -1    0    0  501    0  0.00000000000E+00  0.00000000000E+00  0.22798498012E+03  0.22798498012E+03  0.00000000000E+00 0. -1.
         -1   -1    0    0    0  501 -0.00000000000E+00 -0.00000000000E+00 -0.17094836997E+03  0.17094836997E+03  0.00000000000E+00 0.  1.
         25    2    1    2    0    0 -0.15758356867E+03 -0.14812202868E+02  0.76607004772E+02  0.21580093478E+03  0.12509767305E+03 0.  0.
          5    1    3    3  502    0 -0.11822165657E+03  0.46038873152E+02  0.33153739534E+02  0.13119672545E+03  0.41800000000E+01 0.  1.
         -5    1    3    3    0  502 -0.39361912105E+02 -0.60851076019E+02  0.43453265237E+02  0.84604209334E+02  0.41800000000E+01 0.  1.
        -11    1    1    2    0    0  0.12962712721E+03 -0.18156424302E+02 -0.37767432864E+02  0.13623225329E+03  0.00000000000E+00 0.  1.
         11    1    1    2    0    0  0.27956441463E+02  0.32968627170E+02  0.18197038243E+02  0.46900162021E+02  0.00000000000E+00 0. -1.
</event>
<event>
 7    1  0.2693725E-009  0.3612946E+03  0.7561462E-02  0.1058072E+00
          2   -1    0    0  501    0  0.00000000000E+00  0.00000000000E+00  0.58260243520E+03  0.58260243520E+03  0.00000000000E+00 0. -1.
         -2   -1    0    0    0  501 -0.00000000000E+00 -0.00000000000E+00 -0.23229880862E+03  0.23229880862E+03  0.00000000000E+00 0.  1.
         25    2    1    2    0    0 -0.33873744233E+03  0.89926192466E+02  0.20294081636E+03  0.42386472997E+03  0.12508620802E+03 0.  0.
          5    1    3    3  502    0 -0.22049863442E+03  0.10553159260E+03  0.17675223559E+03  0.30168757018E+03  0.41800000000E+01 0. -1.
         -5    1    3    3    0  502 -0.11823880792E+03 -0.15605400135E+02  0.26188580770E+02  0.12217715979E+03  0.41800000000E+01 0. -1.
        -11    1    1    2    0    0  0.72608913996E+02 -0.53421930797E+02  0.61120098004E+02  0.10891108053E+03  0.00000000000E+00 0.  1.
         11    1    1    2    0    0  0.26612852834E+03 -0.36504261669E+02  0.86242712218E+02  0.28212543332E+03  0.00000000000E+00 0. -1.
</event>
<event>
 7    1  0.2693725E-009  0.1085649E+03  0.7561462E-02  0.1263251E+00
          1   -1    0    0  501    0  0.00000000000E+00  0.00000000000E+00  0.86059322425E+03  0.86059322425E+03  0.00000000000E+00 0. -1.
         -1   -1    0    0    0  501 -0.00000000000E+00 -0.00000000000E+00 -0.21749255075E+02  0.21749255075E+02  0.00000000000E+00 0.  1.
         25    2    1    2    0    0  0.20851546041E+02  0.26919858936E+02  0.70169830229E+03  0.71357419195E+03  0.12509258251E+03 0.  0.
          5    1    3    3  502    0  0.28617326690E+02 -0.44916374040E+02  0.21573771335E+03  0.22225360606E+03  0.41800000000E+01 0.  1.
         -5    1    3    3    0  502 -0.77657806490E+01  0.71836232976E+02  0.48596058894E+03  0.49132058589E+03  0.41800000000E+01 0.  1.
        -11    1    1    2    0    0  0.17249118198E+02 -0.45705589083E+02  0.41449198378E+02  0.64066910322E+02  0.00000000000E+00 0. -1.
         11    1    1    2    0    0 -0.38100664239E+02  0.18785730147E+02  0.95696468506E+02  0.10470137705E+03  0.00000000000E+00 0.  1.
</event>
<event>
 7    1  0.2693725E-009  0.8478005E+02  0.7561462E-02  0.1316009E+00
         -1   -1    0    0    0  501 -0.00000000000E+00  0.00000000000E+00  0.40304070886E+02  0.40304070886E+02  0.00000000000E+00 0.  1.
          1   -1    0    0  501    0  0.00000000000E+00 -0.00000000000E+00 -0.37730706298E+03  0.37730706298E+03  0.00000000000E+00 0. -1.
         25    2    1    2    0    0  0.45688388830E+02  0.20822939719E+02 -0.13668792608E+03  0.19196889241E+03  0.12508973909E+03 0.  0.
          5    1    3    3  502    0  0.74539842158E+01  0.31010859614E+02 -0.14731461030E+03  0.15078561637E+03  0.41800000000E+01 0. -1.
         -5    1    3    3    0  502  0.38234404614E+02 -0.10187919895E+02  0.10626684226E+02  0.41183276043E+02  0.41800000000E+01 0. -1.
        -11    1    1    2    0    0 -0.78659732047E+00 -0.46080009214E+02 -0.13376504199E+03  0.14148170357E+03  0.00000000000E+00 0.  1.
         11    1    1    2    0    0 -0.44901791510E+02  0.25257069495E+02 -0.66550024021E+02  0.84160537887E+02  0.00000000000E+00 0. -1.
</event>
<event>
 7    1  0.2693725E-009  0.1094777E+03  0.7561462E-02  0.1261540E+00
         -2   -1    0    0    0  501 -0.00000000000E+00  0.00000000000E+00  0.25772120779E+03  0.25772120779E+03  0.00000000000E+00 0.  1.
          2   -1    0    0  501    0  0.00000000000E+00 -0.00000000000E+00 -0.46855865149E+02  0.46855865149E+02  0.00000000000E+00 0. -1.
         25    2    1    2    0    0  0.13769889962E+02  0.26366300643E+01  0.13328820415E+03  0.18332592507E+03  0.12508432256E+03 0.  0.
          5    1    3    3  502    0  0.45296118013E+02 -0.47957448598E+02  0.68892567229E+02  0.95474150441E+02  0.41800000000E+01 0.  1.
         -5    1    3    3    0  502 -0.31526228051E+02  0.50594078662E+02  0.64395636921E+02  0.87851774628E+02  0.41800000000E+01 0.  1.
        -11    1    1    2    0    0  0.28238703351E+02 -0.31365354748E+02  0.37812430869E+02  0.56665596032E+02  0.00000000000E+00 0. -1.
         11    1    1    2    0    0 -0.42008593313E+02  0.28728724683E+02  0.39764707620E+02  0.64585551838E+02  0.00000000000E+00 0.  1.
</event>
<event>
 7    1  0.2693725E-009  0.2328499E+03  0.7561462E-02  0.1124650E+00
          2   -1    0    0  501    0  0.00000000000E+00  0.00000000000E+00  0.26547414816E+03  0.26547414816E+03  0.00000000000E+00 0. -1.
         -2   -1    0    0    0  501 -0.00000000000E+00 -0.00000000000E+00 -0.25963026289E+03  0.25963026289E+03  0.00000000000E+00 0.  1.
         25    2    1    2    0    0  0.20331515128E+03 -0.80634259523E+02  0.99521507244E+02  0.27090570605E+03  0.12508571708E+03 0.  0.
          5    1    3    3  502    0  0.14870693701E+03 -0.94386777363E+02  0.11735410085E+03  0.21168862568E+03  0.41800000000E+01 0.  1.
         -5    1    3    3    0  502  0.54608214267E+02  0.13752517840E+02 -0.17832593607E+02  0.59217080366E+02  0.41800000000E+01 0.  1.
        -11    1    1    2    0    0 -0.12592367721E+03  0.68311348103E+01 -0.71550177718E+02  0.14499263711E+03  0.00000000000E+00 0. -1.
         11    1    1    2    0    0 -0.77391474069E+02  0.73803124712E+02 -0.22127444252E+02  0.10920606789E+03  0.00000000000E+00 0.  1.
</event>
<event>
 7    1  0.2693725E-009  0.7403791E+02  0.7561462E-02  0.1346876E+00
         -1   -1    0    0    0  501 -0.00000000000E+00  0.00000000000E+00  0.46943635528E+02  0.46943635528E+02  0.00000000000E+00 0.  1.
          1   -1    0    0  501    0  0.00000000000E+00 -0.00000000000E+00 -0.28153333596E+03  0.28153333596E+03  0.00000000000E+00 0. -1.
         25    2    1    2    0    0 -0.49099928958E+01  0.24105387744E+02 -0.17245993715E+03  0.21446422488E+03  0.12508915254E+03 0.  0.
          5    1    3    3  502    0 -0.28115534781E+02  0.56068890557E+02 -0.16143596821E+03  0.17324332027E+03  0.41800000000E+01 0.  1.
         -5    1    3    3    0  502  0.23205541885E+02 -0.31963502813E+02 -0.11023968938E+02  0.41220904617E+02  0.41800000000E+01 0.  1.
        -11    1    1    2    0    0 -0.16202352595E+02 -0.48323467168E+01 -0.79020553919E+02  0.80809131576E+02  0.00000000000E+00 0. -1.
         11    1    1    2    0    0  0.21112345490E+02 -0.19273041027E+02  0.16890790639E+02  0.33203615028E+02  0.00000000000E+00 0.  1.
</event>
<event>
 7    1  0.2693725E-009  0.2331218E+03  0.7561462E-02  0.1124462E+00
         -1   -1    0    0    0  501 -0.00000000000E+00  0.00000000000E+00  0.90308176376E+03  0.90308176376E+03  0.00000000000E+00 0.  1.
          1   -1    0    0  501    0  0.00000000000E+00 -0.00000000000E+00 -0.73090383566E+02  0.73090383566E+02  0.00000000000E+00 0. -1.
         25    2    1    2    0    0  0.31433190773E+01 -0.22874849170E+03  0.34722818046E+03  0.43422308127E+03  0.12508605876E+03 0.  0.
          5    1    3    3  502    0  0.21956872323E+02 -0.17182416179E+03  0.32829127607E+03  0.37121190870E+03  0.41800000000E+01 0. -1.
         -5    1    3    3    0  502 -0.18813553246E+02 -0.56924329908E+02  0.18936904392E+02  0.63011172574E+02  0.41800000000E+01 0. -1.
        -11    1    1    2    0    0  0.17151217504E+02  0.16693563541E+03  0.41673089574E+03  0.44925083205E+03  0.00000000000E+00 0.  1.
         11    1    1    2    0    0 -0.20294536581E+02  0.61812856283E+02  0.66032303995E+02  0.92698234006E+02  0.00000000000E+00 0. -1.
</event>
<event>
 7    1  0.2693725E-009  0.1009268E+03  0.7561462E-02  0.1278359E+00
         -2   -1    0    0    0  501 -0.00000000000E+00  0.00000000000E+00  0.28293877089E+03  0.28293877089E+03  0.00000000000E+00 0.  1.
          2   -1    0    0  501    0  0.00000000000E+00 -0.00000000000E+00 -0.65574099823E+02  0.65574099823E+02  0.00000000000E+00 0. -1.
         25    2    1    2    0    0  0.53513575749E+02  0.19727947134E+02  0.42977835912E+02  0.14404078124E+03  0.12509099725E+03 0.  0.
          5    1    3    3  502    0  0.75457594866E+02  0.18620286950E+02  0.72928092944E+02  0.10666087778E+03  0.41800000000E+01 0.  1.
         -5    1    3    3    0  502 -0.21944019117E+02  0.11076601845E+01 -0.29950257032E+02  0.37379903456E+02  0.41800000000E+01 0.  1.
        -11    1    1    2    0    0 -0.30219031744E+02  0.32553751435E+02  0.10824253080E+03  0.11700163284E+03  0.00000000000E+00 0. -1.
         11    1    1    2    0    0 -0.23294544005E+02 -0.52281698569E+02  0.66144304351E+02  0.87470456634E+02  0.00000000000E+00 0.  1.
</event>
<event>
 7    1  0.2693725E-009  0.8005251E+02  0.7561462E-02  0.1328902E+00
         -2   -1    0    0    0  501 -0.00000000000E+00  0.00000000000E+00  0.15633114238E+03  0.15633114238E+03  0.00000000000E+00 0.  1.
          2   -1    0    0  501    0  0.00000000000E+00 -0.00000000000E+00 -0.16755239829E+03  0.16755239829E+03  0.00000000000E+00 0. -1.
         25    2    1    2    0    0  0.56958238121E+01  0.67696489898E+01  0.11413314360E+03  0.16956956936E+03  0.12509673787E+03 0.  0.
          5    1    3    3  502    0 -0.33890559355E+02 -0.33029241923E+02  0.62930869930E+01  0.47922606141E+02  0.41800000000E+01 0. -1.
         -5    1    3    3    0  502  0.39586383167E+02  0.39798890913E+02  0.10784005661E+03  0.12164696322E+03  0.41800000000E+01 0. -1.
        -11    1    1    2    0    0 -0.18746972189E+02  0.19453559262E+02 -0.15164478103E+01  0.27059001241E+02  0.00000000000E+00 0.  1.
         11    1    1    2    0    0  0.13051148377E+02 -0.26223208252E+02 -0.12383795171E+03  0.12725497007E+03  0.00000000000E+00 0. -1.
</event>
<event>
 7    1  0.2693725E-009  0.6402805E+02  0.7561462E-02  0.1381665E+00
          2   -1    0    0  501    0  0.00000000000E+00  0.00000000000E+00  0.69354747162E+02  0.69354747162E+02  0.00000000000E+00 0. -1.
         -2   -1    0    0    0  501 -0.00000000000E+00 -0.00000000000E+00 -0.20135277034E+03  0.20135277034E+03  0.00000000000E+00 0.  1.
         25    2    1    2    0    0  0.40584210928E+00  0.37257822790E+02 -0.10705483896E+03  0.16881097526E+03  0.12509235292E+03 0.  0.
          5    1    3    3  502    0 -0.24173434626E+02  0.22419118522E+02 -0.12850260143E+03  0.13273041396E+03  0.41800000000E+01 0.  1.
         -5    1    3    3    0  502  0.24579276735E+02  0.14838704267E+02  0.21447762466E+02  0.36080561303E+02  0.41800000000E+01 0.  1.
        -11    1    1    2    0    0  0.13087830861E+02 -0.47243236863E+02  0.20738111311E+02  0.53228601397E+02  0.00000000000E+00 0. -1.
         11    1    1    2    0    0 -0.13493672970E+02  0.99854140735E+01 -0.45681295528E+02  0.48667940840E+02  0.00000000000E+00 0.  1.
</event>
<event>
 7    1  0.2693725E-009  0.9614404E+02  0.7561462E-02  0.1288620E+00
         -2   -1    0    0    0  501 -0.00000000000E+00  0.00000000000E+00  0.29149276917E+03  0.29149276917E+03  0.00000000000E+00 0.  1.
          2   -1    0    0  501    0  0.00000000000E+00 -0.00000000000E+00 -0.55294325702E+02  0.55294325702E+02  0.00000000000E+00 0. -1.
         25    2    1    2    0    0  0.27337792184E+02  0.13294207948E+02  0.21467503635E+03  0.25031393795E+03  0.12509038914E+03 0.  0.
          5    1    3    3  502    0  0.42566253585E+02  0.46542148731E+02  0.20156069583E+03  0.21123977859E+03  0.41800000000E+01 0. -1.
         -5    1    3    3    0  502 -0.15228461401E+02 -0.33247940783E+02  0.13114340520E+02  0.39074159367E+02  0.41800000000E+01 0. -1.
        -11    1    1    2    0    0  0.31851633914E+02 -0.80229887742E+01  0.16715850528E+02  0.36855319707E+02  0.00000000000E+00 0.  1.
         11    1    1    2    0    0 -0.59189426098E+02 -0.52712191742E+01  0.48075565892E+01  0.59617837212E+02  0.00000000000E+00 0. -1.
</event>
<event>
 7    1  0.2693725E-009  0.5398642E+02  0.7561462E-02  0.1424954E+00
          2   -1    0    0  501    0  0.00000000000E+00  0.00000000000E+00  0.81087216749E+03  0.81087216749E+03  0.00000000000E+00 0.  1.
         -2   -1    0    0    0  501 -0.00000000000E+00 -0.00000000000E+00 -0.20935290744E+02  0.20935290744E+02  0.00000000000E+00 0. -1.
         25    2    1    2    0    0  0.26675035324E+02 -0.16331704959E+02  0.63858164233E+03  0.65146972100E+03  0.12509197159E+03 0.  0.
          5    1    3    3  502    0  0.19668007506E+02 -0.12818977158E+02  0.64163388053E+03  0.64207683787E+03  0.41800000000E+01 0. -1.
         -5    1    3    3    0  502  0.70070278185E+01 -0.35127278014E+01 -0.30522381915E+01  0.93928831268E+01  0.41800000000E+01 0. -1.
        -11    1    1    2    0    0 -0.38885103405E+02 -0.14952757095E+02  0.22848085001E+02  0.47514957642E+02  0.00000000000E+00 0. -1.
         11    1    1    2    0    0  0.12210068080E+02  0.31284462054E+02  0.12850714941E+03  0.13282277959E+03  0.00000000000E+00 0.  1.
</event>
<event>
 7    1  0.2693725E-009  0.1023462E+03  0.7561462E-02  0.1275438E+00
          1   -1    0    0  501    0  0.00000000000E+00  0.00000000000E+00  0.37964036039E+02  0.37964036039E+02  0.00000000000E+00 0. -1.
         -1   -1    0    0    0  501 -0.00000000000E+00 -0.00000000000E+00 -0.48101202958E+03  0.48101202958E+03  0.00000000000E+00 0.  1.
         25    2    1    2    0    0 -0.50580341236E+02  0.29460965169E+01 -0.12508482552E+03  0.18401463992E+03  0.12509246071E+03 0.  0.
          5    1    3    3  502    0  0.18840311426E+02  0.22305617986E+02 -0.10502590464E+03  0.10908900482E+03  0.41800000000E+01 0.  1.
         -5    1    3    3    0  502 -0.69420652663E+02 -0.19359521469E+02 -0.20058920878E+02  0.74925635095E+02  0.41800000000E+01 0.  1.
        -11    1    1    2    0    0 -0.25694876900E+02 -0.69753278912E+01 -0.54601359336E+02  0.60746936873E+02  0.00000000000E+00 0.  1.
         11    1    1    2    0    0  0.76275218136E+02  0.40292313743E+01 -0.26336180869E+03  0.27421448883E+03  0.00000000000E+00 0. -1.
</event>
<event>
 7    1  0.2693725E-009  0.1061603E+03  0.7561462E-02  0.1267850E+00
         -1   -1    0    0    0  501 -0.00000000000E+00  0.00000000000E+00  0.37308485243E+03  0.37308485243E+03  0.00000000000E+00 0. -1.
          1   -1    0    0  501    0  0.00000000000E+00 -0.00000000000E+00 -0.45549111676E+02  0.45549111676E+02  0.00000000000E+00 0.  1.
         25    2    1    2    0    0  0.55190563491E+02  0.24433440512E+02  0.11684394293E+03  0.18150269807E+03  0.12509089133E+03 0.  0.
          5    1    3    3  502    0  0.15849467754E+02 -0.40995854577E+02  0.28530229127E+01  0.44243393408E+02  0.41800000000E+01 0. -1.
         -5    1    3    3    0  502  0.39341095737E+02  0.65429295089E+02  0.11399092002E+03  0.13725930466E+03  0.41800000000E+01 0. -1.
        -11    1    1    2    0    0 -0.39973182633E+02 -0.48737864459E+02  0.72833058672E+02  0.96321800218E+02  0.00000000000E+00 0.  1.
         11    1    1    2    0    0 -0.15217380858E+02  0.24304423947E+02  0.13785873915E+03  0.14080946582E+03  0.00000000000E+00 0. -1.
</event>
<event>
 7    1  0.2693725E-009  0.2050204E+03  0.7561462E-02  0.1145571E+00
          1   -1    0    0  501    0  0.00000000000E+00  0.00000000000E+00  0.87861392145E+03  0.87861392145E+03  0.00000000000E+00 0. -1.
         -1   -1    0    0    0  501 -0.00000000000E+00 -0.00000000000E+00 -0.54511531444E+02  0.54511531444E+02  0.00000000000E+00 0.  1.
         25    2    1    2    0    0  0.57643606994E+02  0.17486985143E+03  0.34001230379E+03  0.40639664895E+03  0.12509044402E+03 0.  0.
          5    1    3    3  502    0 -0.27279357214E+02  0.46024981865E+01  0.75622921079E+02  0.80632778149E+02  0.41800000000E+01 0.  1.
         -5    1    3    3    0  502  0.84922964208E+02  0.17026735324E+03  0.26438938271E+03  0.32576387080E+03  0.41800000000E+01 0.  1.
        -11    1    1    2    0    0 -0.51054799104E+02 -0.69852265446E+02  0.32245475711E+03  0.33386075223E+03  0.00000000000E+00 0.  1.
         11    1    1    2    0    0 -0.65888078896E+01 -0.10501758598E+03  0.16163532911E+03  0.19286805171E+03  0.00000000000E+00 0. -1.
</event>
<event>
 7    1  0.2693725E-009  0.6882282E+02  0.7561462E-02  0.1364142E+00
         -2   -1    0    0    0  501 -0.00000000000E+00  0.00000000000E+00  0.76377743947E+01  0.76377743947E+01  0.00000000000E+00 0.  1.
          2   -1    0    0  501    0  0.00000000000E+00 -0.00000000000E+00 -0.15988615750E+04  0.15988615750E+04  0.00000000000E+00 0. -1.
         25    2    1    2    0    0 -0.30531294673E+02 -0.96786958396E+01 -0.12160601104E+04  0.12228962298E+04  0.12508860716E+03 0.  0.
          5    1    3    3  502    0  0.11905213195E+02 -0.87582347503E+01 -0.16367495095E+02  0.22445669356E+02  0.41800000000E+01 0.  1.
         -5    1    3    3    0  502 -0.42436507867E+02 -0.92046108936E+00 -0.11996926153E+04  0.12004505605E+04  0.41800000000E+01 0.  1.
        -11    1    1    2    0    0 -0.20566133164E+02  0.18640867891E+02 -0.14929888081E+03  0.15185718159E+03  0.00000000000E+00 0. -1.
         11    1    1    2    0    0  0.51097427837E+02 -0.89621720509E+01 -0.22586480936E+03  0.23174593797E+03  0.00000000000E+00 0.  1.
</event>
<event>
 7    1  0.2693725E-009  0.7197031E+02  0.7561462E-02  0.1353518E+00
          1   -1    0    0  501    0  0.00000000000E+00  0.00000000000E+00  0.37274715005E+03  0.37274715005E+03  0.00000000000E+00 0. -1.
         -1   -1    0    0    0  501 -0.00000000000E+00 -0.00000000000E+00 -0.40803106128E+02  0.40803106128E+02  0.00000000000E+00 0.  1.
         25    2    1    2    0    0 -0.28272302111E+02  0.14427163395E+02  0.28788487004E+03  0.31548140408E+03  0.12507338571E+03 0.  0.
          5    1    3    3  502    0  0.14156661352E+02 -0.21364604529E+01  0.26297827571E+03  0.26340087589E+03  0.41800000000E+01 0.  1.
         -5    1    3    3    0  502 -0.42428963462E+02  0.16563623848E+02  0.24906594325E+02  0.52080528188E+02  0.41800000000E+01 0.  1.
        -11    1    1    2    0    0 -0.14489716054E+02 -0.33473619562E+02  0.34672435518E+02  0.50325071909E+02  0.00000000000E+00 0. -1.
         11    1    1    2    0    0  0.42762018165E+02  0.19046456166E+02  0.93867383718E+01  0.47743780194E+02  0.00000000000E+00 0.  1.
</event>
<event>
 7    1  0.2693725E-009  0.4272805E+03  0.7561462E-02  0.1034723E+00
         -2   -1    0    0    0  501 -0.00000000000E+00  0.00000000000E+00  0.19157772118E+03  0.19157772118E+03  0.00000000000E+00 0.  1.
          2   -1    0    0  501    0  0.00000000000E+00 -0.00000000000E+00 -0.13986975142E+04  0.13986975142E+04  0.00000000000E+00 0. -1.
         25    2    1    2    0    0 -0.48562851095E+02 -0.41692758815E+03 -0.10424174310E+04  0.11306941419E+04  0.12509267705E+03 0.  0.
          5    1    3    3  502    0  0.28510549036E+02 -0.19935471705E+03 -0.57738360741E+03  0.61150998122E+03  0.41800000000E+01 0. -1.
         -5    1    3    3    0  502 -0.77073400131E+02 -0.21757287110E+03 -0.46503382360E+03  0.51918416071E+03  0.41800000000E+01 0. -1.
        -11    1    1    2    0    0 -0.64177954679E+01  0.11781794981E+02  0.81356674656E+01  0.15690375290E+02  0.00000000000E+00 0.  1.
         11    1    1    2    0    0  0.54980646563E+02  0.40514579317E+03 -0.17283802944E+03  0.44389071813E+03  0.00000000000E+00 0. -1.
</event>
<event>
 7    1  0.2693725E-009  0.1353680E+03  0.7561462E-02  0.1219701E+00
         -1   -1    0    0    0  501 -0.00000000000E+00  0.00000000000E+00  0.33475587249E+03  0.33475587249E+03  0.00000000000E+00 0.  1.
          1   -1    0    0  501    0  0.00000000000E+00 -0.00000000000E+00 -0.63411492654E+02  0.63411492654E+02  0.00000000000E+00 0. -1.
         25    2    1    2    0    0 -0.14096645279E+02 -0.96862168057E+02  0.15821588716E+03  0.22418785263E+03  0.12508769448E+03 0.  0.
          5    1    3    3  502    0  0.25706431289E+02 -0.11194121041E+03  0.12670187240E+03  0.17106283076E+03  0.41800000000E+01 0. -1.
         -5    1    3    3    0  502 -0.39803076568E+02  0.15079042357E+02  0.31514014765E+02  0.53125021875E+02  0.41800000000E+01 0. -1.
        -11    1    1    2    0    0 -0.19040023675E+02  0.62347369118E+02  0.18213046766E+02  0.67686276378E+02  0.00000000000E+00 0. -1.
         11    1    1    2    0    0  0.33136668954E+02  0.34514798939E+02  0.94915445911E+02  0.10629323613E+03  0.00000000000E+00 0.  1.
</event>
<event>
 7    1  0.2693725E-009  0.9223017E+02  0.7561462E-02  0.1297539E+00
         -1   -1    0    0    0  501 -0.00000000000E+00  0.00000000000E+00  0.90344674870E+02  0.90344674870E+02  0.00000000000E+00 0.  1.
          1   -1    0    0  501    0  0.00000000000E+00 -0.00000000000E+00 -0.15037845058E+03  0.15037845058E+03  0.00000000000E+00 0. -1.
         25    2    1    2    0    0  0.39196208655E+02 -0.78587604085E+01 -0.14701734506E+02  0.13214150977E+03  0.12508850754E+03 0.  0.
          5    1    3    3  502    0  0.10024080270E+02 -0.42215026417E+02 -0.55933851197E+02  0.70913036533E+02  0.41800000000E+01 0. -1.
         -5    1    3    3    0  502  0.29172128385E+02  0.34356266009E+02  0.41232116690E+02  0.61228473241E+02  0.41800000000E+01 0. -1.
        -11    1    1    2    0    0  0.28037560414E+02  0.16315642241E+01 -0.15907099133E+01  0.28130004512E+02  0.00000000000E+00 0.  1.
         11    1    1    2    0    0 -0.67233769070E+02  0.62271961844E+01 -0.43741331288E+02  0.80451611161E+02  0.00000000000E+00 0. -1.
</event>
<event>
 7    1  0.2693725E-009  0.1451481E+03  0.7561462E-02  0.1206565E+00
         -1   -1    0    0    0  501 -0.00000000000E+00  0.00000000000E+00  0.60518241498E+02  0.60518241498E+02  0.00000000000E+00 0.  1.
          1   -1    0    0  501    0  0.00000000000E+00 -0.00000000000E+00 -0.53467205864E+03  0.53467205864E+03  0.00000000000E+00 0. -1.
         25    2    1    2    0    0  0.75939531489E+02 -0.11050539029E+03 -0.16889264316E+03  0.24930538642E+03  0.12510074764E+03 0.  0.
          5    1    3    3  502    0  0.30917202638E+02 -0.64469184732E+01  0.13422323702E+02  0.34569746171E+02  0.41800000000E+01 0. -1.
         -5    1    3    3    0  502  0.45022328852E+02 -0.10405847182E+03 -0.18231496687E+03  0.21473564025E+03  0.41800000000E+01 0. -1.
        -11    1    1    2    0    0 -0.36664436044E+02  0.96588026639E+02 -0.13167302579E+03  0.16736580738E+03  0.00000000000E+00 0.  1.
         11    1    1    2    0    0 -0.39275095446E+02  0.13917363652E+02 -0.17358814819E+03  0.17851910633E+03  0.00000000000E+00 0. -1.
</event>
<event>
 7    1  0.2693725E-009  0.1996704E+03  0.7561462E-02  0.1150017E+00
         -4   -1    0    0    0  501 -0.00000000000E+00  0.00000000000E+00  0.21619925332E+03  0.21619925332E+03  0.00000000000E+00 0.  1.
          4   -1    0    0  501    0  0.00000000000E+00 -0.00000000000E+00 -0.22001712594E+03  0.22001712594E+03  0.00000000000E+00 0. -1.
         25    2    1    2    0    0  0.18555546960E+03  0.29015916258E+02  0.15774008745E+02  0.22620680466E+03  0.12509174005E+03 0.  0.
          5    1    3    3  502    0  0.53009625261E+02 -0.22599106702E+02  0.53761858268E+02  0.78921161918E+02  0.41800000000E+01 0. -1.
         -5    1    3    3    0  502  0.13254584434E+03  0.51615022960E+02 -0.37987849523E+02  0.14728564274E+03  0.41800000000E+01 0. -1.
        -11    1    1    2    0    0 -0.11903447119E+03  0.14284758537E+02  0.19613732501E+02  0.12148233683E+03  0.00000000000E+00 0.  1.
         11    1    1    2    0    0 -0.66520998413E+02 -0.43300674795E+02 -0.39205613865E+02  0.88527237764E+02  0.00000000000E+00 0. -1.
</event>
<event>
 7    1  0.2693725E-009  0.1018169E+03  0.7561462E-02  0.1276521E+00
          2   -1    0    0  501    0  0.00000000000E+00  0.00000000000E+00  0.29237225988E+03  0.29237225988E+03  0.00000000000E+00 0. -1.
         -2   -1    0    0    0  501 -0.00000000000E+00 -0.00000000000E+00 -0.55539671276E+02  0.55539671276E+02  0.00000000000E+00 0.  1.
         25    2    1    2    0    0  0.21983548794E+02 -0.60982637715E+02  0.14832334526E+03  0.20457324735E+03  0.12509292650E+03 0.  0.
          5    1    3    3  502    0  0.17262006924E+02 -0.92476530027E+02  0.14415341921E+03  0.17218468619E+03  0.41800000000E+01 0.  1.
         -5    1    3    3    0  502  0.47215418702E+01  0.31493892312E+02  0.41699260535E+01  0.32388561158E+02  0.41800000000E+01 0.  1.
        -11    1    1    2    0    0 -0.20800967127E+02  0.50528300993E+01 -0.14683342267E+02  0.25957886385E+02  0.00000000000E+00 0.  1.
         11    1    1    2    0    0 -0.11825816671E+01  0.55929807615E+02  0.10319258561E+03  0.11738079743E+03  0.00000000000E+00 0. -1.
</event>
<event>
 7    1  0.2693725E-009  0.9341461E+02  0.7561462E-02  0.1294787E+00
          4   -1    0    0  501    0  0.00000000000E+00  0.00000000000E+00  0.36768911943E+02  0.36768911943E+02  0.00000000000E+00 0. -1.
         -4   -1    0    0    0  501 -0.00000000000E+00 -0.00000000000E+00 -0.40522707621E+03  0.40522707621E+03  0.00000000000E+00 0.  1.
         25    2    1    2    0    0  0.28840831154E+02  0.44924442058E+02 -0.23803965929E+03  0.27415017467E+03  0.12508173265E+03 0.  0.
          5    1    3    3  502    0  0.44667761538E+01  0.54362541088E+02 -0.24135181840E+03  0.24747406048E+03  0.41800000000E+01 0. -1.
         -5    1    3    3    0  502  0.24374055000E+02 -0.94380990303E+01  0.33121591160E+01  0.26676114194E+02  0.41800000000E+01 0. -1.
        -11    1    1    2    0    0 -0.34197137875E+02 -0.71120950669E+02 -0.96925812224E+02  0.12498898727E+03  0.00000000000E+00 0.  1.
         11    1    1    2    0    0  0.53563067209E+01  0.26196508611E+02 -0.33492692757E+02  0.42856826215E+02  0.00000000000E+00 0. -1.
</event>
<event>
 7    1  0.2693725E-009  0.1705186E+03  0.7561462E-02  0.1177308E+00
         -2   -1    0    0    0  501 -0.00000000000E+00  0.00000000000E+00  0.22995181245E+02  0.22995181245E+02  0.00000000000E+00 0.  1.
          2   -1    0    0  501    0  0.00000000000E+00 -0.00000000000E+00 -0.13335063160E+04  0.13335063160E+04  0.00000000000E+00 0. -1.
         25    2    1    2    0    0  0.61613928472E+02  0.12051023523E+03 -0.79105488847E+03  0.81224187752E+03  0.12510011210E+03 0.  0.
          5    1    3    3  502    0 -0.35651911307E+02  0.59133728705E+02 -0.28852070399E+03  0.29669770083E+03  0.41800000000E+01 0. -1.
         -5    1    3    3    0  502  0.97265839779E+02  0.61376506522E+02 -0.50253418449E+03  0.51554417669E+03  0.41800000000E+01 0. -1.
        -11    1    1    2    0    0 -0.73089566152E+02 -0.58243315349E+02 -0.37620537705E+03  0.38764010910E+03  0.00000000000E+00 0. -1.
         11    1    1    2    0    0  0.11475637681E+02 -0.62266919878E+02 -0.14325086922E+03  0.15661951061E+03  0.00000000000E+00 0.  1.
</event>
<event>
 7    1  0.2693725E-009  0.7797038E+02  0.7561462E-02  0.1334912E+00
         -2   -1    0    0    0  501 -0.00000000000E+00  0.00000000000E+00  0.22795026352E+03  0.22795026352E+03  0.00000000000E+00 0.  1.
          2   -1    0    0  501    0  0.00000000000E+00 -0.00000000000E+00 -0.62358049925E+02  0.62358049925E+02  0.00000000000E+00 0. -1.
         25    2    1    2    0    0 -0.42400395802E+02 -0.93909349280E+01  0.78417831822E+02  0.15389317627E+03  0.12509104737E+03 0.  0.
          5    1    3    3  502    0  0.21573335555E+02 -0.92782596624E+01  0.86082701362E+02  0.89326361076E+02  0.41800000000E+01 0. -1.
         -5    1    3    3    0  502 -0.63973731357E+02 -0.11267526561E+00 -0.76648695396E+01  0.64566815196E+02  0.41800000000E+01 0. -1.
        -11    1    1    2    0    0 -0.44480918696E+01  0.19542014511E+02  0.86168906801E+02  0.88468956995E+02  0.00000000000E+00 0.  1.
         11    1    1    2    0    0  0.46848487672E+02 -0.10151079584E+02  0.10054749726E+01  0.47946180179E+02  0.00000000000E+00 0. -1.
</event>
<event>
 7    1  0.2693725E-009  0.1129423E+03  0.7561462E-02  0.1255216E+00
          1   -1    0    0  501    0  0.00000000000E+00  0.00000000000E+00  0.93737268763E+03  0.93737268763E+03  0.00000000000E+00 0. -1.
         -1   -1    0    0    0  501 -0.00000000000E+00 -0.00000000000E+00 -0.19009834244E+02  0.19009834244E+02  0.00000000000E+00 0.  1.
         25    2    1    2    0    0 -0.31588536178E+02 -0.66090218822E+02  0.58962088002E+03  0.60717881593E+03  0.12509028626E+03 0.  0.
          5    1    3    3  502    0 -0.75167993089E+02 -0.28398177583E+02  0.24853028777E+03  0.26123066438E+03  0.41800000000E+01 0. -1.
         -5    1    3    3    0  502  0.43579456911E+02 -0.37692041239E+02  0.34109059225E+03  0.34594815155E+03  0.41800000000E+01 0. -1.
        -11    1    1    2    0    0  0.34656508526E+02  0.17242703060E+02  0.37558053858E+02  0.53935070239E+02  0.00000000000E+00 0.  1.
         11    1    1    2    0    0 -0.30679723485E+01  0.48847515762E+02  0.29118391950E+03  0.29526863570E+03  0.00000000000E+00 0. -1.
</event>
<event>
 7    1  0.2693725E-009  0.1113096E+03  0.7561462E-02  0.1258164E+00
          2   -1    0    0  501    0  0.00000000000E+00  0.00000000000E+00  0.25809885543E+04  0.25809885543E+04  0.00000000000E+00 0. -1.
         -2   -1    0    0    0  501 -0.00000000000E+00 -0.00000000000E+00 -0.11631752922E+02  0.11631752922E+02  0.00000000000E+00 0.  1.
         25    2    1    2    0    0  0.15970300202E+02  0.50923951889E+02  0.22778292888E+04  0.22818855753E+04  0.12508880951E+03 0.  0.
          5    1    3    3  502    0  0.30329546515E+02  0.78800078053E+02  0.97092079908E+03  0.97459427670E+03  0.41800000000E+01 0.  1.
         -5    1    3    3    0  502 -0.14359246313E+02 -0.27876126163E+02  0.13069084897E+04  0.13072912986E+04  0.41800000000E+01 0.  1.
        -11    1    1    2    0    0 -0.16133847322E+02  0.25416804642E+02  0.63666882697E+02  0.70425754806E+02  0.00000000000E+00 0. -1.
         11    1    1    2    0    0  0.16354712000E+00 -0.76340756531E+02  0.22786062986E+03  0.24030897715E+03  0.00000000000E+00 0.  1.
</event>
<event>
 7    1  0.2693725E-009  0.9047296E+02  0.7561462E-02  0.1301710E+00
          1   -1    0    0  501    0  0.00000000000E+00  0.00000000000E+00  0.12782028567E+03  0.12782028567E+03  0.00000000000E+00 0. -1.
         -1   -1    0    0    0  501 -0.00000000000E+00 -0.00000000000E+00 -0.10850163647E+03  0.10850163647E+03  0.00000000000E+00 0.  1.
         25    2    1    2    0    0 -0.34489856728E+01  0.68401866749E+01 -0.34218569842E+02  0.12990859504E+03  0.12508656557E+03 0.  0.
          5    1    3    3  502    0 -0.39155785728E+02  0.39587246081E+02  0.17890429817E+02  0.58633313801E+02  0.41800000000E+01 0. -1.
         -5    1    3    3    0  502  0.35706800055E+02 -0.32747059406E+02 -0.52108999659E+02  0.71275281236E+02  0.41800000000E+01 0. -1.
        -11    1    1    2    0    0 -0.16307923974E+02  0.30300726658E+02 -0.45311548649E+01  0.34707546510E+02  0.00000000000E+00 0.  1.
         11    1    1    2    0    0  0.19756909647E+02 -0.37140913333E+02  0.58068373908E+02  0.71705780592E+02  0.00000000000E+00 0. -1.
</event>
<event>
 7    1  0.2693725E-009  0.7272469E+02  0.7561462E-02  0.1351065E+00
         -3   -1    0    0    0  501 -0.00000000000E+00  0.00000000000E+00  0.15988834625E+02  0.15988834625E+02  0.00000000000E+00 0.  1.
          3   -1    0    0  501    0  0.00000000000E+00 -0.00000000000E+00 -0.75967241749E+03  0.75967241749E+03  0.00000000000E+00 0. -1.
         25    2    1    2    0    0  0.24204739296E+01  0.96554422942E+01 -0.48890836445E+03  0.50475535188E+03  0.12508992830E+03 0.  0.
          5    1    3    3  502    0 -0.34509515853E+01 -0.30366709961E+02 -0.26804584589E+02  0.40865686042E+02  0.41800000000E+01 0. -1.
         -5    1    3    3    0  502  0.58714255149E+01  0.40022152255E+02 -0.46210377986E+03  0.46388966584E+03  0.41800000000E+01 0. -1.
        -11    1    1    2    0    0  0.81914649613E+01  0.30925109647E+02 -0.36063321876E+02  0.48208149618E+02  0.00000000000E+00 0.  1.
         11    1    1    2    0    0 -0.10611938891E+02 -0.40580551941E+02 -0.21871189653E+03  0.22269775061E+03  0.00000000000E+00 0. -1.
</event>
<event>
 7    1  0.2693725E-009  0.2224337E+03  0.7561462E-02  0.1132082E+00
         -2   -1    0    0    0  501 -0.00000000000E+00  0.00000000000E+00  0.98939191964E+02  0.98939191964E+02  0.00000000000E+00 0.  1.
          2   -1    0    0  501    0  0.00000000000E+00 -0.00000000000E+00 -0.54490072520E+03  0.54490072520E+03  0.00000000000E+00 0. -1.
         25    2    1    2    0    0  0.20081169249E+03  0.24836489526E+02 -0.18083121340E+03  0.29881242581E+03  0.12508697385E+03 0.  0.
          5    1    3    3  502    0  0.28447810684E+02  0.53599494654E+02 -0.29465747774E+02  0.67586140974E+02  0.41800000000E+01 0.  1.
         -5    1    3    3    0  502  0.17236388180E+03 -0.28763005128E+02 -0.15136546563E+03  0.23122628484E+03  0.41800000000E+01 0.  1.
        -11    1    1    2    0    0 -0.48733982693E+02  0.16838170668E+02 -0.23896323029E+02  0.56829211809E+02  0.00000000000E+00 0.  1.
         11    1    1    2    0    0 -0.15207770979E+03 -0.41674660195E+02 -0.24123399681E+03  0.28819827955E+03  0.00000000000E+00 0. -1.
</event>
<event>
 7    1  0.2693725E-009  0.1098833E+03  0.7561462E-02  0.1260786E+00
         -1   -1    0    0    0  501 -0.00000000000E+00  0.00000000000E+00  0.72990210489E+02  0.72990210489E+02  0.00000000000E+00 0.  1.
          1   -1    0    0  501    0  0.00000000000E+00 -0.00000000000E+00 -0.17879477336E+03  0.17879477336E+03  0.00000000000E+00 0. -1.
         25    2    1    2    0    0 -0.23447842143E+02 -0.90496190924E+01 -0.83860736790E+02  0.15268379188E+03  0.12509204699E+03 0.  0.
          5    1    3    3  502    0 -0.21332023386E+01  0.55555172534E+02 -0.19853340231E+02  0.59182389829E+02  0.41800000000E+01 0. -1.
         -5    1    3    3    0  502 -0.21314639805E+02 -0.64604791627E+02 -0.64007396559E+02  0.93501402050E+02  0.41800000000E+01 0. -1.
        -11    1    1    2    0    0  0.58663725278E+02 -0.27142603287E+01 -0.72571593895E+01  0.59173188481E+02  0.00000000000E+00 0. -1.
         11    1    1    2    0    0 -0.35215883135E+02  0.11763879421E+02 -0.14686666689E+02  0.39928003487E+02  0.00000000000E+00 0.  1.
</event>
<event>
 7    1  0.2693725E-009  0.1395500E+03  0.7561462E-02  0.1213936E+00
         -2   -1    0    0    0  501 -0.00000000000E+00  0.00000000000E+00  0.21162088069E+02  0.21162088069E+02  0.00000000000E+00 0.  1.
          2   -1    0    0  501    0  0.00000000000E+00 -0.00000000000E+00 -0.14175200119E+04  0.14175200119E+04  0.00000000000E+00 0. -1.
         25    2    1    2    0    0 -0.94969045449E+02 -0.61701668163E+02 -0.10454806600E+04  0.10590102446E+04  0.12508665883E+03 0.  0.
          5    1    3    3  502    0 -0.65180675697E+01 -0.61010811259E+02 -0.68728165215E+03  0.69002778645E+03  0.41800000000E+01 0. -1.
         -5    1    3    3    0  502 -0.88450977879E+02 -0.69085690366E+00 -0.35819900784E+03  0.36898245811E+03  0.41800000000E+01 0. -1.
        -11    1    1    2    0    0  0.25700886740E+02  0.53426315143E+02 -0.77742628997E+02  0.97769233875E+02  0.00000000000E+00 0.  1.
         11    1    1    2    0    0  0.69268158709E+02  0.82753530195E+01 -0.27313463484E+03  0.28190262153E+03  0.00000000000E+00 0. -1.
</event>
<event>
 7    1  0.2693725E-009  0.1126496E+03  0.7561462E-02  0.1255740E+00
         -2   -1    0    0    0  501 -0.00000000000E+00  0.00000000000E+00  0.57716012392E+02  0.57716012392E+02  0.00000000000E+00 0.  1.
          2   -1    0    0  501    0  0.00000000000E+00 -0.00000000000E+00 -0.38327442438E+03  0.38327442438E+03  0.00000000000E+00 0. -1.
         25    2    1    2    0    0 -0.36834955272E+02 -0.65088981838E+02 -0.73985618892E+02  0.16344613787E+03  0.12508948275E+03 0.  0.
          5    1    3    3  502    0 -0.82616229945E+02 -0.51364841740E+02 -0.55144957321E+02  0.11190275750E+03  0.41800000000E+01 0.  1.
         -5    1    3    3    0  502  0.45781274673E+02 -0.13724140098E+02 -0.18840661571E+02  0.51543380375E+02  0.41800000000E+01 0.  1.
        -11    1    1    2    0    0  0.18878216630E+01  0.31244978057E+02 -0.12720381603E+02  0.33787877006E+02  0.00000000000E+00 0.  1.
         11    1    1    2    0    0  0.34947133609E+02  0.33844003780E+02 -0.23885241150E+03  0.24375642190E+03  0.00000000000E+00 0. -1.
</event>
<event>
 7    1  0.2693725E-009  0.3283468E+03  0.7561462E-02  0.1071871E+00
         -2   -1    0    0    0  501 -0.00000000000E+00  0.00000000000E+00  0.52206937314E+03  0.52206937314E+03  0.00000000000E+00 0.  1.
          2   -1    0    0  501    0  0.00000000000E+00 -0.00000000000E+00 -0.24340655377E+03  0.24340655377E+03  0.00000000000E+00 0. -1.
         25    2    1    2    0    0 -0.31931129221E+02  0.32241062179E+03  0.25025124937E+03  0.42806480782E+03  0.12508231617E+03 0.  0.
          5    1    3    3  502    0 -0.43781273947E+02  0.31478715642E+03  0.19959092557E+03  0.37531555226E+03  0.41800000000E+01 0.  1.
         -5    1    3    3    0  502  0.11850144725E+02  0.76234653714E+01  0.50660323800E+02  0.52749255557E+02  0.41800000000E+01 0.  1.
        -11    1    1    2    0    0  0.15935022410E+01 -0.55395549001E+02  0.40130577815E+02  0.68422725569E+02  0.00000000000E+00 0.  1.
         11    1    1    2    0    0  0.30337626980E+02 -0.26701507279E+03 -0.11719007811E+02  0.26898839353E+03  0.00000000000E+00 0. -1.
</event>
<event>
 7    1  0.2693725E-009  0.1753709E+03  0.7561462E-02  0.1172360E+00
          1   -1    0    0  501    0  0.00000000000E+00  0.00000000000E+00  0.15903918102E+03  0.15903918102E+03  0.00000000000E+00 0. -1.
         -1   -1    0    0    0  501 -0.00000000000E+00 -0.00000000000E+00 -0.22197288071E+03  0.22197288071E+03  0.00000000000E+00 0.  1.
         25    2    1    2    0    0 -0.76595997495E+00  0.14487203473E+03 -0.81036243928E+02  0.20786252210E+03  0.12510580372E+03 0.  0.
          5    1    3    3  502    0  0.44051269176E+02  0.70423333345E+01 -0.80060304061E+01  0.45515686281E+02  0.41800000000E+01 0.  1.
         -5    1    3    3    0  502 -0.44817229151E+02  0.13782970139E+03 -0.73030213522E+02  0.16234683582E+03  0.41800000000E+01 0.  1.
        -11    1    1    2    0    0 -0.15932248490E+02 -0.84939519912E+00 -0.17677101803E+02  0.23812558500E+02  0.00000000000E+00 0.  1.
         11    1    1    2    0    0  0.16698208465E+02 -0.14402263953E+03  0.35779646041E+02  0.14933698113E+03  0.00000000000E+00 0. -1.
</event>
<event>
 7    1  0.2693725E-009  0.1110939E+03  0.7561462E-02  0.1258557E+00
          2   -1    0    0  501    0  0.00000000000E+00  0.00000000000E+00  0.71776923389E+03  0.71776923389E+03  0.00000000000E+00 0. -1.
         -2   -1    0    0    0  501 -0.00000000000E+00 -0.00000000000E+00 -0.23644374371E+02  0.23644374371E+02  0.00000000000E+00 0.  1.
         25    2    1    2    0    0 -0.61090598388E+02 -0.22491525639E+02  0.48066611526E+03  0.50092275157E+03  0.12508300743E+03 0.  0.
          5    1    3    3  502    0 -0.17902828357E+02 -0.65616602389E+02  0.15149394403E+03  0.16611422952E+03  0.41800000000E+01 0. -1.
         -5    1    3    3    0  502 -0.43187770031E+02  0.43125076750E+02  0.32917217123E+03  0.33480852205E+03  0.41800000000E+01 0. -1.
        -11    1    1    2    0    0  0.46174430010E+02 -0.18121816040E+02  0.46406623262E+02  0.67926820077E+02  0.00000000000E+00 0.  1.
         11    1    1    2    0    0  0.14916168378E+02  0.40613341679E+02  0.16705212100E+03  0.17256403661E+03  0.00000000000E+00 0. -1.
</event>
<event>
 7    1  0.2693725E-009  0.1532066E+03  0.7561462E-02  0.1196587E+00
          2   -1    0    0  501    0  0.00000000000E+00  0.00000000000E+00  0.73919387291E+02  0.73919387291E+02  0.00000000000E+00 0. -1.
         -2   -1    0    0    0  501 -0.00000000000E+00 -0.00000000000E+00 -0.34862044349E+03  0.34862044349E+03  0.00000000000E+00 0.  1.
         25    2    1    2    0    0 -0.92454922173E+02  0.70668121444E+02 -0.16577224024E+03  0.23805465599E+03  0.12509071741E+03 0.  0.
          5    1    3    3  502    0 -0.99020125093E+02  0.97201897745E+02 -0.15576808011E+03  0.20864889475E+03  0.41800000000E+01 0.  1.
         -5    1    3    3    0  502  0.65652029191E+01 -0.26533776301E+02 -0.10004160127E+02  0.29405761239E+02  0.41800000000E+01 0.  1.
        -11    1    1    2    0    0 -0.89378011350E+01 -0.28957917165E+02 -0.53329794780E+00  0.30310553646E+02  0.00000000000E+00 0. -1.
         11    1    1    2    0    0  0.10139272331E+03 -0.41710204279E+02 -0.10839551802E+03  0.15417462115E+03  0.00000000000E+00 0.  1.
</event>
<event>
 7    1  0.2693725E-009  0.1207214E+03  0.7561462E-02  0.1241912E+00
         -2   -1    0    0    0  501 -0.00000000000E+00  0.00000000000E+00  0.81473635231E+02  0.81473635231E+02  0.00000000000E+00 0.  1.
          2   -1    0    0  501    0  0.00000000000E+00 -0.00000000000E+00 -0.21823574014E+03  0.21823574014E+03  0.00000000000E+00 0. -1.
         25    2    1    2    0    0  0.16185802038E+02 -0.74820654984E+02 -0.59681247727E+02  0.15833143337E+03  0.12508749284E+03 0.  0.
          5    1    3    3  502    0  0.13805156984E+02 -0.10540138771E+03 -0.20406688917E+02  0.10832331348E+03  0.41800000000E+01 0.  1.
         -5    1    3    3    0  502  0.23806450545E+01  0.30580732731E+02 -0.39274558810E+02  0.50008119890E+02  0.41800000000E+01 0.  1.
        -11    1    1    2    0    0 -0.14668425642E+01 -0.13996771552E+02  0.90918877258E+01  0.16754810157E+02  0.00000000000E+00 0.  1.
         11    1    1    2    0    0 -0.14718959474E+02  0.88817426536E+02 -0.86172744904E+02  0.12462313184E+03  0.00000000000E+00 0. -1.
</event>
<event>
 7    1  0.2693725E-009  0.1031665E+03  0.7561462E-02  0.1273775E+00
         -1   -1    0    0    0  501 -0.00000000000E+00  0.00000000000E+00  0.34790619572E+03  0.34790619572E+03  0.00000000000E+00 0.  1.
          1   -1    0    0  501    0  0.00000000000E+00 -0.00000000000E+00 -0.51189355615E+02  0.51189355615E+02  0.00000000000E+00 0. -1.
         25    2    1    2    0    0  0.22203775687E+02  0.86037284505E+01  0.17420463413E+03  0.21579148339E+03  0.12510666630E+03 0.  0.
          5    1    3    3  502    0  0.65787343698E+02  0.24632809645E+02  0.60153544736E+02  0.92577919863E+02  0.41800000000E+01 0.  1.
         -5    1    3    3    0  502 -0.43583568011E+02 -0.16029081194E+02  0.11405108940E+03  0.12321356353E+03  0.41800000000E+01 0.  1.
        -11    1    1    2    0    0 -0.31173809315E+02 -0.43380942229E+02 -0.22577036831E+01  0.53467838574E+02  0.00000000000E+00 0. -1.
         11    1    1    2    0    0  0.89700336285E+01  0.34777213779E+02  0.12476990966E+03  0.12983622937E+03  0.00000000000E+00 0.  1.
</event>
<event>
 7    1  0.2693725E-009  0.1107690E+03  0.7561462E-02  0.1259152E+00
         -2   -1    0    0    0  501 -0.00000000000E+00  0.00000000000E+00  0.37341514858E+02  0.37341514858E+02  0.00000000000E+00 0.  1.
          2   -1    0    0  501    0  0.00000000000E+00 -0.00000000000E+00 -0.44655113950E+03  0.44655113950E+03  0.00000000000E+00 0. -1.
         25    2    1    2    0    0  0.63292788354E+02  0.29046613343E+02 -0.21473545437E+03  0.25808664052E+03  0.12509083038E+03 0.  0.
          5    1    3    3  502    0 -0.20821151066E+01  0.53130877773E+02 -0.16215643404E+03  0.17070268561E+03  0.41800000000E+01 0. -1.
         -5    1    3    3    0  502  0.65374903460E+02 -0.24084264430E+02 -0.52579020335E+02  0.87383954906E+02  0.41800000000E+01 0. -1.
        -11    1    1    2    0    0 -0.78648171703E+02 -0.23568421065E+02 -0.97471932784E+02  0.12744325429E+03  0.00000000000E+00 0.  1.
         11    1    1    2    0    0  0.15355383350E+02 -0.54781922782E+01 -0.97002237489E+02  0.98362759550E+02  0.00000000000E+00 0. -1.
</event>
<event>
 7    1  0.2693725E-009  0.8660860E+02  0.7561462E-02  0.1311279E+00
         -1   -1    0    0    0  501 -0.00000000000E+00  0.00000000000E+00  0.22946244249E+02  0.22946244249E+02  0.00000000000E+00 0.  1.
          1   -1    0    0  501    0  0.00000000000E+00 -0.00000000000E+00 -0.64400532588E+03  0.64400532588E+03  0.00000000000E+00 0. -1.
         25    2    1    2    0    0  0.44433402507E+01  0.54590559389E+02 -0.35111242018E+03  0.37673199710E+03  0.12508874285E+03 0.  0.
          5    1    3    3  502    0  0.24465426503E+02  0.26511639088E+02 -0.15766218186E+02  0.39591288651E+02  0.41800000000E+01 0. -1.
         -5    1    3    3    0  502 -0.20022086252E+02  0.28078920300E+02 -0.33534620199E+03  0.33714070845E+03  0.41800000000E+01 0. -1.
        -11    1    1    2    0    0  0.10892840627E+02 -0.75471789313E+02 -0.15971934498E+03  0.17698845759E+03  0.00000000000E+00 0.  1.
         11    1    1    2    0    0 -0.15336180877E+02  0.20881229925E+02 -0.11022731647E+03  0.11323111544E+03  0.00000000000E+00 0. -1.
</event>
<event>
 7    1  0.2693725E-009  0.1458392E+03  0.7561462E-02  0.1205681E+00
         -2   -1    0    0    0  501 -0.00000000000E+00  0.00000000000E+00  0.52338247687E+02  0.52338247687E+02  0.00000000000E+00 0.  1.
          2   -1    0    0  501    0  0.00000000000E+00 -0.00000000000E+00 -0.70020449879E+03  0.70020449879E+03  0.00000000000E+00 0. -1.
         25    2    1    2    0    0 -0.94134672675E+02  0.29469524374E+02 -0.99006555854E+02  0.18756225633E+03  0.12509001731E+03 0.  0.
          5    1    3    3  502    0 -0.64554877763E+02 -0.44108458333E+02 -0.35924646429E+02  0.86144883542E+02  0.41800000000E+01 0.  1.
         -5    1    3    3    0  502 -0.29579794912E+02  0.73577982707E+02 -0.63081909425E+02  0.10141737279E+03  0.41800000000E+01 0.  1.
        -11    1    1    2    0    0 -0.75931208635E+01 -0.31318599348E+02 -0.13714989782E+03  0.14088507594E+03  0.00000000000E+00 0. -1.
         11    1    1    2    0    0  0.10172779354E+03  0.18490749736E+01 -0.41170979742E+03  0.42409541421E+03  0.00000000000E+00 0.  1.
</event>
<event>
 7    1  0.3307283E-009  0.8195002E+02  0.7561462E-02  0.1323607E+00
          3   -1    0    0  501    0  0.00000000000E+00  0.00000000000E+00  0.10661731917E+03  0.10661731917E+03  0.00000000000E+00 0. -1.
         -3   -1    0    0    0  501 -0.00000000000E+00 -0.00000000000E+00 -0.16744280280E+03  0.16744280280E+03  0.00000000000E+00 0.  1.
         25    2    1    2    0    0 -0.32887675243E+02  0.53199849631E+02 -0.80667543038E+02  0.16145344604E+03  0.12509252397E+03 0.  0.
          5    1    3    3  502    0  0.17364154840E+02 -0.85881585663E+01 -0.79247848486E+02  0.81688213535E+02  0.41800000000E+01 0.  1.
         -5    1    3    3    0  502 -0.50251830084E+02  0.61788008197E+02 -0.14196945517E+01  0.79765232503E+02  0.41800000000E+01 0.  1.
        -11    1    1    2    0    0  0.30493463427E+02 -0.36965320132E+02 -0.32401894187E+02  0.57846079825E+02  0.00000000000E+00 0.  1.
         11    1    1    2    0    0  0.23942118161E+01 -0.16234529499E+02  0.52243953595E+02  0.54760596102E+02  0.00000000000E+00 0. -1.
</event>
<event>
 7    1  0.2693725E-009  0.1071733E+03  0.7561462E-02  0.1265896E+00
          2   -1    0    0  501    0  0.00000000000E+00  0.00000000000E+00  0.10101671309E+04  0.10101671309E+04  0.00000000000E+00 0. -1.
         -2   -1    0    0    0  501 -0.00000000000E+00 -0.00000000000E+00 -0.22757380628E+02  0.22757380628E+02  0.00000000000E+00 0.  1.
         25    2    1    2    0    0  0.54383898601E+02 -0.39152242081E+02  0.80785398540E+03  0.82022584066E+03  0.12510739972E+03 0.  0.
          5    1    3    3  502    0  0.42555197521E+02  0.41483899899E+02  0.30020048038E+03  0.30605499442E+03  0.41800000000E+01 0.  1.
         -5    1    3    3    0  502  0.11828701080E+02 -0.80636141980E+02  0.50765350502E+03  0.51417084624E+03  0.41800000000E+01 0.  1.
        -11    1    1    2    0    0 -0.44299643476E+02  0.14636009334E+02  0.19672723690E+02  0.50632867179E+02  0.00000000000E+00 0.  1.
         11    1    1    2    0    0 -0.10084255125E+02  0.24516232747E+02  0.15988304122E+03  0.16206580373E+03  0.00000000000E+00 0. -1.
</event>
<event>
 7    1  0.2693725E-009  0.1118021E+03  0.7561462E-02  0.1257269E+00
          1   -1    0    0  501    0  0.00000000000E+00  0.00000000000E+00  0.34676203152E+03  0.34676203152E+03  0.00000000000E+00 0. -1.
         -1   -1    0    0    0  501 -0.00000000000E+00 -0.00000000000E+00 -0.50428614501E+02  0.50428614501E+02  0.00000000000E+00 0.  1.
         25    2    1    2    0    0 -0.24890328017E+02  0.68981481491E+02  0.20573174925E+03  0.25169329381E+03  0.12508392495E+03 0.  0.
          5    1    3    3  502    0 -0.69122249537E+02  0.44238772203E+02  0.17213644977E+03  0.19074428979E+03  0.41800000000E+01 0. -1.
         -5    1    3    3    0  502  0.44231921520E+02  0.24742709288E+02  0.33595299487E+02  0.60949004027E+02  0.41800000000E+01 0. -1.
        -11    1    1    2    0    0  0.49531223320E+01 -0.70414304226E+02  0.21840646858E+02  0.73889928378E+02  0.00000000000E+00 0.  1.
         11    1    1    2    0    0  0.19937205685E+02  0.14328227349E+01  0.68761020903E+02  0.71607423827E+02  0.00000000000E+00 0. -1.
</event>
<event>
 7    1  0.2693725E-009  0.1308542E+03  0.7561462E-02  0.1226194E+00
         -1   -1    0    0    0  501 -0.00000000000E+00  0.00000000000E+00  0.75766380918E+02  0.75766380918E+02  0.00000000000E+00 0.  1.
          1   -1    0    0  501    0  0.00000000000E+00 -0.00000000000E+00 -0.34125258339E+03  0.34125258339E+03  0.00000000000E+00 0. -1.
         25    2    1    2    0    0 -0.40728942747E+02 -0.81131664023E+02 -0.24202994003E+03  0.28717089381E+03  0.12508971459E+03 0.  0.
          5    1    3    3  502    0 -0.23158793077E+02  0.25801036955E+02 -0.20431309076E+02  0.40459040958E+02  0.41800000000E+01 0. -1.
         -5    1    3    3    0  502 -0.17570149670E+02 -0.10693270098E+03 -0.22159863095E+03  0.24671185285E+03  0.41800000000E+01 0. -1.
        -11    1    1    2    0    0 -0.22667062674E+02  0.23762233478E+02 -0.29487064621E+02  0.44135319758E+02  0.00000000000E+00 0. -1.
         11    1    1    2    0    0  0.63396005422E+02  0.57369430545E+02  0.60308021777E+01  0.85712750739E+02  0.00000000000E+00 0.  1.
</event>
<event>
 7    1  0.2693725E-009  0.1208932E+03  0.7561462E-02  0.1241631E+00
          1   -1    0    0  501    0  0.00000000000E+00  0.00000000000E+00  0.61858723863E+03  0.61858723863E+03  0.00000000000E+00 0. -1.
         -1   -1    0    0    0  501 -0.00000000000E+00 -0.00000000000E+00 -0.33241554717E+02  0.33241554717E+02  0.00000000000E+00 0.  1.
         25    2    1    2    0    0 -0.70057554157E+02 -0.73835757700E+00  0.45901349580E+03  0.48088326738E+03  0.12508685563E+03 0.  0.
          5    1    3    3  502    0  0.15847268834E+02  0.37571152702E+02  0.74728717734E+02  0.85232511983E+02  0.41800000000E+01 0. -1.
         -5    1    3    3    0  502 -0.85904822991E+02 -0.38309510279E+02  0.38428477807E+03  0.39565075539E+03  0.41800000000E+01 0. -1.
        -11    1    1    2    0    0  0.38887593181E+02  0.40482415578E+02  0.98248607485E+02  0.11315414154E+03  0.00000000000E+00 0. -1.
         11    1    1    2    0    0  0.31169960976E+02 -0.39744058001E+02  0.28083580631E+02  0.57791384433E+02  0.00000000000E+00 0.  1.
</event>
<event>
 7    1  0.2693725E-009  0.1237189E+03  0.7561462E-02  0.1237085E+00
         -2   -1    0    0    0  501 -0.00000000000E+00  0.00000000000E+00  0.50940144981E+02  0.50940144981E+02  0.00000000000E+00 0.  1.
          2   -1    0    0  501    0  0.00000000000E+00 -0.00000000000E+00 -0.31802090127E+03  0.31802090127E+03  0.00000000000E+00 0. -1.
         25    2    1    2    0    0  0.42314463493E+02  0.39924215181E+02 -0.10850486690E+03  0.17551838132E+03  0.12509572040E+03 0.  0.
          5    1    3    3  502    0  0.27711929381E+02  0.85335528041E+02 -0.75820443248E+02  0.11754282364E+03  0.41800000000E+01 0.  1.
         -5    1    3    3    0  502  0.14602534112E+02 -0.45411312860E+02 -0.32684423649E+02  0.57975557672E+02  0.41800000000E+01 0.  1.
        -11    1    1    2    0    0 -0.62941360518E+02  0.20398426485E+01 -0.77621505910E+02  0.99954359593E+02  0.00000000000E+00 0.  1.
         11    1    1    2    0    0  0.20626897026E+02 -0.41964057830E+02 -0.80954383482E+02  0.93488305340E+02  0.00000000000E+00 0. -1.
</event>
<event>
 7    1  0.2693725E-009  0.9022090E+02  0.7561462E-02  0.1302318E+00
          1   -1    0    0  501    0  0.00000000000E+00  0.00000000000E+00  0.10017483630E+03  0.10017483630E+03  0.00000000000E+00 0. -1.
         -1   -1    0    0    0  501 -0.00000000000E+00 -0.00000000000E+00 -0.17355279966E+03  0.17355279966E+03  0.00000000000E+00 0.  1.
         25    2    1    2    0    0 -0.30617630898E+02 -0.20030716412E+02 -0.12971220336E+03  0.18387868475E+03  0.12508975212E+03 0.  0.
          5    1    3    3  502    0 -0.45797957983E+02 -0.61051980363E+02 -0.45659618728E+02  0.89034097087E+02  0.41800000000E+01 0. -1.
         -5    1    3    3    0  502  0.15180327085E+02  0.41021263952E+02 -0.84052584632E+02  0.94844587668E+02  0.41800000000E+01 0. -1.
        -11    1    1    2    0    0  0.43665839299E+01  0.31225533218E+02  0.52241366930E+02  0.61018533240E+02  0.00000000000E+00 0. -1.
         11    1    1    2    0    0  0.26251046968E+02 -0.11194816807E+02  0.40928730732E+01  0.28830417968E+02  0.00000000000E+00 0.  1.
</event>
<event>
 7    1  0.2693725E-009  0.1209778E+03  0.7561462E-02  0.1241493E+00
          2   -1    0    0  501    0  0.00000000000E+00  0.00000000000E+00  0.71394343108E+02  0.71394343108E+02  0.00000000000E+00 0. -1.
         -2   -1    0    0    0  501 -0.00000000000E+00 -0.00000000000E+00 -0.30013648209E+03  0.30013648209E+03  0.00000000000E+00 0.  1.
         25    2    1    2    0    0  0.74876771038E+02 -0.27018604292E+02 -0.19738007209E+03  0.24686601459E+03  0.12508956985E+03 0.  0.
          5    1    3    3  502    0 -0.57285212350E+01 -0.56746784477E+02 -0.48775204685E+02  0.75163199081E+02  0.41800000000E+01 0. -1.
         -5    1    3    3    0  502  0.80605292273E+02  0.29728180185E+02 -0.14860486740E+03  0.17170281551E+03  0.41800000000E+01 0. -1.
        -11    1    1    2    0    0 -0.22489979617E+02  0.38994252618E+02 -0.50472198117E+02  0.67629828502E+02  0.00000000000E+00 0.  1.
         11    1    1    2    0    0 -0.52386791421E+02 -0.11975648326E+02  0.19110131222E+02  0.57034982103E+02  0.00000000000E+00 0. -1.
</event>
<event>
 7    1  0.2693725E-009  0.8112521E+02  0.7561462E-02  0.1325888E+00
         -1   -1    0    0    0  501 -0.00000000000E+00  0.00000000000E+00  0.30976358763E+02  0.30976358763E+02  0.00000000000E+00 0.  1.
          1   -1    0    0  501    0  0.00000000000E+00 -0.00000000000E+00 -0.38445501386E+03  0.38445501386E+03  0.00000000000E+00 0. -1.
         25    2    1    2    0    0 -0.70744989708E+01 -0.71046982368E+01 -0.18292374019E+03  0.22183124687E+03  0.12508989603E+03 0.  0.
          5    1    3    3  502    0  0.16799361209E+02 -0.47969534588E+02 -0.16214263331E+03  0.16997352948E+03  0.41800000000E+01 0. -1.
         -5    1    3    3    0  502 -0.23873860180E+02  0.40864836352E+02 -0.20781106881E+02  0.51857717392E+02  0.41800000000E+01 0. -1.
        -11    1    1    2    0    0  0.32727928006E+02 -0.83703664199E+01 -0.15721754246E+03  0.16080589530E+03  0.00000000000E+00 0. -1.
         11    1    1    2    0    0 -0.25653429035E+02  0.15475064657E+02 -0.13337372443E+02  0.32794230454E+02  0.00000000000E+00 0.  1.
</event>
<event>
 7    1  0.2693725E-009  0.2446916E+03  0.7561462E-02  0.1116706E+00
         -2   -1    0    0    0  501 -0.00000000000E+00  0.00000000000E+00  0.27721429603E+03  0.27721429603E+03  0.00000000000E+00 0.  1.
          2   -1    0    0  501    0  0.00000000000E+00 -0.00000000000E+00 -0.24934129282E+03  0.24934129282E+03  0.00000000000E+00 0. -1.
         25    2    1    2    0    0  0.16274942195E+03  0.17037895762E+03  0.58426974110E+02  0.27308729677E+03  0.12508635740E+03 0.  0.
          5    1    3    3  502    0 -0.98806934770E+01  0.88269500483E+01 -0.19646920862E+02  0.24062773118E+02  0.41800000000E+01 0.  1.
         -5    1    3    3    0  502  0.17263011543E+03  0.16155200757E+03  0.78073894972E+02  0.24902452365E+03  0.41800000000E+01 0.  1.
        -11    1    1    2    0    0 -0.56853162036E+02 -0.88386678891E+02 -0.52953472106E+02  0.11767989313E+03  0.00000000000E+00 0.  1.
         11    1    1    2    0    0 -0.10589625992E+03 -0.81992278726E+02  0.22399501202E+02  0.13578839895E+03  0.00000000000E+00 0. -1.
</event>
<event>
 7    1  0.2693725E-009  0.9828994E+02  0.7561462E-02  0.1283934E+00
         -1   -1    0    0    0  501 -0.00000000000E+00  0.00000000000E+00  0.11345813860E+03  0.11345813860E+03  0.00000000000E+00 0.  1.
          1   -1    0    0  501    0  0.00000000000E+00 -0.00000000000E+00 -0.19086933015E+03  0.19086933015E+03  0.00000000000E+00 0. -1.
         25    2    1    2    0    0 -0.44643259279E+02 -0.48110219677E+02 -0.11687688320E+03  0.18334540249E+03  0.12509083480E+03 0.  0.
          5    1    3    3  502    0  0.19894775467E+00 -0.77196218089E+02 -0.33582236685E+02  0.84288401860E+02  0.41800000000E+01 0.  1.
         -5    1    3    3    0  502 -0.44842207034E+02  0.29085998411E+02 -0.83294646515E+02  0.99057000628E+02  0.41800000000E+01 0.  1.
        -11    1    1    2    0    0  0.19217836875E+02  0.19385087758E+02 -0.30659458612E+02  0.41050082630E+02  0.00000000000E+00 0. -1.
         11    1    1    2    0    0  0.25425422404E+02  0.28725131919E+02  0.70125150263E+02  0.79931983634E+02  0.00000000000E+00 0.  1.
</event>
<event>
 7    1  0.2693725E-009  0.1220837E+03  0.7561462E-02  0.1239699E+00
          2   -1    0    0  501    0  0.00000000000E+00  0.00000000000E+00  0.24544983262E+03  0.24544983262E+03  0.00000000000E+00 0. -1.
         -2   -1    0    0    0  501 -0.00000000000E+00 -0.00000000000E+00 -0.75274990660E+02  0.75274990660E+02  0.00000000000E+00 0.  1.
         25    2    1    2    0    0  0.16252486385E+02  0.78916955286E+02  0.85033639742E+02  0.17138200133E+03  0.12509612843E+03 0.  0.
          5    1    3    3  502    0 -0.42070085874E+02  0.56951693663E+02  0.67731299024E+01  0.71251212096E+02  0.41800000000E+01 0. -1.
         -5    1    3    3    0  502  0.58322572259E+02  0.21965261623E+02  0.78260509840E+02  0.10013078924E+03  0.41800000000E+01 0. -1.
        -11    1    1    2    0    0  0.30640004690E+02 -0.35198417766E+02  0.53283617625E+01  0.46969457520E+02  0.00000000000E+00 0.  1.
         11    1    1    2    0    0 -0.46892491076E+02 -0.43718537520E+02  0.79812840453E+02  0.10237336442E+03  0.00000000000E+00 0. -1.
</event>
<event>
 7    1  0.2693725E-009  0.1426206E+03  0.7561462E-02  0.1209846E+00
         -1   -1    0    0    0  501 -0.00000000000E+00  0.00000000000E+00  0.13892424430E+03  0.13892424430E+03  0.00000000000E+00 0. -1.
          1   -1    0    0  501    0  0.00000000000E+00 -0.00000000000E+00 -0.16248305882E+03  0.16248305882E+03  0.00000000000E+00 0.  1.
         25    2    1    2    0    0  0.98720819624E+02 -0.33365748680E+02 -0.13947202264E+02  0.16340482431E+03  0.12509012248E+03 0.  0.
          5    1    3    3  502    0  0.45946886293E+02  0.37266746668E+02  0.28105171036E+02  0.65630022141E+02  0.41800000000E+01 0.  1.
         -5    1    3    3    0  502  0.52773933332E+02 -0.70632495348E+02 -0.42052373301E+02  0.97774802166E+02  0.41800000000E+01 0.  1.
        -11    1    1    2    0    0 -0.32286573253E+02  0.58350168679E+02 -0.41771925145E+01  0.66817766609E+02  0.00000000000E+00 0. -1.
         11    1    1    2    0    0 -0.66434246371E+02 -0.24984419999E+02 -0.54344197353E+01  0.71184712203E+02  0.00000000000E+00 0.  1.
</event>
<event>
 7    1  0.2693725E-009  0.1440355E+03  0.7561462E-02  0.1208000E+00
         -2   -1    0    0    0  501 -0.00000000000E+00  0.00000000000E+00  0.49636362063E+02  0.49636362063E+02  0.00000000000E+00 0.  1.
          2   -1    0    0  501    0  0.00000000000E+00 -0.00000000000E+00 -0.61459758742E+03  0.61459758742E+03  0.00000000000E+00 0. -1.
         25    2    1    2    0    0 -0.19466210269E+02 -0.12768611530E+03 -0.38531156288E+03  0.42519608865E+03  0.12507612053E+03 0.  0.
          5    1    3    3  502    0 -0.45993213462E+02 -0.87058593365E+02 -0.35361106677E+03  0.36708695606E+03  0.41800000000E+01 0. -1.
         -5    1    3    3    0  502  0.26527003193E+02 -0.40627521931E+02 -0.31700496109E+02  0.58109132589E+02  0.41800000000E+01 0. -1.
        -11    1    1    2    0    0  0.38524501233E+02  0.10040283117E+03 -0.17504527773E+03  0.20544029536E+03  0.00000000000E+00 0. -1.
         11    1    1    2    0    0 -0.19058290964E+02  0.27283284123E+02 -0.46043847451E+01  0.33597565476E+02  0.00000000000E+00 0.  1.
</event>
<event>
 7    1  0.2693725E-009  0.1272791E+03  0.7561462E-02  0.1231550E+00
         -1   -1    0    0    0  501 -0.00000000000E+00  0.00000000000E+00  0.53720955092E+03  0.53720955092E+03  0.00000000000E+00 0.  1.
          1   -1    0    0  501    0  0.00000000000E+00 -0.00000000000E+00 -0.41679404733E+02  0.41679404733E+02  0.00000000000E+00 0. -1.
         25    2    1    2    0    0  0.69065551317E+02  0.63031936798E+02  0.18916248366E+03  0.24530150248E+03  0.12508919401E+03 0.  0.
          5    1    3    3  502    0  0.46638992579E+02 -0.15605748450E+02  0.14305884121E+03  0.15133419792E+03  0.41800000000E+01 0.  1.
         -5    1    3    3    0  502  0.22426558738E+02  0.78637685248E+02  0.46103642458E+02  0.93967304558E+02  0.41800000000E+01 0.  1.
        -11    1    1    2    0    0 -0.77305009975E+02 -0.75707563313E+02  0.29626200837E+03  0.31540272242E+03  0.00000000000E+00 0.  1.
         11    1    1    2    0    0  0.82394586585E+01  0.12675626516E+02  0.10105654156E+02  0.18184730750E+02  0.00000000000E+00 0. -1.
</event>
<event>
 7    1  0.2693725E-009  0.1674198E+03  0.7561462E-02  0.1180566E+00
          2   -1    0    0  501    0  0.00000000000E+00  0.00000000000E+00  0.67269131733E+03  0.67269131733E+03  0.00000000000E+00 0. -1.
         -2   -1    0    0    0  501 -0.00000000000E+00 -0.00000000000E+00 -0.80838909967E+02  0.80838909967E+02  0.00000000000E+00 0.  1.
         25    2    1    2    0    0 -0.11720698958E+03  0.93316200376E+02  0.53128538481E+03  0.56599980303E+03  0.12508487224E+03 0.  0.
          5    1    3    3  502    0 -0.71905683257E+02  0.11213553356E+03  0.46311312495E+03  0.48190875078E+03  0.41800000000E+01 0. -1.
         -5    1    3    3    0  502 -0.45301306321E+02 -0.18819333181E+02  0.68172259859E+02  0.84091052259E+02  0.41800000000E+01 0. -1.
        -11    1    1    2    0    0  0.80636975606E+02 -0.79506208495E+02 -0.25715321181E+01  0.11327034829E+03  0.00000000000E+00 0.  1.
         11    1    1    2    0    0  0.36570013972E+02 -0.13809991881E+02  0.63138554668E+02  0.74260075971E+02  0.00000000000E+00 0. -1.
</event>
<event>
 7    1  0.2693725E-009  0.1295242E+03  0.7561462E-02  0.1228163E+00
         -3   -1    0    0    0  501 -0.00000000000E+00  0.00000000000E+00  0.45796302682E+02  0.45796302682E+02  0.00000000000E+00 0.  1.
          3   -1    0    0  501    0  0.00000000000E+00 -0.00000000000E+00 -0.39330112833E+03  0.39330112833E+03  0.00000000000E+00 0. -1.
         25    2    1    2    0    0  0.68185563558E+02 -0.38165529007E+02 -0.20054461445E+03  0.24894038214E+03  0.12508913940E+03 0.  0.
          5    1    3    3  502    0  0.70795775607E+02  0.28962162333E+02 -0.13362893946E+03  0.15402926525E+03  0.41800000000E+01 0. -1.
         -5    1    3    3    0  502 -0.26102120498E+01 -0.67127691340E+02 -0.66915674985E+02  0.94911116895E+02  0.41800000000E+01 0. -1.
        -11    1    1    2    0    0 -0.43089828004E+02 -0.23126982578E+02 -0.35232034456E+02  0.60273434053E+02  0.00000000000E+00 0. -1.
         11    1    1    2    0    0 -0.25095735553E+02  0.61292511585E+02 -0.11172817674E+03  0.12988361482E+03  0.00000000000E+00 0.  1.
</event>
<event>
 7    1  0.2693725E-009  0.1479833E+03  0.7561462E-02  0.1202973E+00
         -1   -1    0    0    0  501 -0.00000000000E+00  0.00000000000E+00  0.20704876501E+02  0.20704876501E+02  0.00000000000E+00 0.  1.
          1   -1    0    0  501    0  0.00000000000E+00 -0.00000000000E+00 -0.11324679696E+04  0.11324679696E+04  0.00000000000E+00 0. -1.
         25    2    1    2    0    0 -0.10654025547E+03 -0.13819717540E+02 -0.61906709912E+03  0.64065047846E+03  0.12508857547E+03 0.  0.
          5    1    3    3  502    0 -0.18097666851E+02  0.45598401511E+02 -0.30566889449E+03  0.30960892304E+03  0.41800000000E+01 0. -1.
         -5    1    3    3    0  502 -0.88442588618E+02 -0.59418119051E+02 -0.31339820463E+03  0.33104155543E+03  0.41800000000E+01 0. -1.
        -11    1    1    2    0    0  0.11418024930E+03 -0.10448491039E+02 -0.42528896203E+03  0.44047361047E+03  0.00000000000E+00 0.  1.
         11    1    1    2    0    0 -0.76399938289E+01  0.24268208579E+02 -0.67407031934E+02  0.72048757154E+02  0.00000000000E+00 0. -1.
</event>
<event>
 7    1  0.2693725E-009  0.1400845E+03  0.7561462E-02  0.1213215E+00
         -1   -1    0    0    0  501 -0.00000000000E+00  0.00000000000E+00  0.34679120109E+02  0.34679120109E+02  0.00000000000E+00 0.  1.
          1   -1    0    0  501    0  0.00000000000E+00 -0.00000000000E+00 -0.67780503002E+03  0.67780503002E+03  0.00000000000E+00 0. -1.
         25    2    1    2    0    0 -0.89234229475E+02  0.15319544551E+02 -0.23740198808E+03  0.28320371558E+03  0.12508878615E+03 0.  0.
          5    1    3    3  502    0  0.29342615389E+02 -0.98596052136E+01 -0.32385517969E+02  0.44994389283E+02  0.41800000000E+01 0. -1.
         -5    1    3    3    0  502 -0.11857684486E+03  0.25179149765E+02 -0.20501647011E+03  0.23820932630E+03  0.41800000000E+01 0. -1.
        -11    1    1    2    0    0  0.70703215120E+02  0.31413369782E+02 -0.15126013639E+03  0.16989812621E+03  0.00000000000E+00 0.  1.
         11    1    1    2    0    0  0.18531014355E+02 -0.46732914333E+02 -0.25446378544E+03  0.25938230833E+03  0.00000000000E+00 0. -1.
</event>
<event>
 7    1  0.2693725E-009  0.1009814E+03  0.7561462E-02  0.1278246E+00
          2   -1    0    0  501    0  0.00000000000E+00  0.00000000000E+00  0.53817816033E+03  0.53817816033E+03  0.00000000000E+00 0. -1.
         -2   -1    0    0    0  501 -0.00000000000E+00 -0.00000000000E+00 -0.53093518816E+02  0.53093518816E+02  0.00000000000E+00 0.  1.
         25    2    1    2    0    0 -0.57890503211E+02 -0.92158282652E+01  0.45963464210E+03  0.47994528190E+03  0.12508887860E+03 0.  0.
          5    1    3    3  502    0  0.42786528579E+01  0.27643819584E+02  0.33204597683E+03  0.33324839198E+03  0.41800000000E+01 0. -1.
         -5    1    3    3    0  502 -0.62169156068E+02 -0.36859647849E+02  0.12758866527E+03  0.14669688992E+03  0.41800000000E+01 0. -1.
        -11    1    1    2    0    0 -0.19502330644E+02  0.13585410344E+02 -0.10373409301E+02  0.25932834309E+02  0.00000000000E+00 0.  1.
         11    1    1    2    0    0  0.77392833854E+02 -0.43695820790E+01  0.35823408720E+02  0.85393562942E+02  0.00000000000E+00 0. -1.
</event>
<event>
 7    1  0.2693725E-009  0.1003461E+03  0.7561462E-02  0.1279570E+00
         -1   -1    0    0    0  501 -0.00000000000E+00  0.00000000000E+00  0.48440248582E+02  0.48440248582E+02  0.00000000000E+00 0.  1.
          1   -1    0    0  501    0  0.00000000000E+00 -0.00000000000E+00 -0.41374197360E+03  0.41374197360E+03  0.00000000000E+00 0. -1.
         25    2    1    2    0    0 -0.37598072704E+02  0.82116216120E+02 -0.18992972527E+03  0.24470092880E+03  0.12509418850E+03 0.  0.
          5    1    3    3  502    0 -0.41431788647E+02  0.42789425082E+02 -0.10127118054E+02  0.60560374251E+02  0.41800000000E+01 0. -1.
         -5    1    3    3    0  502  0.38337159425E+01  0.39326791038E+02 -0.17980260721E+03  0.18414055455E+03  0.41800000000E+01 0. -1.
        -11    1    1    2    0    0 -0.10736859677E+02 -0.12173999068E+02  0.58926696051E+01  0.17268756878E+02  0.00000000000E+00 0.  1.
         11    1    1    2    0    0  0.48334932382E+02 -0.69942217052E+02 -0.18126466936E+03  0.20021253650E+03  0.00000000000E+00 0. -1.
</event>
<event>
 7    1  0.2693725E-009  0.2181302E+03  0.7561462E-02  0.1135285E+00
          2   -1    0    0  501    0  0.00000000000E+00  0.00000000000E+00  0.76831132682E+03  0.76831132682E+03  0.00000000000E+00 0.  1.
         -2   -1    0    0    0  501 -0.00000000000E+00 -0.00000000000E+00 -0.69549398180E+02  0.69549398180E+02  0.00000000000E+00 0. -1.
         25    2    1    2    0    0  0.19849240812E+03 -0.25691786815E+02  0.34693564822E+03  0.41960806218E+03  0.12508907966E+03 0.  0.
          5    1    3    3  502    0  0.23549586398E+01 -0.34029047254E+02  0.24933618921E+02  0.42457974984E+02  0.41800000000E+01 0. -1.
         -5    1    3    3    0  502  0.19613744948E+03  0.83372604394E+01  0.32200202929E+03  0.37715008719E+03  0.41800000000E+01 0. -1.
        -11    1    1    2    0    0 -0.10570598501E+03  0.37151110916E+02  0.10204896232E+03  0.15155180969E+03  0.00000000000E+00 0. -1.
         11    1    1    2    0    0 -0.92786423118E+02 -0.11459324101E+02  0.24977731810E+03  0.26670085313E+03  0.00000000000E+00 0.  1.
</event>
<event>
 7    1  0.2693725E-009  0.2451200E+03  0.7561462E-02  0.1116428E+00
         -2   -1    0    0    0  501 -0.00000000000E+00  0.00000000000E+00  0.10831025137E+03  0.10831025137E+03  0.00000000000E+00 0.  1.
          2   -1    0    0  501    0  0.00000000000E+00 -0.00000000000E+00 -0.64140815957E+03  0.64140815957E+03  0.00000000000E+00 0. -1.
         25    2    1    2    0    0  0.16695753647E+03 -0.15039139012E+03 -0.15256862197E+03  0.29902518512E+03  0.12508592135E+03 0.  0.
          5    1    3    3  502    0  0.54326985030E+01 -0.78144439670E+02 -0.63262798576E+02  0.10077560096E+03  0.41800000000E+01 0.  1.
         -5    1    3    3    0  502  0.16152483797E+03 -0.72246950451E+02 -0.89305823391E+02  0.19824958416E+03  0.41800000000E+01 0.  1.
        -11    1    1    2    0    0 -0.27271770761E+02  0.66460722472E+02 -0.16927756156E+03  0.18389037485E+03  0.00000000000E+00 0.  1.
         11    1    1    2    0    0 -0.13968576571E+03  0.83930667649E+02 -0.21125172467E+03  0.26680285097E+03  0.00000000000E+00 0. -1.
</event>
<event>
 7    1  0.2693725E-009  0.1054928E+03  0.7561462E-02  0.1269152E+00
          1   -1    0    0  501    0  0.00000000000E+00  0.00000000000E+00  0.37699352142E+03  0.37699352142E+03  0.00000000000E+00 0. -1.
         -1   -1    0    0    0  501 -0.00000000000E+00 -0.00000000000E+00 -0.45759713473E+02  0.45759713473E+02  0.00000000000E+00 0.  1.
         25    2    1    2    0    0  0.69059162648E+02 -0.12911290168E+02  0.13152985319E+03  0.19463648448E+03  0.12508952575E+03 0.  0.
          5    1    3    3  502    0  0.92624382724E+02  0.68177626198E+01  0.46141844820E+02  0.10378969316E+03  0.41800000000E+01 0. -1.
         -5    1    3    3    0  502 -0.23565220075E+02 -0.19729052787E+02  0.85388008367E+02  0.90846791325E+02  0.41800000000E+01 0. -1.
        -11    1    1    2    0    0 -0.53881685420E+02 -0.14384255664E+02  0.18569274104E+03  0.19388640208E+03  0.00000000000E+00 0. -1.
         11    1    1    2    0    0 -0.15177477228E+02  0.27295545832E+02  0.14011213717E+02  0.34230348335E+02  0.00000000000E+00 0.  1.
</event>
<event>
 7    1  0.2693725E-009  0.1543108E+03  0.7561462E-02  0.1195274E+00
          1   -1    0    0  501    0  0.00000000000E+00  0.00000000000E+00  0.20814926509E+03  0.20814926509E+03  0.00000000000E+00 0. -1.
         -1   -1    0    0    0  501 -0.00000000000E+00 -0.00000000000E+00 -0.15467150259E+03  0.15467150259E+03  0.00000000000E+00 0.  1.
         25    2    1    2    0    0 -0.41003891381E+02  0.12125754557E+03  0.91459820621E+02  0.20097954727E+03  0.12507265154E+03 0.  0.
          5    1    3    3  502    0 -0.67914464231E+02  0.11858923757E+03  0.10310377683E+03  0.17124147546E+03  0.41800000000E+01 0. -1.
         -5    1    3    3    0  502  0.26910572850E+02  0.26683079997E+01 -0.11643956210E+02  0.29738071809E+02  0.41800000000E+01 0. -1.
        -11    1    1    2    0    0  0.37942053064E+02 -0.19368749497E+02  0.17185128281E+02  0.45935568809E+02  0.00000000000E+00 0. -1.
         11    1    1    2    0    0  0.30618383173E+01 -0.10188879608E+03 -0.55167186400E+02  0.11590565161E+03  0.00000000000E+00 0.  1.
</event>
<event>
 7    1  0.2693725E-009  0.1144571E+03  0.7561462E-02  0.1252532E+00
         -1   -1    0    0    0  501 -0.00000000000E+00  0.00000000000E+00  0.11507567169E+04  0.11507567169E+04  0.00000000000E+00 0.  1.
          1   -1    0    0  501    0  0.00000000000E+00 -0.00000000000E+00 -0.15738239134E+02  0.15738239134E+02  0.00000000000E+00 0. -1.
         25    2    1    2    0    0 -0.53554044184E+02 -0.50219978182E+02  0.74236620877E+03  0.75640241674E+03  0.12508775431E+03 0.  0.
          5    1    3    3  502    0 -0.44567276637E+02  0.13096274947E+02  0.57960509534E+03  0.58147854089E+03  0.41800000000E+01 0. -1.
         -5    1    3    3    0  502 -0.89867675466E+01 -0.63316253129E+02  0.16276111342E+03  0.17492387585E+03  0.41800000000E+01 0. -1.
        -11    1    1    2    0    0  0.39935396328E+02 -0.21383798567E+02  0.16010688303E+03  0.16639205725E+03  0.00000000000E+00 0.  1.
         11    1    1    2    0    0  0.13618647855E+02  0.71603776749E+02  0.23254538598E+03  0.24370048206E+03  0.00000000000E+00 0. -1.
</event>
<event>
 7    1  0.2693725E-009  0.8860093E+02  0.7561462E-02  0.1306276E+00
          2   -1    0    0  501    0  0.00000000000E+00  0.00000000000E+00  0.65649260332E+02  0.65649260332E+02  0.00000000000E+00 0. -1.
         -2   -1    0    0    0  501 -0.00000000000E+00 -0.00000000000E+00 -0.22646439653E+03  0.22646439653E+03  0.00000000000E+00 0.  1.
         25    2    1    2    0    0  0.34667601625E+02  0.31298965470E+02 -0.12433815743E+03  0.18245316156E+03  0.12509081073E+03 0.  0.
          5    1    3    3  502    0 -0.22091452447E+02  0.47544091559E+02 -0.10944003832E+03  0.12142103319E+03  0.41800000000E+01 0.  1.
         -5    1    3    3    0  502  0.56759054072E+02 -0.16245126089E+02 -0.14898119113E+02  0.61032128374E+02  0.41800000000E+01 0.  1.
        -11    1    1    2    0    0  0.39514235294E+01 -0.26168807261E+02  0.25308003409E+02  0.36618509772E+02  0.00000000000E+00 0. -1.
         11    1    1    2    0    0 -0.38619025154E+02 -0.51301582083E+01 -0.61784982173E+02  0.73041985524E+02  0.00000000000E+00 0.  1.
</event>
<event>
 7    1  0.2693725E-009  0.7935100E+02  0.7561462E-02  0.1330903E+00
         -2   -1    0    0    0  501 -0.00000000000E+00  0.00000000000E+00  0.75625101117E+02  0.75625101117E+02  0.00000000000E+00 0.  1.
          2   -1    0    0  501    0  0.00000000000E+00 -0.00000000000E+00 -0.24186542654E+03  0.24186542654E+03  0.00000000000E+00 0. -1.
         25    2    1    2    0    0  0.29233420216E+02  0.59545621961E+02 -0.14369569325E+03  0.20173954545E+03  0.12510043160E+03 0.  0.
          5    1    3    3  502    0  0.25367720304E+02  0.15470205285E+02 -0.15335287836E+03  0.15626076342E+03  0.41800000000E+01 0.  1.
         -5    1    3    3    0  502  0.38656999122E+01  0.44075416676E+02  0.96571851029E+01  0.45478782031E+02  0.41800000000E+01 0.  1.
        -11    1    1    2    0    0 -0.25929331357E+02 -0.13486970809E+01  0.28296446325E+02  0.38403620703E+02  0.00000000000E+00 0.  1.
         11    1    1    2    0    0 -0.33040888589E+01 -0.58196924880E+02 -0.50841078494E+02  0.77347361500E+02  0.00000000000E+00 0. -1.
</event>
<event>
 7    1  0.2693725E-009  0.3023866E+03  0.7561462E-02  0.1084054E+00
         -3   -1    0    0    0  501 -0.00000000000E+00  0.00000000000E+00  0.79427719813E+03  0.79427719813E+03  0.00000000000E+00 0.  1.
          3   -1    0    0  501    0  0.00000000000E+00 -0.00000000000E+00 -0.16112171905E+03  0.16112171905E+03  0.00000000000E+00 0. -1.
         25    2    1    2    0    0  0.39425316742E+02 -0.28175520253E+03  0.72290960946E+02  0.31908323781E+03  0.12509108627E+03 0.  0.
          5    1    3    3  502    0  0.78623890949E+02 -0.19832480273E+03  0.76582806065E+02  0.22670871662E+03  0.41800000000E+01 0.  1.
         -5    1    3    3    0  502 -0.39198574208E+02 -0.83430399795E+02 -0.42918451188E+01  0.92374521186E+02  0.41800000000E+01 0.  1.
        -11    1    1    2    0    0 -0.66113633858E+02  0.13942968123E+03  0.32025098791E+03  0.35548888006E+03  0.00000000000E+00 0.  1.
         11    1    1    2    0    0  0.26688317116E+02  0.14232552129E+03  0.24061353023E+03  0.28082679932E+03  0.00000000000E+00 0. -1.
</event>
<event>
 7    1  0.2693725E-009  0.1128648E+03  0.7561462E-02  0.1255355E+00
         -2   -1    0    0    0  501 -0.00000000000E+00  0.00000000000E+00  0.30148814490E+02  0.30148814490E+02  0.00000000000E+00 0.  1.
          2   -1    0    0  501    0  0.00000000000E+00 -0.00000000000E+00 -0.50910857641E+03  0.50910857641E+03  0.00000000000E+00 0. -1.
         25    2    1    2    0    0 -0.17809316287E+01 -0.60481979366E+02 -0.27757895330E+03  0.31041740951E+03  0.12509057224E+03 0.  0.
          5    1    3    3  502    0  0.49880898615E+02 -0.27851685756E+02 -0.21638546305E+03  0.22383914195E+03  0.41800000000E+01 0.  1.
         -5    1    3    3    0  502 -0.51661830243E+02 -0.32630293610E+02 -0.61193490249E+02  0.86578267562E+02  0.41800000000E+01 0.  1.
        -11    1    1    2    0    0  0.13026838686E+02 -0.21126869195E+02 -0.64111980277E+02  0.68748739212E+02  0.00000000000E+00 0. -1.
         11    1    1    2    0    0 -0.11245907058E+02  0.81608848561E+02 -0.13726882834E+03  0.16009124218E+03  0.00000000000E+00 0.  1.
</event>
<event>
 7    1  0.2693725E-009  0.1467929E+03  0.7561462E-02  0.1204470E+00
         -1   -1    0    0    0  501 -0.00000000000E+00  0.00000000000E+00  0.41601222365E+02  0.41601222365E+02  0.00000000000E+00 0.  1.
          1   -1    0    0  501    0  0.00000000000E+00 -0.00000000000E+00 -0.62810679047E+03  0.62810679047E+03  0.00000000000E+00 0. -1.
         25    2    1    2    0    0  0.67745615655E+02 -0.92150017963E+02 -0.39991913091E+03  0.43435522556E+03  0.12509219180E+03 0.  0.
          5    1    3    3  502    0  0.41410254558E+02  0.18135414113E+02 -0.19404075930E+03  0.19928118601E+03  0.41800000000E+01 0.  1.
         -5    1    3    3    0  502  0.26335361096E+02 -0.11028543208E+03 -0.20587837161E+03  0.23507403955E+03  0.41800000000E+01 0.  1.
        -11    1    1    2    0    0 -0.82977160399E+02  0.75984939295E+02 -0.17984896313E+03  0.21214280494E+03  0.00000000000E+00 0. -1.
         11    1    1    2    0    0  0.15231544744E+02  0.16165078668E+02 -0.67374740680E+01  0.23209982345E+02  0.00000000000E+00 0.  1.
</event>
<event>
 7    1  0.2693725E-009  0.1463871E+03  0.7561462E-02  0.1204984E+00
          1   -1    0    0  501    0  0.00000000000E+00  0.00000000000E+00  0.68027921635E+03  0.68027921635E+03  0.00000000000E+00 0. -1.
         -1   -1    0    0    0  501 -0.00000000000E+00 -0.00000000000E+00 -0.47542059836E+02  0.47542059836E+02  0.00000000000E+00 0.  1.
         25    2    1    2    0    0 -0.67298463838E+02 -0.95502118265E+02  0.49697838263E+03  0.52562756993E+03  0.12508833535E+03 0.  0.
          5    1    3    3  502    0 -0.95843992646E+02 -0.52827872996E+02  0.41153058795E+03  0.42585414441E+03  0.41800000000E+01 0. -1.
         -5    1    3    3    0  502  0.28545528808E+02 -0.42674245269E+02  0.85447794674E+02  0.99773425514E+02  0.41800000000E+01 0. -1.
        -11    1    1    2    0    0  0.77662853980E+02  0.71351357487E+02  0.58531234777E+02  0.12061691651E+03  0.00000000000E+00 0.  1.
         11    1    1    2    0    0 -0.10364390142E+02  0.24150760778E+02  0.77227539114E+02  0.81576789755E+02  0.00000000000E+00 0. -1.
</event>
<event>
 7    1  0.2693725E-009  0.1057754E+03  0.7561462E-02  0.1268599E+00
         -2   -1    0    0    0  501 -0.00000000000E+00  0.00000000000E+00  0.12724866597E+03  0.12724866597E+03  0.00000000000E+00 0.  1.
          2   -1    0    0  501    0  0.00000000000E+00 -0.00000000000E+00 -0.94870726765E+02  0.94870726765E+02  0.00000000000E+00 0. -1.
         25    2    1    2    0    0 -0.14599903454E+02  0.24818832362E+02 -0.17292399164E+01  0.12837350338E+03  0.12509050515E+03 0.  0.
          5    1    3    3  502    0  0.14427554855E+02 -0.45706412975E+02 -0.15939507467E+02  0.50683042770E+02  0.41800000000E+01 0.  1.
         -5    1    3    3    0  502 -0.29027458309E+02  0.70525245336E+02  0.14210267551E+02  0.77690460608E+02  0.41800000000E+01 0.  1.
        -11    1    1    2    0    0  0.49015635621E+02 -0.13751171144E+02  0.16353422611E+02  0.53470194261E+02  0.00000000000E+00 0.  1.
         11    1    1    2    0    0 -0.34415732167E+02 -0.11067661217E+02  0.17753756513E+02  0.40275695100E+02  0.00000000000E+00 0. -1.
</event>
<event>
 7    1  0.2693725E-009  0.1177758E+03  0.7561462E-02  0.1246812E+00
          1   -1    0    0  501    0  0.00000000000E+00  0.00000000000E+00  0.58650954315E+03  0.58650954315E+03  0.00000000000E+00 0. -1.
         -1   -1    0    0    0  501 -0.00000000000E+00 -0.00000000000E+00 -0.35547808147E+02  0.35547808147E+02  0.00000000000E+00 0.  1.
         25    2    1    2    0    0 -0.39458591638E+02 -0.78123246123E+02  0.21792546301E+03  0.26608535599E+03  0.12509870984E+03 0.  0.
          5    1    3    3  502    0  0.11816161224E+02  0.24892186449E+02  0.12403398353E+02  0.30505070119E+02  0.41800000000E+01 0.  1.
         -5    1    3    3    0  502 -0.51274752862E+02 -0.10301543257E+03  0.20552206465E+03  0.23558028587E+03  0.41800000000E+01 0.  1.
        -11    1    1    2    0    0  0.15984402036E+02  0.66615517787E+01  0.31275982703E+01  0.17597137594E+02  0.00000000000E+00 0.  1.
         11    1    1    2    0    0  0.23474189602E+02  0.71461694344E+02  0.32990867373E+03  0.33837485772E+03  0.00000000000E+00 0. -1.
</event>
<event>
 7    1  0.2693725E-009  0.1476361E+03  0.7561462E-02  0.1203408E+00
          2   -1    0    0  501    0  0.00000000000E+00  0.00000000000E+00  0.10067021290E+04  0.10067021290E+04  0.00000000000E+00 0. -1.
         -2   -1    0    0    0  501 -0.00000000000E+00 -0.00000000000E+00 -0.29208687286E+02  0.29208687286E+02  0.00000000000E+00 0.  1.
         25    2    1    2    0    0 -0.25875115797E+02  0.12941752637E+03  0.59135182785E+03  0.61867938620E+03  0.12509508729E+03 0.  0.
          5    1    3    3  502    0  0.17645291294E+02  0.85302085218E+01  0.29459524812E+03  0.29527606299E+03  0.41800000000E+01 0.  1.
         -5    1    3    3    0  502 -0.43520407091E+02  0.12088731785E+03  0.29675657973E+03  0.32340332321E+03  0.41800000000E+01 0.  1.
        -11    1    1    2    0    0 -0.18629593143E+02 -0.15013764692E+02  0.20411998857E+02  0.31450350844E+02  0.00000000000E+00 0.  1.
         11    1    1    2    0    0  0.44504708939E+02 -0.11440376168E+03  0.36572961503E+03  0.38578107926E+03  0.00000000000E+00 0. -1.
</event>
<event>
 7    1  0.2693725E-009  0.9118338E+02  0.7561462E-02  0.1300011E+00
          2   -1    0    0  501    0  0.00000000000E+00  0.00000000000E+00  0.64559218727E+03  0.64559218727E+03  0.00000000000E+00 0. -1.
         -2   -1    0    0    0  501 -0.00000000000E+00 -0.00000000000E+00 -0.26384702431E+02  0.26384702431E+02  0.00000000000E+00 0.  1.
         25    2    1    2    0    0  0.68689375651E+02  0.15063978127E+02  0.29385002987E+03  0.32701648532E+03  0.12508712105E+03 0.  0.
          5    1    3    3  502    0  0.44362738068E+02  0.19205213906E+02  0.29775756397E+03  0.30168515388E+03  0.41800000000E+01 0.  1.
         -5    1    3    3    0  502  0.24326637583E+02 -0.41412357789E+01 -0.39075340978E+01  0.25331331441E+02  0.41800000000E+01 0.  1.
        -11    1    1    2    0    0 -0.88212706330E+02 -0.11292898986E+02  0.21240916296E+03  0.23027519110E+03  0.00000000000E+00 0.  1.
         11    1    1    2    0    0  0.19523330678E+02 -0.37710791408E+01  0.11294829201E+03  0.11468521328E+03  0.00000000000E+00 0. -1.
</event>
<event>
 7    1  0.2693725E-009  0.1109499E+03  0.7561462E-02  0.1258821E+00
         -1   -1    0    0    0  501 -0.00000000000E+00  0.00000000000E+00  0.70747384655E+02  0.70747384655E+02  0.00000000000E+00 0.  1.
          1   -1    0    0  501    0  0.00000000000E+00 -0.00000000000E+00 -0.28917192923E+03  0.28917192923E+03  0.00000000000E+00 0. -1.
         25    2    1    2    0    0 -0.46133138646E+02 -0.50404013191E+02 -0.38659099263E+02  0.14767927753E+03  0.12508322041E+03 0.  0.
          5    1    3    3  502    0 -0.31768019738E+02 -0.75294233294E+02  0.18204741488E+02  0.83829074062E+02  0.41800000000E+01 0.  1.
         -5    1    3    3    0  502 -0.14365118907E+02  0.24890220103E+02 -0.56863840751E+02  0.63850203468E+02  0.41800000000E+01 0.  1.
        -11    1    1    2    0    0  0.26403255314E+02  0.74992776410E+02 -0.14457151101E+03  0.16499081853E+03  0.00000000000E+00 0.  1.
         11    1    1    2    0    0  0.19729883331E+02 -0.24588763218E+02 -0.35193934301E+02  0.47249217818E+02  0.00000000000E+00 0. -1.
</event>
<event>
 7    1  0.2693725E-009  0.1222504E+03  0.7561462E-02  0.1239430E+00
         -2   -1    0    0    0  501 -0.00000000000E+00  0.00000000000E+00  0.16442525869E+03  0.16442525869E+03  0.00000000000E+00 0.  1.
          2   -1    0    0  501    0  0.00000000000E+00 -0.00000000000E+00 -0.12073058270E+03  0.12073058270E+03  0.00000000000E+00 0. -1.
         25    2    1    2    0    0 -0.67647393469E+02  0.60789081777E+02  0.30222590272E+02  0.15758192980E+03  0.12508867787E+03 0.  0.
          5    1    3    3  502    0 -0.11273616505E+02 -0.37904382358E+02 -0.50273734305E+00  0.39768854345E+02  0.41800000000E+01 0. -1.
         -5    1    3    3    0  502 -0.56373776963E+02  0.98693464135E+02  0.30725327615E+02  0.11781307546E+03  0.41800000000E+01 0. -1.
        -11    1    1    2    0    0  0.21094900422E+02 -0.20886246545E+02  0.48571354600E+02  0.56924569443E+02  0.00000000000E+00 0.  1.
         11    1    1    2    0    0  0.46552493047E+02 -0.39902835232E+02 -0.35099268882E+02  0.70649342138E+02  0.00000000000E+00 0. -1.
</event>
<event>
 7    1  0.2693725E-009  0.1141213E+03  0.7561462E-02  0.1253123E+00
          2   -1    0    0  501    0  0.00000000000E+00  0.00000000000E+00  0.70613789790E+03  0.70613789790E+03  0.00000000000E+00 0.  1.
         -2   -1    0    0    0  501 -0.00000000000E+00 -0.00000000000E+00 -0.31635376245E+02  0.31635376245E+02  0.00000000000E+00 0. -1.
         25    2    1    2    0    0  0.78562422497E+02  0.64963788443E+02  0.34585320661E+03  0.38164679567E+03  0.12508992000E+03 0.  0.
          5    1    3    3  502    0  0.15359226293E+02  0.45373560860E+01 -0.70919043132E+01  0.18007246857E+02  0.41800000000E+01 0. -1.
         -5    1    3    3    0  502  0.63203196204E+02  0.60426432357E+02  0.35294511092E+03  0.36363954881E+03  0.41800000000E+01 0. -1.
        -11    1    1    2    0    0 -0.72726402845E+02 -0.15521877782E+02  0.26547047989E+03  0.27568937965E+03  0.00000000000E+00 0.  1.
         11    1    1    2    0    0 -0.58360196522E+01 -0.49441910661E+02  0.63178835160E+02  0.80437098825E+02  0.00000000000E+00 0. -1.
</event>
<event>
 7    1  0.2693725E-009  0.7749931E+02  0.7561462E-02  0.1336302E+00
         -2   -1    0    0    0  501 -0.00000000000E+00  0.00000000000E+00  0.46744236542E+02  0.46744236542E+02  0.00000000000E+00 0.  1.
          2   -1    0    0  501    0  0.00000000000E+00 -0.00000000000E+00 -0.31972297226E+03  0.31972297226E+03  0.00000000000E+00 0. -1.
         25    2    1    2    0    0 -0.90914466838E+01  0.58778581342E+02 -0.13446411337E+03  0.19303841863E+03  0.12508260173E+03 0.  0.
          5    1    3    3  502    0  0.93482779010E+00  0.30093509679E+02  0.19457078145E+02  0.36090767764E+02  0.41800000000E+01 0.  1.
         -5    1    3    3    0  502 -0.10026274474E+02  0.28685071663E+02 -0.15392119151E+03  0.15694765087E+03  0.41800000000E+01 0.  1.
        -11    1    1    2    0    0 -0.39664411319E+01  0.16783984987E+02 -0.64820053145E+02  0.67075137696E+02  0.00000000000E+00 0. -1.
         11    1    1    2    0    0  0.13057887816E+02 -0.75562566329E+02 -0.73694569209E+02  0.10635365248E+03  0.00000000000E+00 0.  1.
</event>
<event>
 7    1  0.2693725E-009  0.1240984E+03  0.7561462E-02  0.1236485E+00
          1   -1    0    0  501    0  0.00000000000E+00  0.00000000000E+00  0.54706332876E+02  0.54706332876E+02  0.00000000000E+00 0. -1.
         -1   -1    0    0    0  501 -0.00000000000E+00 -0.00000000000E+00 -0.34833751074E+03  0.34833751074E+03  0.00000000000E+00 0.  1.
         25    2    1    2    0    0  0.51027329414E+02 -0.56386685246E+02 -0.21649897438E+03  0.26134672139E+03  0.12508819391E+03 0.  0.
          5    1    3    3  502    0 -0.11292416711E+02 -0.77223524994E+02 -0.93770381538E+02  0.12207107905E+03  0.41800000000E+01 0. -1.
         -5    1    3    3    0  502  0.62319746125E+02  0.20836839747E+02 -0.12272859284E+03  0.13927564234E+03  0.41800000000E+01 0. -1.
        -11    1    1    2    0    0 -0.10378701114E+02 -0.17223307944E+02  0.83642293571E+01  0.21778891296E+02  0.00000000000E+00 0. -1.
         11    1    1    2    0    0 -0.40648628300E+02  0.73609993191E+02 -0.85496432837E+02  0.11991823092E+03  0.00000000000E+00 0.  1.
</event>
<event>
 7    1  0.2693725E-009  0.8622454E+02  0.7561462E-02  0.1312261E+00
          1   -1    0    0  501    0  0.00000000000E+00  0.00000000000E+00  0.20910453312E+03  0.20910453312E+03  0.00000000000E+00 0. -1.
         -1   -1    0    0    0  501 -0.00000000000E+00 -0.00000000000E+00 -0.70906715073E+02  0.70906715073E+02  0.00000000000E+00 0.  1.
         25    2    1    2    0    0  0.54819603684E+01 -0.54924108235E+02  0.69285955068E+02  0.15328202511E+03  0.12509247018E+03 0.  0.
          5    1    3    3  502    0  0.45549727034E+02 -0.44625512752E+02  0.87114798408E+02  0.10804015236E+03  0.41800000000E+01 0.  1.
         -5    1    3    3    0  502 -0.40067766665E+02 -0.10298595483E+02 -0.17828843340E+02  0.45241872743E+02  0.41800000000E+01 0.  1.
        -11    1    1    2    0    0  0.55523795747E+01  0.55631231805E+02  0.88240918375E+02  0.10446110543E+03  0.00000000000E+00 0. -1.
         11    1    1    2    0    0 -0.11034339943E+02 -0.70712357000E+00 -0.19329055395E+02  0.22268117662E+02  0.00000000000E+00 0.  1.
</event>
<event>
 7    1  0.2693725E-009  0.1075531E+03  0.7561462E-02  0.1265169E+00
         -1   -1    0    0    0  501 -0.00000000000E+00  0.00000000000E+00  0.12047903538E+02  0.12047903538E+02  0.00000000000E+00 0.  1.
          1   -1    0    0  501    0  0.00000000000E+00 -0.00000000000E+00 -0.99938567985E+03  0.99938567985E+03  0.00000000000E+00 0. -1.
         25    2    1    2    0    0  0.16347000106E+02 -0.52323987066E+01 -0.61640414434E+03  0.62919979413E+03  0.12507481508E+03 0.  0.
          5    1    3    3  502    0 -0.35019038579E+02  0.41949955818E+02 -0.32097974239E+03  0.32562493652E+03  0.41800000000E+01 0.  1.
         -5    1    3    3    0  502  0.51366038685E+02 -0.47182354525E+02 -0.29542440195E+03  0.30357485761E+03  0.41800000000E+01 0.  1.
        -11    1    1    2    0    0  0.51096813281E+01  0.44974895337E+02 -0.22349532821E+03  0.22803291821E+03  0.00000000000E+00 0.  1.
         11    1    1    2    0    0 -0.21456681435E+02 -0.39742496630E+02 -0.14743830377E+03  0.15420087106E+03  0.00000000000E+00 0. -1.
</event>
<event>
 7    1  0.2693725E-009  0.8646481E+02  0.7561462E-02  0.1311646E+00
          1   -1    0    0  501    0  0.00000000000E+00  0.00000000000E+00  0.42507623819E+03  0.42507623819E+03  0.00000000000E+00 0. -1.
         -1   -1    0    0    0  501 -0.00000000000E+00 -0.00000000000E+00 -0.44008025863E+02  0.44008025863E+02  0.00000000000E+00 0.  1.
         25    2    1    2    0    0  0.32865571688E+02  0.34092553733E+02  0.32855885873E+03  0.35474143333E+03  0.12509241722E+03 0.  0.
          5    1    3    3  502    0 -0.28305527962E+02  0.17673147708E+02  0.18764609586E+02  0.38511375411E+02  0.41800000000E+01 0.  1.
         -5    1    3    3    0  502  0.61171099650E+02  0.16419406025E+02  0.30979424914E+03  0.31623005792E+03  0.41800000000E+01 0.  1.
        -11    1    1    2    0    0 -0.51866597789E+01 -0.45567401110E+02  0.66894120012E+02  0.81105565628E+02  0.00000000000E+00 0. -1.
         11    1    1    2    0    0 -0.27678911909E+02  0.11474847377E+02 -0.14384766411E+02  0.33237265102E+02  0.00000000000E+00 0.  1.
</event>
<event>
 7    1  0.2693725E-009  0.1119561E+03  0.7561462E-02  0.1256990E+00
          1   -1    0    0  501    0  0.00000000000E+00  0.00000000000E+00  0.50977999851E+03  0.50977999851E+03  0.00000000000E+00 0. -1.
         -1   -1    0    0    0  501 -0.00000000000E+00 -0.00000000000E+00 -0.10541648562E+03  0.10541648562E+03  0.00000000000E+00 0.  1.
         25    2    1    2    0    0 -0.13796151409E+02 -0.61558227112E+02 -0.48994540679E+02  0.14842230874E+03  0.12509583365E+03 0.  0.
          5    1    3    3  502    0 -0.20635454638E+02 -0.88973130246E+02 -0.68146776210E+02  0.11403286983E+03  0.41800000000E+01 0. -1.
         -5    1    3    3    0  502  0.68393032292E+01  0.27414903134E+02  0.19152235531E+02  0.34389438907E+02  0.41800000000E+01 0. -1.
        -11    1    1    2    0    0 -0.31819053998E+02  0.65992078584E+01  0.75054629333E+02  0.81787524269E+02  0.00000000000E+00 0.  1.
         11    1    1    2    0    0  0.45615205408E+02  0.54959019254E+02  0.37830342423E+03  0.38498665113E+03  0.00000000000E+00 0. -1.
</event>
<event>
 7    1  0.2693725E-009  0.1331713E+03  0.7561462E-02  0.1222825E+00
          1   -1    0    0  501    0  0.00000000000E+00  0.00000000000E+00  0.32330746435E+03  0.32330746435E+03  0.00000000000E+00 0. -1.
         -1   -1    0    0    0  501 -0.00000000000E+00 -0.00000000000E+00 -0.10846386360E+03  0.10846386360E+03  0.00000000000E+00 0.  1.
         25    2    1    2    0    0  0.27288280938E+02 -0.11727202988E+03  0.49077892335E+01  0.17368879074E+03  0.12508529236E+03 0.  0.
          5    1    3    3  502    0 -0.53736810585E+01 -0.11241652382E+03  0.45263399607E+02  0.12137791817E+03  0.41800000000E+01 0. -1.
         -5    1    3    3    0  502  0.32661961997E+02 -0.48555060634E+01 -0.40355610374E+02  0.52310872572E+02  0.41800000000E+01 0. -1.
        -11    1    1    2    0    0 -0.15625182963E+02  0.72970832726E+02  0.19672731595E+03  0.21040562163E+03  0.00000000000E+00 0. -1.
         11    1    1    2    0    0 -0.11663097975E+02  0.44301197156E+02  0.13208495572E+02  0.47676915579E+02  0.00000000000E+00 0.  1.
</event>
<event>
 7    1  0.2729295E-009  0.1193292E+03  0.7561462E-02  0.1244208E+00
          1   -1    0    0  501    0  0.00000000000E+00  0.00000000000E+00  0.63519035182E+03  0.63519035182E+03  0.00000000000E+00 0. -1.
         -1   -1    0    0    0  501 -0.00000000000E+00 -0.00000000000E+00 -0.40929549818E+02  0.40929549818E+02  0.00000000000E+00 0.  1.
         25    2    1    2    0    0 -0.44751392184E+02 -0.48970407585E+02  0.11156319135E+03  0.18026237278E+03  0.12508952575E+03 0.  0.
          5    1    3    3  502    0 -0.61722044698E+01 -0.79587058711E+02  0.10254147186E+03  0.13001700609E+03  0.41800000000E+01 0.  1.
         -5    1    3    3    0  502 -0.38579187714E+02  0.30616651126E+02  0.90217194939E+01  0.50245366686E+02  0.41800000000E+01 0.  1.
        -11    1    1    2    0    0 -0.49370564414E+01  0.58493520907E+02  0.32450263448E+03  0.32976935318E+03  0.00000000000E+00 0.  1.
         11    1    1    2    0    0  0.49688448625E+02 -0.95231133217E+01  0.15819497617E+03  0.16608817567E+03  0.00000000000E+00 0. -1.
</event>
<event>
 7    1  0.2693725E-009  0.1055687E+03  0.7561462E-02  0.1269003E+00
          3   -1    0    0  501    0  0.00000000000E+00  0.00000000000E+00  0.18484417320E+03  0.18484417320E+03  0.00000000000E+00 0. -1.
         -3   -1    0    0    0  501 -0.00000000000E+00 -0.00000000000E+00 -0.82198770528E+02  0.82198770528E+02  0.00000000000E+00 0.  1.
         25    2    1    2    0    0  0.49798770366E+02  0.91193745692E+01  0.40610957822E+02  0.14091859807E+03  0.12508285600E+03 0.  0.
          5    1    3    3  502    0  0.54438697504E+02  0.48612273582E+02  0.61747550065E+02  0.95691991659E+02  0.41800000000E+01 0.  1.
         -5    1    3    3    0  502 -0.46399271381E+01 -0.39492899013E+02 -0.21136592242E+02  0.45226606416E+02  0.41800000000E+01 0.  1.
        -11    1    1    2    0    0  0.23602656628E+02  0.24988932760E+01  0.43466798074E+02  0.49524664585E+02  0.00000000000E+00 0. -1.
         11    1    1    2    0    0 -0.73401426993E+02 -0.11618267845E+02  0.18567646772E+02  0.76599681064E+02  0.00000000000E+00 0.  1.
</event>
<event>
 7    1  0.2693725E-009  0.1510664E+03  0.7561462E-02  0.1199169E+00
         -1   -1    0    0    0  501 -0.00000000000E+00  0.00000000000E+00  0.11237459297E+03  0.11237459297E+03  0.00000000000E+00 0.  1.
          1   -1    0    0  501    0  0.00000000000E+00 -0.00000000000E+00 -0.40105410079E+03  0.40105410079E+03  0.00000000000E+00 0. -1.
         25    2    1    2    0    0  0.37197539741E+02  0.98103699601E+02 -0.33003775717E+03  0.36821252783E+03  0.12509017411E+03 0.  0.
          5    1    3    3  502    0  0.34803644414E+02  0.12807379448E+03 -0.27410561627E+03  0.30457437806E+03  0.41800000000E+01 0.  1.
         -5    1    3    3    0  502  0.23938953274E+01 -0.29970094877E+02 -0.55932140897E+02  0.63638149777E+02  0.41800000000E+01 0.  1.
        -11    1    1    2    0    0 -0.50320476846E+02 -0.11783408279E+02  0.11555610223E+02  0.52957824996E+02  0.00000000000E+00 0. -1.
         11    1    1    2    0    0  0.13122937105E+02 -0.86320291322E+02  0.29802639130E+02  0.92258340931E+02  0.00000000000E+00 0.  1.
</event>
<event>
 7    1  0.2693725E-009  0.1003483E+03  0.7561462E-02  0.1279565E+00
          1   -1    0    0  501    0  0.00000000000E+00  0.00000000000E+00  0.25003612617E+03  0.25003612617E+03  0.00000000000E+00 0. -1.
         -1   -1    0    0    0  501 -0.00000000000E+00 -0.00000000000E+00 -0.71951568445E+02  0.71951568445E+02  0.00000000000E+00 0.  1.
         25    2    1    2    0    0  0.14431127405E+02  0.41679036443E+02  0.17953327619E+03  0.22322152048E+03  0.12510096094E+03 0.  0.
          5    1    3    3  502    0  0.41756318180E+02 -0.11259524194E+02  0.11579511649E+02  0.44965814604E+02  0.41800000000E+01 0.  1.
         -5    1    3    3    0  502 -0.27325190775E+02  0.52938560637E+02  0.16795376454E+03  0.17825570588E+03  0.41800000000E+01 0.  1.
        -11    1    1    2    0    0 -0.24232073385E+02  0.22221470909E+02  0.68607823050E+01  0.33586567013E+02  0.00000000000E+00 0. -1.
         11    1    1    2    0    0  0.98009459804E+01 -0.63900507351E+02 -0.83095007691E+01  0.65179607125E+02  0.00000000000E+00 0.  1.
</event>
<event>
 7    1  0.2693725E-009  0.1233799E+03  0.7561462E-02  0.1237623E+00
          1   -1    0    0  501    0  0.00000000000E+00  0.00000000000E+00  0.54542869020E+03  0.54542869020E+03  0.00000000000E+00 0. -1.
         -1   -1    0    0    0  501 -0.00000000000E+00 -0.00000000000E+00 -0.31979979789E+02  0.31979979789E+02  0.00000000000E+00 0.  1.
         25    2    1    2    0    0 -0.63653550272E+02  0.39058943358E+02  0.29014186278E+03  0.32466360732E+03  0.12508709711E+03 0.  0.
          5    1    3    3  502    0 -0.76658989592E+02  0.64302264542E+02  0.27401342928E+03  0.29173997624E+03  0.41800000000E+01 0.  1.
         -5    1    3    3    0  502  0.13005439319E+02 -0.25243321184E+02  0.16128433495E+02  0.32923631077E+02  0.41800000000E+01 0.  1.
        -11    1    1    2    0    0  0.64603314450E+02 -0.65181860338E+02  0.16396695271E+03  0.18790270019E+03  0.00000000000E+00 0.  1.
         11    1    1    2    0    0 -0.94976417724E+00  0.26122916980E+02  0.59339894927E+02  0.64842362492E+02  0.00000000000E+00 0. -1.
</event>
<event>
 7    1  0.2693725E-009  0.1100266E+03  0.7561462E-02  0.1260521E+00
         -1   -1    0    0    0  501 -0.00000000000E+00  0.00000000000E+00  0.31623461686E+02  0.31623461686E+02  0.00000000000E+00 0.  1.
          1   -1    0    0  501    0  0.00000000000E+00 -0.00000000000E+00 -0.59222375708E+03  0.59222375708E+03  0.00000000000E+00 0. -1.
         25    2    1    2    0    0 -0.21803697539E+02  0.29956454877E+02 -0.45207111514E+03  0.47052049252E+03  0.12509376611E+03 0.  0.
          5    1    3    3  502    0  0.39750685215E+01  0.76701934351E+02 -0.26557592298E+03  0.27649056253E+03  0.41800000000E+01 0.  1.
         -5    1    3    3    0  502 -0.25778766060E+02 -0.46745479474E+02 -0.18649519216E+03  0.19402992999E+03  0.41800000000E+01 0.  1.
        -11    1    1    2    0    0  0.39700267424E+02 -0.49259359662E+02 -0.29077816759E+02  0.69628407819E+02  0.00000000000E+00 0.  1.
         11    1    1    2    0    0 -0.17896569886E+02  0.19302904785E+02 -0.79451363491E+02  0.83698318427E+02  0.00000000000E+00 0. -1.
</event>
<event>
 7    1  0.2693725E-009  0.1116498E+03  0.7561462E-02  0.1257545E+00
          2   -1    0    0  501    0  0.00000000000E+00  0.00000000000E+00  0.58119987055E+03  0.58119987055E+03  0.00000000000E+00 0. -1.
         -2   -1    0    0    0  501 -0.00000000000E+00 -0.00000000000E+00 -0.37607200240E+02  0.37607200240E+02  0.00000000000E+00 0.  1.
         25    2    1    2    0    0 -0.33036737912E+02  0.84515327194E+02  0.20892601345E+03  0.25986653921E+03  0.12508506115E+03 0.  0.
          5    1    3    3  502    0  0.78118857380E+01  0.90526334471E+02  0.69717295943E+02  0.11460373705E+03  0.41800000000E+01 0. -1.
         -5    1    3    3    0  502 -0.40848623650E+02 -0.60110072773E+01  0.13920871751E+03  0.14526280216E+03  0.41800000000E+01 0. -1.
        -11    1    1    2    0    0  0.80854193882E+01 -0.26001614870E+02  0.11475972094E+02  0.29549211801E+02  0.00000000000E+00 0.  1.
         11    1    1    2    0    0  0.24951318524E+02 -0.58513712324E+02  0.32319068477E+03  0.32939131978E+03  0.00000000000E+00 0. -1.
</event>
<event>
 7    1  0.2693725E-009  0.5782791E+02  0.7561462E-02  0.1407180E+00
          2   -1    0    0  501    0  0.00000000000E+00  0.00000000000E+00  0.93687085418E+03  0.93687085418E+03  0.00000000000E+00 0. -1.
         -2   -1    0    0    0  501 -0.00000000000E+00 -0.00000000000E+00 -0.18745330375E+02  0.18745330375E+02  0.00000000000E+00 0.  1.
         25    2    1    2    0    0 -0.36823515582E+02 -0.13186299986E+02  0.73702398964E+03  0.74858583051E+03  0.12508610846E+03 0.  0.
          5    1    3    3  502    0 -0.13222134780E+02  0.20878109312E+02  0.66434479664E+03  0.66481741969E+03  0.41800000000E+01 0. -1.
         -5    1    3    3    0  502 -0.23601380802E+02 -0.34064409298E+02  0.72679192993E+02  0.83768410816E+02  0.41800000000E+01 0. -1.
        -11    1    1    2    0    0  0.84173414771E+00  0.12930071276E+02 -0.75373982805E+01  0.14990251246E+02  0.00000000000E+00 0.  1.
         11    1    1    2    0    0  0.35981781434E+02  0.25622870941E+00  0.18863893245E+03  0.19204010280E+03  0.00000000000E+00 0. -1.
</event>
<event>
 7    1  0.2693725E-009  0.7452773E+02  0.7561462E-02  0.1345340E+00
         -1   -1    0    0    0  501 -0.00000000000E+00  0.00000000000E+00  0.33795248362E+02  0.33795248362E+02  0.00000000000E+00 0. -1.
          1   -1    0    0  501    0  0.00000000000E+00 -0.00000000000E+00 -0.52049418385E+03  0.52049418385E+03  0.00000000000E+00 0.  1.
         25    2    1    2    0    0 -0.33272195933E+02  0.43849654761E+02 -0.38558685332E+03  0.40908934954E+03  0.12508814176E+03 0.  0.
          5    1    3    3  502    0 -0.34792536898E+02  0.25395025702E+02 -0.29221460404E+02  0.52218714101E+02  0.41800000000E+01 0. -1.
         -5    1    3    3    0  502  0.15203409645E+01  0.18454629059E+02 -0.35636539292E+03  0.35687063544E+03  0.41800000000E+01 0. -1.
        -11    1    1    2    0    0  0.26878618841E+02  0.12810719636E+02 -0.78328173502E+02  0.83796643445E+02  0.00000000000E+00 0. -1.
         11    1    1    2    0    0  0.63935770917E+01 -0.56660374397E+02 -0.22783908664E+02  0.61403439227E+02  0.00000000000E+00 0.  1.
</event>
<event>
 7    1  0.2693725E-009  0.9752434E+02  0.7561462E-02  0.1285590E+00
         -4   -1    0    0    0  501 -0.00000000000E+00  0.00000000000E+00  0.10508879404E+03  0.10508879404E+03  0.00000000000E+00 0.  1.
          4   -1    0    0  501    0  0.00000000000E+00 -0.00000000000E+00 -0.14746287973E+03  0.14746287973E+03  0.00000000000E+00 0. -1.
         25    2    1    2    0    0 -0.20567908210E+02  0.10889177132E+02  0.32920987006E+02  0.13142214582E+03  0.12508547478E+03 0.  0.
          5    1    3    3  502    0 -0.20150191123E+02  0.54577702251E+02  0.56835153665E+02  0.81439934168E+02  0.41800000000E+01 0. -1.
         -5    1    3    3    0  502 -0.41771708671E+00 -0.43688525118E+02 -0.23914166659E+02  0.49982211651E+02  0.41800000000E+01 0. -1.
        -11    1    1    2    0    0  0.10130592105E+02  0.39804293933E+02 -0.45954796423E+02  0.61634844253E+02  0.00000000000E+00 0. -1.
         11    1    1    2    0    0  0.10437316105E+02 -0.50693471065E+02 -0.29340276272E+02  0.59494683693E+02  0.00000000000E+00 0.  1.
</event>
<event>
 7    1  0.2693725E-009  0.1021239E+03  0.7561462E-02  0.1275892E+00
         -2   -1    0    0    0  501 -0.00000000000E+00  0.00000000000E+00  0.23748835189E+03  0.23748835189E+03  0.00000000000E+00 0. -1.
          2   -1    0    0  501    0  0.00000000000E+00 -0.00000000000E+00 -0.70243462322E+02  0.70243462322E+02  0.00000000000E+00 0.  1.
         25    2    1    2    0    0 -0.54057553529E+02 -0.47228540893E+02  0.84400044265E+02  0.16710004382E+03  0.12508518300E+03 0.  0.
          5    1    3    3  502    0  0.52607874770E+01 -0.29734546853E+02  0.98857584069E+02  0.10345101976E+03  0.41800000000E+01 0. -1.
         -5    1    3    3    0  502 -0.59318341006E+02 -0.17493994039E+02 -0.14457539804E+02  0.63649024065E+02  0.41800000000E+01 0. -1.
        -11    1    1    2    0    0 -0.12666197995E+02  0.43104781246E+02  0.45999267975E+02  0.64299202112E+02  0.00000000000E+00 0. -1.
         11    1    1    2    0    0  0.66723751524E+02  0.41237596463E+01  0.36845577331E+02  0.76332568278E+02  0.00000000000E+00 0.  1.
</event>
<event>
 7    1  0.2693725E-009  0.1157262E+03  0.7561462E-02  0.1250319E+00
          2   -1    0    0  501    0  0.00000000000E+00  0.00000000000E+00  0.32043211250E+03  0.32043211250E+03  0.00000000000E+00 0. -1.
         -2   -1    0    0    0  501 -0.00000000000E+00 -0.00000000000E+00 -0.50293175729E+02  0.50293175729E+02  0.00000000000E+00 0.  1.
         25    2    1    2    0    0  0.24526733785E+02 -0.53727497654E+02  0.19458715451E+03  0.23874495815E+03  0.12508712830E+03 0.  0.
          5    1    3    3  502    0 -0.13548380317E+02  0.29853215756E+02  0.10614740071E+03  0.11117336092E+03  0.41800000000E+01 0.  1.
         -5    1    3    3    0  502  0.38075114101E+02 -0.83580713410E+02  0.88439753794E+02  0.12757159723E+03  0.41800000000E+01 0.  1.
        -11    1    1    2    0    0 -0.58121862769E+02  0.30677215795E+02  0.57863523153E+02  0.87563861338E+02  0.00000000000E+00 0. -1.
         11    1    1    2    0    0  0.33595128985E+02  0.23050281860E+02  0.17688259111E+02  0.44416468744E+02  0.00000000000E+00 0.  1.
</event>
<event>
 7    1  0.2693725E-009  0.6543795E+02  0.7561462E-02  0.1376332E+00
         -1   -1    0    0    0  501 -0.00000000000E+00  0.00000000000E+00  0.68537655300E+02  0.68537655300E+02  0.00000000000E+00 0.  1.
          1   -1    0    0  501    0  0.00000000000E+00 -0.00000000000E+00 -0.22699768068E+03  0.22699768068E+03  0.00000000000E+00 0. -1.
         25    2    1    2    0    0 -0.55366740565E+02  0.28239780852E+02 -0.90235639199E+02  0.16629039786E+03  0.12508822749E+03 0.  0.
          5    1    3    3  502    0 -0.93702692620E+01 -0.21952911454E+01 -0.10775910805E+03  0.10826873518E+03  0.41800000000E+01 0. -1.
         -5    1    3    3    0  502 -0.45996471303E+02  0.30435071998E+02  0.17523468851E+02  0.58021662682E+02  0.41800000000E+01 0. -1.
        -11    1    1    2    0    0  0.10312370224E+02 -0.14830821983E+02 -0.78982817523E+02  0.81022118735E+02  0.00000000000E+00 0. -1.
         11    1    1    2    0    0  0.45054370340E+02 -0.13408958869E+02  0.10758431342E+02  0.48222819387E+02  0.00000000000E+00 0.  1.
</event>
<event>
 7    1  0.2693725E-009  0.1390970E+03  0.7561462E-02  0.1214549E+00
         -1   -1    0    0    0  501 -0.00000000000E+00  0.00000000000E+00  0.44065057580E+02  0.44065057580E+02  0.00000000000E+00 0.  1.
          1   -1    0    0  501    0  0.00000000000E+00 -0.00000000000E+00 -0.58361891523E+03  0.58361891523E+03  0.00000000000E+00 0. -1.
         25    2    1    2    0    0 -0.67706784024E+02 -0.88019685795E+02 -0.40434763744E+03  0.43757970776E+03  0.12508922835E+03 0.  0.
          5    1    3    3  502    0 -0.10136059271E+03 -0.53320089143E+02 -0.32453470239E+03  0.34417618616E+03  0.41800000000E+01 0. -1.
         -5    1    3    3    0  502  0.33653808683E+02 -0.34699596653E+02 -0.79812935045E+02  0.93403521600E+02  0.41800000000E+01 0. -1.
        -11    1    1    2    0    0  0.23787914021E+02  0.55617104658E+02 -0.21890690708E+02  0.64329849399E+02  0.00000000000E+00 0.  1.
         11    1    1    2    0    0  0.43918870003E+02  0.32402581138E+02 -0.11331552950E+03  0.12577441566E+03  0.00000000000E+00 0. -1.
</event>
<event>
 7    1  0.2693725E-009  0.8015039E+02  0.7561462E-02  0.1328625E+00
          2   -1    0    0  501    0  0.00000000000E+00  0.00000000000E+00  0.25922432077E+03  0.25922432077E+03  0.00000000000E+00 0. -1.
         -2   -1    0    0    0  501 -0.00000000000E+00 -0.00000000000E+00 -0.56458891216E+02  0.56458891216E+02  0.00000000000E+00 0.  1.
         25    2    1    2    0    0 -0.48827011082E+02  0.11078816492E+01  0.41863007551E+02  0.14066532084E+03  0.12509563011E+03 0.  0.
          5    1    3    3  502    0  0.16617686322E+02 -0.28045770174E+02 -0.25990044782E+02  0.41900686762E+02  0.41800000000E+01 0. -1.
         -5    1    3    3    0  502 -0.65444697404E+02  0.29153651823E+02  0.67853052333E+02  0.98764634074E+02  0.41800000000E+01 0. -1.
        -11    1    1    2    0    0  0.25374573120E+02  0.12781029472E+02  0.13304231168E+03  0.13604220070E+03  0.00000000000E+00 0. -1.
         11    1    1    2    0    0  0.23452437962E+02 -0.13888911121E+02  0.27860110323E+02  0.38975690446E+02  0.00000000000E+00 0.  1.
</event>
<event>
 7    1  0.2693725E-009  0.1286338E+03  0.7561462E-02  0.1229497E+00
          1   -1    0    0  501    0  0.00000000000E+00  0.00000000000E+00  0.63082576292E+02  0.63082576292E+02  0.00000000000E+00 0. -1.
         -1   -1    0    0    0  501 -0.00000000000E+00 -0.00000000000E+00 -0.40808642932E+03  0.40808642932E+03  0.00000000000E+00 0.  1.
         25    2    1    2    0    0 -0.47712793656E+02 -0.93696884586E+02 -0.26601094187E+03  0.31219328494E+03  0.12508880490E+03 0.  0.
          5    1    3    3  502    0 -0.31840791343E+02  0.16267017166E+02 -0.13810376021E+03  0.14271850904E+03  0.41800000000E+01 0. -1.
         -5    1    3    3    0  502 -0.15872002313E+02 -0.10996390175E+03 -0.12790718166E+03  0.16947477590E+03  0.41800000000E+01 0. -1.
        -11    1    1    2    0    0  0.52100368413E+02  0.78092259227E+02 -0.17642741993E+02  0.95520237044E+02  0.00000000000E+00 0. -1.
         11    1    1    2    0    0 -0.43875747570E+01  0.15604625359E+02 -0.61350169168E+02  0.63455483623E+02  0.00000000000E+00 0.  1.
</event>
<event>
 7    1  0.2693725E-009  0.7676916E+02  0.7561462E-02  0.1338478E+00
         -1   -1    0    0    0  501 -0.00000000000E+00  0.00000000000E+00  0.57762951833E+02  0.57762951833E+02  0.00000000000E+00 0.  1.
          1   -1    0    0  501    0  0.00000000000E+00 -0.00000000000E+00 -0.20776472991E+03  0.20776472991E+03  0.00000000000E+00 0. -1.
         25    2    1    2    0    0 -0.16052543453E+02 -0.60881289752E+01 -0.76440709083E+02  0.14759131055E+03  0.12508102766E+03 0.  0.
          5    1    3    3  502    0  0.33580265403E+01 -0.38066219068E+02 -0.97256372160E+02  0.10457814161E+03  0.41800000000E+01 0.  1.
         -5    1    3    3    0  502 -0.19410569994E+02  0.31978090092E+02  0.20815663077E+02  0.43013168946E+02  0.41800000000E+01 0.  1.
        -11    1    1    2    0    0  0.31382520145E+02  0.33590306375E+02 -0.73212949180E+02  0.86448291948E+02  0.00000000000E+00 0. -1.
         11    1    1    2    0    0 -0.15329976691E+02 -0.27502177400E+02 -0.34811981620E+00  0.31488079244E+02  0.00000000000E+00 0.  1.
</event>
<event>
 7    1  0.2693725E-009  0.2632132E+03  0.7561462E-02  0.1105228E+00
          2   -1    0    0  501    0  0.00000000000E+00  0.00000000000E+00  0.46732074595E+03  0.46732074595E+03  0.00000000000E+00 0.  1.
         -2   -1    0    0    0  501 -0.00000000000E+00 -0.00000000000E+00 -0.22073747963E+03  0.22073747963E+03  0.00000000000E+00 0. -1.
         25    2    1    2    0    0 -0.15831428384E+03  0.19551086756E+03 -0.53683679217E+02  0.28603657773E+03  0.12508826718E+03 0.  0.
          5    1    3    3  502    0  0.46593549058E+01  0.16405595842E+02  0.25736489111E+02  0.31155937393E+02  0.41800000000E+01 0. -1.
         -5    1    3    3    0  502 -0.16297363875E+03  0.17910527172E+03 -0.79420168328E+02  0.25488064034E+03  0.41800000000E+01 0. -1.
        -11    1    1    2    0    0  0.16786894588E+03 -0.16775692086E+03  0.25787481059E+03  0.35045939197E+03  0.00000000000E+00 0. -1.
         11    1    1    2    0    0 -0.95546620374E+01 -0.27753946699E+02  0.42392134951E+02  0.51562255863E+02  0.00000000000E+00 0.  1.
</event>
<event>
 7    1  0.2693725E-009  0.1589524E+03  0.7561462E-02  0.1189885E+00
         -1   -1    0    0    0  501 -0.00000000000E+00  0.00000000000E+00  0.45119443512E+02  0.45119443512E+02  0.00000000000E+00 0.  1.
          1   -1    0    0  501    0  0.00000000000E+00 -0.00000000000E+00 -0.83513501100E+03  0.83513501100E+03  0.00000000000E+00 0. -1.
         25    2    1    2    0    0  0.93780565410E+02 -0.11296209623E+03 -0.56268183131E+03  0.59482011325E+03  0.12507955149E+03 0.  0.
          5    1    3    3  502    0  0.11602928102E+02 -0.78352853053E+02 -0.12436394627E+03  0.14750478315E+03  0.41800000000E+01 0.  1.
         -5    1    3    3    0  502  0.82177637309E+02 -0.34609243180E+02 -0.43831788504E+03  0.44731533009E+03  0.41800000000E+01 0.  1.
        -11    1    1    2    0    0 -0.37454852158E+02  0.25572306719E+02 -0.12941736675E+02  0.47162457201E+02  0.00000000000E+00 0.  1.
         11    1    1    2    0    0 -0.56325713252E+02  0.87389789515E+02 -0.21439199950E+03  0.23827188406E+03  0.00000000000E+00 0. -1.
</event>
<event>
 7    1  0.2693725E-009  0.1711475E+03  0.7561462E-02  0.1176656E+00
         -2   -1    0    0    0  501 -0.00000000000E+00  0.00000000000E+00  0.65605580069E+02  0.65605580069E+02  0.00000000000E+00 0.  1.
          2   -1    0    0  501    0  0.00000000000E+00 -0.00000000000E+00 -0.47952432663E+03  0.47952432663E+03  0.00000000000E+00 0. -1.
         25    2    1    2    0    0 -0.91825104676E+02 -0.10368088652E+03 -0.24154876714E+03  0.30524626220E+03  0.12509155688E+03 0.  0.
          5    1    3    3  502    0 -0.39694675707E+01  0.27616638483E+02 -0.29941799507E+02  0.41139022249E+02  0.41800000000E+01 0. -1.
         -5    1    3    3    0  502 -0.87855637106E+02 -0.13129752501E+03 -0.21160696763E+03  0.26410723995E+03  0.41800000000E+01 0. -1.
        -11    1    1    2    0    0 -0.10264259211E+02 -0.37973322162E+00  0.40387356995E+01  0.11036783975E+02  0.00000000000E+00 0.  1.
         11    1    1    2    0    0  0.10208936389E+03  0.10406061974E+03 -0.17640871512E+03  0.22884686052E+03  0.00000000000E+00 0. -1.
</event>
<event>
 7    1  0.2693725E-009  0.1110801E+03  0.7561462E-02  0.1258583E+00
          1   -1    0    0  501    0  0.00000000000E+00  0.00000000000E+00  0.15709911700E+03  0.15709911700E+03  0.00000000000E+00 0. -1.
         -1   -1    0    0    0  501 -0.00000000000E+00 -0.00000000000E+00 -0.84866114001E+02  0.84866114001E+02  0.00000000000E+00 0.  1.
         25    2    1    2    0    0 -0.30732833164E+02 -0.23460807525E+02  0.48607542626E+02  0.13966601356E+03  0.12509590569E+03 0.  0.
          5    1    3    3  502    0 -0.25038471455E+02 -0.74392240700E+02  0.37361848855E+02  0.87031664806E+02  0.41800000000E+01 0. -1.
         -5    1    3    3    0  502 -0.56943617082E+01  0.50931433175E+02  0.11245693771E+02  0.52634348756E+02  0.41800000000E+01 0. -1.
        -11    1    1    2    0    0  0.53140331533E+02 -0.77638307227E+01  0.32610658229E+02  0.62830143507E+02  0.00000000000E+00 0. -1.
         11    1    1    2    0    0 -0.22407498369E+02  0.31224638247E+02 -0.89851978536E+01  0.39469073935E+02  0.00000000000E+00 0.  1.
</event>
<event>
 7    1  0.2693725E-009  0.6084277E+02  0.7561462E-02  0.1394329E+00
          2   -1    0    0  501    0  0.00000000000E+00  0.00000000000E+00  0.47829139039E+03  0.47829139039E+03  0.00000000000E+00 0. -1.
         -2   -1    0    0    0  501 -0.00000000000E+00 -0.00000000000E+00 -0.35458816705E+02  0.35458816705E+02  0.00000000000E+00 0.  1.
         25    2    1    2    0    0 -0.37680125953E+02  0.16576264679E+01  0.37010446978E+03  0.39248800590E+03  0.12508787555E+03 0.  0.
          5    1    3    3  502    0 -0.72410568910E+01  0.14039237402E+02 -0.40785108956E+01  0.16841607490E+02  0.41800000000E+01 0.  1.
         -5    1    3    3    0  502 -0.30439069062E+02 -0.12381610934E+02  0.37418298067E+03  0.37564639841E+03  0.41800000000E+01 0.  1.
        -11    1    1    2    0    0  0.13069116167E+02  0.29646477773E+02  0.74668528928E+02  0.81394745862E+02  0.00000000000E+00 0. -1.
         11    1    1    2    0    0  0.24611009786E+02 -0.31304104241E+02 -0.19404250230E+01  0.39867455327E+02  0.00000000000E+00 0.  1.
</event>
<event>
 7    1  0.2693725E-009  0.2038057E+03  0.7561462E-02  0.1146567E+00
          1   -1    0    0  501    0  0.00000000000E+00  0.00000000000E+00  0.74435208172E+03  0.74435208172E+03  0.00000000000E+00 0. -1.
         -1   -1    0    0    0  501 -0.00000000000E+00 -0.00000000000E+00 -0.68211829781E+02  0.68211829781E+02  0.00000000000E+00 0.  1.
         25    2    1    2    0    0  0.15403577355E+03  0.91408020382E+02  0.20209391632E+03  0.29761251440E+03  0.12509521170E+03 0.  0.
          5    1    3    3  502    0  0.84620414479E+02 -0.19227421137E+02  0.94248067160E+02  0.12818142936E+03  0.41800000000E+01 0. -1.
         -5    1    3    3    0  502  0.69415359074E+02  0.11063544152E+03  0.10784584916E+03  0.16943108504E+03  0.41800000000E+01 0. -1.
        -11    1    1    2    0    0 -0.38430498670E+01 -0.25928684903E+02  0.22315719678E+02  0.34424657992E+02  0.00000000000E+00 0.  1.
         11    1    1    2    0    0 -0.15019272369E+03 -0.65479335478E+02  0.45173061594E+03  0.48052673911E+03  0.00000000000E+00 0. -1.
</event>
<event>
 7    1  0.2693725E-009  0.9788559E+02  0.7561462E-02  0.1284806E+00
         -1   -1    0    0    0  501 -0.00000000000E+00  0.00000000000E+00  0.57815265666E+02  0.57815265666E+02  0.00000000000E+00 0.  1.
          1   -1    0    0  501    0  0.00000000000E+00 -0.00000000000E+00 -0.26160347216E+03  0.26160347216E+03  0.00000000000E+00 0. -1.
         25    2    1    2    0    0  0.12837746743E+02 -0.17186452778E+02 -0.18579778591E+03  0.22499739282E+03  0.12507129018E+03 0.  0.
          5    1    3    3  502    0 -0.44678370314E+02 -0.23651664903E+02 -0.30444188540E+02  0.59159775544E+02  0.41800000000E+01 0. -1.
         -5    1    3    3    0  502  0.57516117057E+02  0.64652121252E+01 -0.15535359737E+03  0.16583761728E+03  0.41800000000E+01 0. -1.
        -11    1    1    2    0    0 -0.44730921468E+02  0.28657712036E+02 -0.26658126039E+02  0.59437155706E+02  0.00000000000E+00 0. -1.
         11    1    1    2    0    0  0.31893174725E+02 -0.11471259258E+02  0.86677054525E+01  0.34984189298E+02  0.00000000000E+00 0.  1.
</event>
<event>
 7    1  0.2693725E-009  0.1029990E+03  0.7561462E-02  0.1274113E+00
          2   -1    0    0  501    0  0.00000000000E+00  0.00000000000E+00  0.11822033868E+03  0.11822033868E+03  0.00000000000E+00 0.  1.
         -2   -1    0    0    0  501 -0.00000000000E+00 -0.00000000000E+00 -0.19569983341E+03  0.19569983341E+03  0.00000000000E+00 0. -1.
         25    2    1    2    0    0  0.49223629038E+02 -0.56453347373E+01 -0.13888099890E+03  0.19336642670E+03  0.12509119737E+03 0.  0.
          5    1    3    3  502    0  0.17762568119E+01  0.56227336430E+02 -0.60927598451E+02  0.83032000478E+02  0.41800000000E+01 0. -1.
         -5    1    3    3    0  502  0.47447372226E+02 -0.61872671168E+02 -0.77953400451E+02  0.11033442622E+03  0.41800000000E+01 0. -1.
        -11    1    1    2    0    0 -0.22115557369E+02  0.28481544192E+02  0.74498407267E+02  0.82766593035E+02  0.00000000000E+00 0.  1.
         11    1    1    2    0    0 -0.27108071668E+02 -0.22836209454E+02 -0.13096903095E+02  0.37787152347E+02  0.00000000000E+00 0. -1.
</event>
<event>
 7    1  0.2693725E-009  0.1074923E+03  0.7561462E-02  0.1265286E+00
         -3   -1    0    0    0  501 -0.00000000000E+00  0.00000000000E+00  0.17487266832E+03  0.17487266832E+03  0.00000000000E+00 0.  1.
          3   -1    0    0  501    0  0.00000000000E+00 -0.00000000000E+00 -0.87287827155E+02  0.87287827155E+02  0.00000000000E+00 0. -1.
         25    2    1    2    0    0  0.17377416533E+02 -0.53386093767E+02  0.77007297557E+02  0.15725787209E+03  0.12509142594E+03 0.  0.
          5    1    3    3  502    0 -0.23621363525E+02  0.33350230120E+02  0.22643638645E+02  0.46908564622E+02  0.41800000000E+01 0.  1.
         -5    1    3    3    0  502  0.40998780058E+02 -0.86736323887E+02  0.54363658913E+02  0.11034930747E+03  0.41800000000E+01 0.  1.
        -11    1    1    2    0    0 -0.36350712269E+02  0.42778131719E+02  0.39559001800E+02  0.68675013354E+02  0.00000000000E+00 0.  1.
         11    1    1    2    0    0  0.18973295736E+02  0.10607962048E+02 -0.28981458191E+02  0.36227610034E+02  0.00000000000E+00 0. -1.
</event>
<event>
 7    1  0.2693725E-009  0.1260215E+03  0.7561462E-02  0.1233481E+00
         -2   -1    0    0    0  501 -0.00000000000E+00  0.00000000000E+00  0.19445765250E+03  0.19445765250E+03  0.00000000000E+00 0. -1.
          2   -1    0    0  501    0  0.00000000000E+00 -0.00000000000E+00 -0.10295096666E+03  0.10295096666E+03  0.00000000000E+00 0.  1.
         25    2    1    2    0    0  0.52555375532E+02  0.61100841329E+02  0.31085679060E+02  0.15201678866E+03  0.12508958503E+03 0.  0.
          5    1    3    3  502    0  0.37559011827E+02  0.91669824700E+02 -0.86393274851E+01  0.99529626289E+02  0.41800000000E+01 0. -1.
         -5    1    3    3    0  502  0.14996363705E+02 -0.30568983370E+02  0.39725006545E+02  0.52487162370E+02  0.41800000000E+01 0. -1.
        -11    1    1    2    0    0 -0.32540208513E+02  0.17864632041E+02  0.51440011803E+02  0.63435676573E+02  0.00000000000E+00 0. -1.
         11    1    1    2    0    0 -0.20015167018E+02 -0.78965473370E+02  0.89809949809E+01  0.81956153925E+02  0.00000000000E+00 0.  1.
</event>
<event>
 7    1  0.2693725E-009  0.1288667E+03  0.7561462E-02  0.1229147E+00
         -4   -1    0    0    0  501 -0.00000000000E+00  0.00000000000E+00  0.79019014222E+02  0.79019014222E+02  0.00000000000E+00 0.  1.
          4   -1    0    0  501    0  0.00000000000E+00 -0.00000000000E+00 -0.28250650447E+03  0.28250650447E+03  0.00000000000E+00 0. -1.
         25    2    1    2    0    0  0.96635243250E+02 -0.17464441693E+02 -0.14817923279E+03  0.21736524156E+03  0.12508871351E+03 0.  0.
          5    1    3    3  502    0 -0.89322664133E+01 -0.47430859142E+02 -0.55470120428E+02  0.73646985292E+02  0.41800000000E+01 0.  1.
         -5    1    3    3    0  502  0.10556750966E+03  0.29966417449E+02 -0.92709112357E+02  0.14371825627E+03  0.41800000000E+01 0.  1.
        -11    1    1    2    0    0 -0.63148719465E+02  0.19010342816E+02  0.13776764767E+02  0.67371753365E+02  0.00000000000E+00 0.  1.
         11    1    1    2    0    0 -0.33486523785E+02 -0.15459011233E+01 -0.69085022234E+02  0.76788523769E+02  0.00000000000E+00 0. -1.
</event>
<event>
 7    1  0.2693725E-009  0.8060657E+02  0.7561462E-02  0.1327339E+00
          3   -1    0    0  501    0  0.00000000000E+00  0.00000000000E+00  0.91121644705E+03  0.91121644705E+03  0.00000000000E+00 0. -1.
         -3   -1    0    0    0  501 -0.00000000000E+00 -0.00000000000E+00 -0.16579337540E+02  0.16579337540E+02  0.00000000000E+00 0.  1.
         25    2    1    2    0    0  0.36508027241E+02  0.34046597007E+02  0.61987790412E+03  0.63433845685E+03  0.12507859526E+03 0.  0.
          5    1    3    3  502    0  0.47221014410E+02 -0.86419731714E+01  0.85572349455E+02  0.98206961532E+02  0.41800000000E+01 0.  1.
         -5    1    3    3    0  502 -0.10712987169E+02  0.42688570178E+02  0.53430555467E+03  0.53613149531E+03  0.41800000000E+01 0.  1.
        -11    1    1    2    0    0  0.11484290783E+02 -0.38426528435E+01 -0.78806815780E+00  0.12135731007E+02  0.00000000000E+00 0.  1.
         11    1    1    2    0    0 -0.47992318024E+02 -0.30203944164E+02  0.27554727354E+03  0.28132159673E+03  0.00000000000E+00 0. -1.
</event>
<event>
 7    1  0.2693725E-009  0.1046457E+03  0.7561462E-02  0.1270819E+00
          1   -1    0    0  501    0  0.00000000000E+00  0.00000000000E+00  0.32322296307E+03  0.32322296307E+03  0.00000000000E+00 0. -1.
         -1   -1    0    0    0  501 -0.00000000000E+00 -0.00000000000E+00 -0.44069732832E+02  0.44069732832E+02  0.00000000000E+00 0.  1.
         25    2    1    2    0    0  0.52717000416E+01  0.48082735486E+02  0.15061370467E+03  0.20166959462E+03  0.12508555906E+03 0.  0.
          5    1    3    3  502    0  0.11749049554E+02  0.89991995462E+02  0.93024896508E+02  0.13002962425E+03  0.41800000000E+01 0. -1.
         -5    1    3    3    0  502 -0.64773495120E+01 -0.41909259976E+02  0.57588808165E+02  0.71639970367E+02  0.41800000000E+01 0. -1.
        -11    1    1    2    0    0  0.26582281300E+02 -0.18797662165E+02  0.11613201613E+03  0.12060934853E+03  0.00000000000E+00 0. -1.
         11    1    1    2    0    0 -0.31853981342E+02 -0.29285073321E+02  0.12407509437E+02  0.45013752756E+02  0.00000000000E+00 0.  1.
</event>
<event>
 7    1  0.2693725E-009  0.1174094E+03  0.7561462E-02  0.1247433E+00
         -1   -1    0    0    0  501 -0.00000000000E+00  0.00000000000E+00  0.59657630286E+03  0.59657630286E+03  0.00000000000E+00 0.  1.
          1   -1    0    0  501    0  0.00000000000E+00 -0.00000000000E+00 -0.32716498395E+02  0.32716498395E+02  0.00000000000E+00 0. -1.
         25    2    1    2    0    0 -0.42422513766E+02  0.74039965650E+02  0.28090700738E+03  0.31911995172E+03  0.12508881085E+03 0.  0.
          5    1    3    3  502    0  0.27938320917E+02  0.67455577085E+02  0.19210114032E+03  0.20555078489E+03  0.41800000000E+01 0.  1.
         -5    1    3    3    0  502 -0.70360834683E+02  0.65843885650E+01  0.88805867064E+02  0.11356916683E+03  0.41800000000E+01 0.  1.
        -11    1    1    2    0    0  0.36569378905E+02 -0.32436838613E+02  0.25515757028E+03  0.25979771678E+03  0.00000000000E+00 0.  1.
         11    1    1    2    0    0  0.58531348608E+01 -0.41603127037E+02  0.27795226794E+02  0.50375132749E+02  0.00000000000E+00 0. -1.
</event>
<event>
 7    1  0.2693725E-009  0.1230339E+03  0.7561462E-02  0.1238174E+00
          2   -1    0    0  501    0  0.00000000000E+00  0.00000000000E+00  0.13933316869E+04  0.13933316869E+04  0.00000000000E+00 0. -1.
         -2   -1    0    0    0  501 -0.00000000000E+00 -0.00000000000E+00 -0.32480092562E+02  0.32480092562E+02  0.00000000000E+00 0.  1.
         25    2    1    2    0    0  0.16252035761E+02 -0.61241028330E+01  0.11578437586E+04  0.11647098977E+04  0.12508134643E+03 0.  0.
          5    1    3    3  502    0 -0.33616034761E+01  0.53943739724E+02  0.75239987209E+03  0.75435022857E+03  0.41800000000E+01 0.  1.
         -5    1    3    3    0  502  0.19613639237E+02 -0.60067842558E+02  0.40544388649E+03  0.41035966913E+03  0.41800000000E+01 0.  1.
        -11    1    1    2    0    0  0.55072744614E+01  0.65273936423E+02  0.21469541134E+02  0.68934447446E+02  0.00000000000E+00 0.  1.
         11    1    1    2    0    0 -0.21759310222E+02 -0.59149833590E+02  0.18153829462E+03  0.19216743431E+03  0.00000000000E+00 0. -1.
</event>
<event>
 7    1  0.2693725E-009  0.9380575E+02  0.7561462E-02  0.1293889E+00
          1   -1    0    0  501    0  0.00000000000E+00  0.00000000000E+00  0.72396011760E+02  0.72396011760E+02  0.00000000000E+00 0. -1.
         -1   -1    0    0    0  501 -0.00000000000E+00 -0.00000000000E+00 -0.20924566240E+03  0.20924566240E+03  0.00000000000E+00 0.  1.
         25    2    1    2    0    0 -0.23595970937E+02  0.26585686870E+02 -0.12644767989E+03  0.18138907878E+03  0.12509761612E+03 0.  0.
          5    1    3    3  502    0  0.44487267864E+02 -0.19363219034E+01 -0.86437130291E+02  0.97322742652E+02  0.41800000000E+01 0. -1.
         -5    1    3    3    0  502 -0.68083238801E+02  0.28522008774E+02 -0.40010549596E+02  0.84066336123E+02  0.41800000000E+01 0. -1.
        -11    1    1    2    0    0  0.10745905729E+02 -0.45129331118E+02  0.29099561703E+02  0.54762354847E+02  0.00000000000E+00 0. -1.
         11    1    1    2    0    0  0.12850065208E+02  0.18543644247E+02 -0.39501532454E+02  0.45490240536E+02  0.00000000000E+00 0.  1.
</event>
<event>
 7    1  0.2693725E-009  0.1389461E+03  0.7561462E-02  0.1214754E+00
         -2   -1    0    0    0  501 -0.00000000000E+00  0.00000000000E+00  0.21565819224E+02  0.21565819224E+02  0.00000000000E+00 0.  1.
          2   -1    0    0  501    0  0.00000000000E+00 -0.00000000000E+00 -0.17020144044E+04  0.17020144044E+04  0.00000000000E+00 0. -1.
         25    2    1    2    0    0 -0.11045040609E+03  0.19006985163E+01 -0.14516575095E+04  0.14612196981E+04  0.12510226372E+03 0.  0.
          5    1    3    3  502    0  0.22376248074E+02  0.22666967981E+02 -0.24881157810E+03  0.25087678591E+03  0.41800000000E+01 0.  1.
         -5    1    3    3    0  502 -0.13282665417E+03 -0.20766269465E+02 -0.12028459314E+04  0.12103429122E+04  0.41800000000E+01 0. -1.
        -11    1    1    2    0    0  0.32159891877E+02  0.54873199214E+01 -0.17742045806E+02  0.37136902332E+02  0.00000000000E+00 0.  1.
         11    1    1    2    0    0  0.78290514214E+02 -0.73880184378E+01 -0.21104902990E+03  0.22522362321E+03  0.00000000000E+00 0. -1.
</event>
<event>
 7    1  0.2693725E-009  0.1264586E+03  0.7561462E-02  0.1232807E+00
          2   -1    0    0  501    0  0.00000000000E+00  0.00000000000E+00  0.56783356056E+03  0.56783356056E+03  0.00000000000E+00 0. -1.
         -2   -1    0    0    0  501 -0.00000000000E+00 -0.00000000000E+00 -0.33638708107E+02  0.33638708107E+02  0.00000000000E+00 0.  1.
         25    2    1    2    0    0  0.51462563901E+01 -0.71995526308E+02  0.39548846516E+03  0.42103286491E+03  0.12509079701E+03 0.  0.
          5    1    3    3  502    0 -0.43974259809E+02  0.10662035668E+02  0.91313898051E+02  0.10199566122E+03  0.41800000000E+01 0. -1.
         -5    1    3    3    0  502  0.49120516199E+02 -0.82657561976E+02  0.30417456711E+03  0.31903720369E+03  0.41800000000E+01 0. -1.
        -11    1    1    2    0    0 -0.32378012762E+02  0.77014151769E+02  0.80663444567E+02  0.11612969720E+03  0.00000000000E+00 0.  1.
         11    1    1    2    0    0  0.27231756372E+02 -0.50186254610E+01  0.58042942729E+02  0.64309706556E+02  0.00000000000E+00 0. -1.
</event>
<event>
 7    1  0.3975869E-009  0.1158723E+03  0.7561462E-02  0.1250066E+00
         -2   -1    0    0    0  501 -0.00000000000E+00  0.00000000000E+00  0.35424225577E+02  0.35424225577E+02  0.00000000000E+00 0.  1.
          2   -1    0    0  501    0  0.00000000000E+00 -0.00000000000E+00 -0.55574388958E+03  0.55574388958E+03  0.00000000000E+00 0. -1.
         25    2    1    2    0    0  0.87067464832E+02  0.15840615008E+02 -0.28928434778E+03  0.32736104123E+03  0.12509256145E+03 0.  0.
          5    1    3    3  502    0  0.21719394170E+02  0.49393555909E+02 -0.21907412194E+03  0.22565991835E+03  0.41800000000E+01 0. -1.
         -5    1    3    3    0  502  0.65348070662E+02 -0.33552940901E+02 -0.70210225843E+02  0.10170112288E+03  0.41800000000E+01 0. -1.
        -11    1    1    2    0    0 -0.42266257659E+02  0.19918996584E+02 -0.31875350306E+02  0.56561832701E+02  0.00000000000E+00 0.  1.
         11    1    1    2    0    0 -0.44801207173E+02 -0.35759611591E+02 -0.19915996592E+03  0.20724524122E+03  0.00000000000E+00 0. -1.
</event>
<event>
 7    1  0.2693725E-009  0.8362148E+02  0.7561462E-02  0.1319077E+00
         -2   -1    0    0    0  501 -0.00000000000E+00  0.00000000000E+00  0.41071629651E+02  0.41071629651E+02  0.00000000000E+00 0. -1.
          2   -1    0    0  501    0  0.00000000000E+00 -0.00000000000E+00 -0.36117770317E+03  0.36117770317E+03  0.00000000000E+00 0.  1.
         25    2    1    2    0    0  0.24382090838E+02  0.35570242491E+02 -0.13006481189E+03  0.18554067014E+03  0.12509498983E+03 0.  0.
          5    1    3    3  502    0 -0.37042993609E+02  0.22914355383E+02 -0.30973639007E+01  0.43867039121E+02  0.41800000000E+01 0. -1.
         -5    1    3    3    0  502  0.61425084447E+02  0.12655887108E+02 -0.12696744799E+03  0.14167363102E+03  0.41800000000E+01 0. -1.
        -11    1    1    2    0    0 -0.35809411128E+02 -0.19100302175E+02 -0.19229975340E+03  0.19653582529E+03  0.00000000000E+00 0.  1.
         11    1    1    2    0    0  0.11427320290E+02 -0.16469940316E+02  0.22584917664E+01  0.20172837383E+02  0.00000000000E+00 0. -1.
</event>
<event>
 7    1  0.2693725E-009  0.1083848E+03  0.7561462E-02  0.1263591E+00
         -3   -1    0    0    0  501 -0.00000000000E+00  0.00000000000E+00  0.34156234974E+03  0.34156234974E+03  0.00000000000E+00 0.  1.
          3   -1    0    0  501    0  0.00000000000E+00 -0.00000000000E+00 -0.43495847043E+02  0.43495847043E+02  0.00000000000E+00 0. -1.
         25    2    1    2    0    0 -0.34705837018E-01 -0.42701954529E+02  0.21701153959E+03  0.25409644004E+03  0.12509010512E+03 0.  0.
          5    1    3    3  502    0  0.47196223335E+02 -0.48492086960E+02  0.61928941599E+02  0.91823919555E+02  0.41800000000E+01 0. -1.
         -5    1    3    3    0  502 -0.47230929172E+02  0.57901324311E+01  0.15508259799E+03  0.16227252048E+03  0.41800000000E+01 0. -1.
        -11    1    1    2    0    0 -0.18700196653E+02 -0.24851560500E+02  0.14568742192E+02  0.34344514310E+02  0.00000000000E+00 0. -1.
         11    1    1    2    0    0  0.18734902490E+02  0.67553515029E+02  0.66486220912E+02  0.96617242433E+02  0.00000000000E+00 0.  1.
</event>
<event>
 7    1  0.2693725E-009  0.1951035E+03  0.7561462E-02  0.1153937E+00
          1   -1    0    0  501    0  0.00000000000E+00  0.00000000000E+00  0.33298082785E+03  0.33298082785E+03  0.00000000000E+00 0. -1.
         -1   -1    0    0    0  501 -0.00000000000E+00 -0.00000000000E+00 -0.14240646893E+03  0.14240646893E+03  0.00000000000E+00 0.  1.
         25    2    1    2    0    0  0.11555569826E+03 -0.14584208211E+03  0.53580641098E+02  0.23052499690E+03  0.12509139370E+03 0.  0.
          5    1    3    3  502    0  0.38665534284E+02 -0.93440781688E+00 -0.27352094878E+02  0.47555295747E+02  0.41800000000E+01 0.  1.
         -5    1    3    3    0  502  0.76890163972E+02 -0.14490767430E+03  0.80932735975E+02  0.18296970115E+03  0.41800000000E+01 0.  1.
        -11    1    1    2    0    0 -0.55164107175E+02  0.53323096247E+02  0.10461002022E+03  0.12972928600E+03  0.00000000000E+00 0. -1.
         11    1    1    2    0    0 -0.60391591081E+02  0.92518985866E+02  0.32383697598E+02  0.11513301390E+03  0.00000000000E+00 0.  1.
</event>
<event>
 7    1  0.2693725E-009  0.9834634E+02  0.7561462E-02  0.1283812E+00
         -1   -1    0    0    0  501 -0.00000000000E+00  0.00000000000E+00  0.25818394002E+03  0.25818394002E+03  0.00000000000E+00 0.  1.
          1   -1    0    0  501    0  0.00000000000E+00 -0.00000000000E+00 -0.77795150944E+02  0.77795150944E+02  0.00000000000E+00 0. -1.
         25    2    1    2    0    0 -0.69406240917E+02  0.57837338033E+02  0.99060726194E+02  0.18337143908E+03  0.12509865406E+03 0.  0.
          5    1    3    3  502    0 -0.38325721476E+02  0.48197604536E+01  0.11361712699E+03  0.12007670450E+03  0.41800000000E+01 0.  1.
         -5    1    3    3    0  502 -0.31080519440E+02  0.53017577579E+02 -0.14556400801E+02  0.63294734578E+02  0.41800000000E+01 0.  1.
        -11    1    1    2    0    0  0.45320789020E+00 -0.15123790628E+02  0.68910192864E+02  0.70551747823E+02  0.00000000000E+00 0.  1.
         11    1    1    2    0    0  0.68953033026E+02 -0.42713547405E+02  0.12417870019E+02  0.82055904061E+02  0.00000000000E+00 0. -1.
</event>
<event>
 7    1  0.2693725E-009  0.1443118E+03  0.7561462E-02  0.1207642E+00
          2   -1    0    0  501    0  0.00000000000E+00  0.00000000000E+00  0.13511606366E+04  0.13511606366E+04  0.00000000000E+00 0. -1.
         -2   -1    0    0    0  501 -0.00000000000E+00 -0.00000000000E+00 -0.21752716257E+02  0.21752716257E+02  0.00000000000E+00 0.  1.
         25    2    1    2    0    0 -0.92951321294E+01 -0.11580173673E+03  0.93137397018E+03  0.94689019507E+03  0.12508847861E+03 0.  0.
          5    1    3    3  502    0 -0.60406632969E+02 -0.94464187172E+02  0.70045261365E+03  0.70938267553E+03  0.41800000000E+01 0. -1.
         -5    1    3    3    0  502  0.51111500840E+02 -0.21337549556E+02  0.23092135652E+03  0.23750751954E+03  0.41800000000E+01 0. -1.
        -11    1    1    2    0    0 -0.11416633378E+02  0.65303148562E+02  0.82655221719E+02  0.10595624761E+03  0.00000000000E+00 0.  1.
         11    1    1    2    0    0  0.20711765507E+02  0.50498588166E+02  0.31537872846E+03  0.32006691020E+03  0.00000000000E+00 0. -1.
</event>
<event>
 7    1  0.2693725E-009  0.1256384E+03  0.7561462E-02  0.1234075E+00
          2   -1    0    0  501    0  0.00000000000E+00  0.00000000000E+00  0.23152182438E+02  0.23152182438E+02  0.00000000000E+00 0. -1.
         -2   -1    0    0    0  501 -0.00000000000E+00 -0.00000000000E+00 -0.88429529768E+03  0.88429529768E+03  0.00000000000E+00 0.  1.
         25    2    1    2    0    0  0.90226076548E+02 -0.18767040399E+02 -0.49785956762E+03  0.52154162383E+03  0.12509424298E+03 0.  0.
          5    1    3    3  502    0  0.11287933177E+03 -0.42860735205E+02 -0.41500390720E+03  0.43223199968E+03  0.41800000000E+01 0. -1.
         -5    1    3    3    0  502 -0.22653255222E+02  0.24093694805E+02 -0.82855660423E+02  0.89309624149E+02  0.41800000000E+01 0. -1.
        -11    1    1    2    0    0 -0.59294244945E+02 -0.28955123800E+01 -0.33082827860E+03  0.33611239400E+03  0.00000000000E+00 0.  1.
         11    1    1    2    0    0 -0.30931831603E+02  0.21662552779E+02 -0.32455269016E+02  0.49793462283E+02  0.00000000000E+00 0. -1.
</event>
<event>
 7    1  0.2693725E-009  0.1237274E+03  0.7561462E-02  0.1237072E+00
         -2   -1    0    0    0  501 -0.00000000000E+00  0.00000000000E+00  0.14263539698E+02  0.14263539698E+02  0.00000000000E+00 0.  1.
          2   -1    0    0  501    0  0.00000000000E+00 -0.00000000000E+00 -0.14926925926E+04  0.14926925926E+04  0.00000000000E+00 0. -1.
         25    2    1    2    0    0  0.55868085446E+02 -0.28538636567E+02 -0.11852900158E+04  0.11935224647E+04  0.12509098911E+03 0.  0.
          5    1    3    3  502    0 -0.31561831434E+02  0.21669113977E+02 -0.37546533688E+03  0.37743528095E+03  0.41800000000E+01 0.  1.
         -5    1    3    3    0  502  0.87429916880E+02 -0.50207750544E+02 -0.80982467888E+03  0.81608718376E+03  0.41800000000E+01 0.  1.
        -11    1    1    2    0    0 -0.34249966136E+02 -0.30063771823E+02 -0.89569060822E+02  0.10049630447E+03  0.00000000000E+00 0.  1.
         11    1    1    2    0    0 -0.21618119310E+02  0.58602408391E+02 -0.20356997636E+03  0.21293736316E+03  0.00000000000E+00 0. -1.
</event>
<event>
 7    1  0.2693725E-009  0.1233396E+03  0.7561462E-02  0.1237687E+00
         -3   -1    0    0    0  501 -0.00000000000E+00  0.00000000000E+00  0.47227023092E+02  0.47227023092E+02  0.00000000000E+00 0.  1.
          3   -1    0    0  501    0  0.00000000000E+00 -0.00000000000E+00 -0.36725518000E+03  0.36725518000E+03  0.00000000000E+00 0. -1.
         25    2    1    2    0    0 -0.12255451452E+02 -0.66725308725E+02 -0.11839197093E+03  0.18511173852E+03  0.12508890456E+03 0.  0.
          5    1    3    3  502    0 -0.63347957646E+02 -0.88594342075E+01 -0.43425853229E+02  0.77425644596E+02  0.41800000000E+01 0. -1.
         -5    1    3    3    0  502  0.51092506194E+02 -0.57865874517E+02 -0.74966117699E+02  0.10768609393E+03  0.41800000000E+01 0. -1.
        -11    1    1    2    0    0 -0.29934124771E+02  0.47651311345E+01 -0.32906911969E+02  0.44739503304E+02  0.00000000000E+00 0. -1.
         11    1    1    2    0    0  0.42189576223E+02  0.61960177590E+02 -0.16872927401E+03  0.18463096126E+03  0.00000000000E+00 0.  1.
</event>
<event>
 7    1  0.2693725E-009  0.1018703E+03  0.7561462E-02  0.1276411E+00
         -2   -1    0    0    0  501 -0.00000000000E+00  0.00000000000E+00  0.28107252591E+02  0.28107252591E+02  0.00000000000E+00 0.  1.
          2   -1    0    0  501    0  0.00000000000E+00 -0.00000000000E+00 -0.48146881208E+03  0.48146881208E+03  0.00000000000E+00 0. -1.
         25    2    1    2    0    0  0.25219905836E+02 -0.30128224039E+02 -0.29047358726E+03  0.31869053692E+03  0.12507997398E+03 0.  0.
          5    1    3    3  502    0 -0.21917926969E+02 -0.51604091343E+02 -0.23908116474E+03  0.24560263333E+03  0.41800000000E+01 0.  1.
         -5    1    3    3    0  502  0.47137832805E+02  0.21475867304E+02 -0.51392422519E+02  0.73087903585E+02  0.41800000000E+01 0.  1.
        -11    1    1    2    0    0  0.32707661634E+02  0.12272449366E+02 -0.87054028907E+02  0.93801962090E+02  0.00000000000E+00 0.  1.
         11    1    1    2    0    0 -0.57927567470E+02  0.17855774673E+02 -0.75833943324E+02  0.97083565665E+02  0.00000000000E+00 0. -1.
</event>
<event>
 7    1  0.2693725E-009  0.6929170E+02  0.7561462E-02  0.1362518E+00
          3   -1    0    0  501    0  0.00000000000E+00  0.00000000000E+00  0.11786484203E+03  0.11786484203E+03  0.00000000000E+00 0. -1.
         -3   -1    0    0    0  501 -0.00000000000E+00 -0.00000000000E+00 -0.16249550700E+03  0.16249550700E+03  0.00000000000E+00 0.  1.
         25    2    1    2    0    0  0.19582981974E+02 -0.57524379379E+02  0.35454448543E+02  0.14351852874E+03  0.12509197722E+03 0.  0.
          5    1    3    3  502    0  0.46481901470E+01 -0.29212305716E+02  0.81773916655E+02  0.87059808879E+02  0.41800000000E+01 0. -1.
         -5    1    3    3    0  502  0.14934791827E+02 -0.28312073663E+02 -0.46319468112E+02  0.56458719860E+02  0.41800000000E+01 0. -1.
        -11    1    1    2    0    0 -0.18166806248E+02 -0.70611672355E+00 -0.76338704083E+02  0.78473748421E+02  0.00000000000E+00 0.  1.
         11    1    1    2    0    0 -0.14161757253E+01  0.58230496103E+02 -0.37464094282E+01  0.58368071868E+02  0.00000000000E+00 0. -1.
</event>
<event>
 7    1  0.2693725E-009  0.2168870E+03  0.7561462E-02  0.1136225E+00
         -1   -1    0    0    0  501 -0.00000000000E+00  0.00000000000E+00  0.54649321051E+03  0.54649321051E+03  0.00000000000E+00 0.  1.
          1   -1    0    0  501    0  0.00000000000E+00 -0.00000000000E+00 -0.95156633179E+02  0.95156633179E+02  0.00000000000E+00 0. -1.
         25    2    1    2    0    0  0.14485672249E+03 -0.12488422073E+03  0.14345016167E+03  0.26982454573E+03  0.12509115861E+03 0.  0.
          5    1    3    3  502    0  0.10176208486E+03 -0.96174915058E+01  0.87336946243E+02  0.13451108741E+03  0.41800000000E+01 0.  1.
         -5    1    3    3    0  502  0.43094637632E+02 -0.11526672922E+03  0.56113215425E+02  0.13531345833E+03  0.41800000000E+01 0.  1.
        -11    1    1    2    0    0 -0.21940248596E+02 -0.11475947840E+02  0.32518245453E+02  0.40871850639E+02  0.00000000000E+00 0.  1.
         11    1    1    2    0    0 -0.12291647389E+03  0.13636016857E+03  0.27536817021E+03  0.33095344732E+03  0.00000000000E+00 0. -1.
</event>
<event>
 7    1  0.2693725E-009  0.8558514E+02  0.7561462E-02  0.1313909E+00
         -2   -1    0    0    0  501 -0.00000000000E+00  0.00000000000E+00  0.26910201198E+03  0.26910201198E+03  0.00000000000E+00 0.  1.
          2   -1    0    0  501    0  0.00000000000E+00 -0.00000000000E+00 -0.47667464776E+02  0.47667464776E+02  0.00000000000E+00 0. -1.
         25    2    1    2    0    0 -0.27173191286E+02  0.29582757915E+02  0.15013301229E+03  0.19950044540E+03  0.12508790687E+03 0.  0.
          5    1    3    3  502    0 -0.90137712706E+01 -0.23052568264E+02 -0.12144087835E+02  0.27885843101E+02  0.41800000000E+01 0. -1.
         -5    1    3    3    0  502 -0.18159420016E+02  0.52635326179E+02  0.16227710012E+03  0.17161460230E+03  0.41800000000E+01 0. -1.
        -11    1    1    2    0    0  0.48142534014E+02 -0.43646420788E+02  0.37328183993E+02  0.74940689542E+02  0.00000000000E+00 0. -1.
         11    1    1    2    0    0 -0.20969342728E+02  0.14063662873E+02  0.33973350921E+02  0.42328341813E+02  0.00000000000E+00 0.  1.
</event>
<event>
 7    1  0.2693725E-009  0.1082260E+03  0.7561462E-02  0.1263891E+00
          1   -1    0    0  501    0  0.00000000000E+00  0.00000000000E+00  0.10658827399E+04  0.10658827399E+04  0.00000000000E+00 0. -1.
         -1   -1    0    0    0  501 -0.00000000000E+00 -0.00000000000E+00 -0.11490694489E+02  0.11490694489E+02  0.00000000000E+00 0.  1.
         25    2    1    2    0    0  0.18526216148E+02 -0.11923862999E+02  0.60276542769E+03  0.61600295660E+03  0.12509229603E+03 0.  0.
          5    1    3    3  502    0  0.46050054143E+02  0.41954551009E+02  0.22942873542E+03  0.23777259908E+03  0.41800000000E+01 0. -1.
         -5    1    3    3    0  502 -0.27523837995E+02 -0.53878414008E+02  0.37333669226E+03  0.37823035751E+03  0.41800000000E+01 0. -1.
        -11    1    1    2    0    0  0.35259092424E+01 -0.38329415762E+02  0.15482658982E+03  0.15953949061E+03  0.00000000000E+00 0.  1.
         11    1    1    2    0    0 -0.22052125391E+02  0.50253278761E+02  0.29680002793E+03  0.30183098721E+03  0.00000000000E+00 0. -1.
</event>
<event>
 7    1  0.2693725E-009  0.1877129E+03  0.7561462E-02  0.1160540E+00
         -1   -1    0    0    0  501 -0.00000000000E+00  0.00000000000E+00  0.11203071690E+03  0.11203071690E+03  0.00000000000E+00 0.  1.
          1   -1    0    0  501    0  0.00000000000E+00 -0.00000000000E+00 -0.32195987535E+03  0.32195987535E+03  0.00000000000E+00 0. -1.
         25    2    1    2    0    0  0.37720933565E+02 -0.15354722036E+03 -0.12229536758E+03  0.23579766015E+03  0.12507902259E+03 0.  0.
          5    1    3    3  502    0 -0.33017882484E+02 -0.11743802241E+03 -0.75179118670E+02  0.14335704362E+03  0.41800000000E+01 0. -1.
         -5    1    3    3    0  502  0.70738816050E+02 -0.36109197944E+02 -0.47116248907E+02  0.92440616524E+02  0.41800000000E+01 0. -1.
        -11    1    1    2    0    0 -0.56377972289E+02  0.79447274498E+02 -0.28290167755E+02  0.10144298288E+03  0.00000000000E+00 0.  1.
         11    1    1    2    0    0  0.18657038724E+02  0.74099945858E+02 -0.59343623116E+02  0.96749949223E+02  0.00000000000E+00 0. -1.
</event>
<event>
 7    1  0.2693725E-009  0.1620225E+03  0.7561462E-02  0.1186432E+00
         -2   -1    0    0    0  501 -0.00000000000E+00  0.00000000000E+00  0.80820728794E+02  0.80820728794E+02  0.00000000000E+00 0. -1.
          2   -1    0    0  501    0  0.00000000000E+00 -0.00000000000E+00 -0.38541792160E+03  0.38541792160E+03  0.00000000000E+00 0.  1.
         25    2    1    2    0    0  0.57998855432E+02  0.12687601121E+03 -0.16845681936E+03  0.25196564314E+03  0.12509035087E+03 0.  0.
          5    1    3    3  502    0 -0.36426223573E+02  0.53173142348E+02 -0.38574453178E+02  0.75231068509E+02  0.41800000000E+01 0.  1.
         -5    1    3    3    0  502  0.94425079005E+02  0.73702868863E+02 -0.12988236618E+03  0.17673457463E+03  0.41800000000E+01 0.  1.
        -11    1    1    2    0    0 -0.21752961890E+02 -0.41727106039E+02 -0.10758354420E+03  0.11742470656E+03  0.00000000000E+00 0.  1.
         11    1    1    2    0    0 -0.36245893542E+02 -0.85148905173E+02 -0.28556829251E+02  0.96848300696E+02  0.00000000000E+00 0. -1.
</event>
<event>
 7    1  0.2693725E-009  0.1170846E+03  0.7561462E-02  0.1247986E+00
         -2   -1    0    0    0  501 -0.00000000000E+00  0.00000000000E+00  0.38637095024E+02  0.38637095024E+02  0.00000000000E+00 0.  1.
          2   -1    0    0  501    0  0.00000000000E+00 -0.00000000000E+00 -0.74014971527E+03  0.74014971527E+03  0.00000000000E+00 0. -1.
         25    2    1    2    0    0  0.10865781943E+03  0.11482972190E+02 -0.21356778070E+03  0.27054938114E+03  0.12508952917E+03 0.  0.
          5    1    3    3  502    0  0.16848426731E+02 -0.80139484035E+01  0.14429691803E+02  0.23953731606E+02  0.41800000000E+01 0.  1.
         -5    1    3    3    0  502  0.91809392698E+02  0.19496920594E+02 -0.22799747250E+03  0.24659564953E+03  0.41800000000E+01 0.  1.
        -11    1    1    2    0    0 -0.20615295881E+02  0.18894108548E+02 -0.30382589517E+02  0.41292608393E+02  0.00000000000E+00 0.  1.
         11    1    1    2    0    0 -0.88042523548E+02 -0.30377080738E+02 -0.45756225003E+03  0.46694482077E+03  0.00000000000E+00 0. -1.
</event>
<event>
 7    1  0.2693725E-009  0.1015084E+03  0.7561462E-02  0.1277156E+00
          2   -1    0    0  501    0  0.00000000000E+00  0.00000000000E+00  0.47936445443E+02  0.47936445443E+02  0.00000000000E+00 0. -1.
         -2   -1    0    0    0  501 -0.00000000000E+00 -0.00000000000E+00 -0.24901983185E+03  0.24901983185E+03  0.00000000000E+00 0.  1.
         25    2    1    2    0    0 -0.29723008476E+02 -0.24726851200E+02 -0.87943859943E+02  0.15772437670E+03  0.12509189463E+03 0.  0.
          5    1    3    3  502    0 -0.26950394532E+02 -0.75144233973E+02 -0.48373609652E+02  0.93436920837E+02  0.41800000000E+01 0. -1.
         -5    1    3    3    0  502 -0.27726139439E+01  0.50417382773E+02 -0.39570250291E+02  0.64287455867E+02  0.41800000000E+01 0. -1.
        -11    1    1    2    0    0 -0.72169758971E+01 -0.15923582392E+02 -0.61155889041E+02  0.63605722869E+02  0.00000000000E+00 0.  1.
         11    1    1    2    0    0  0.36939984373E+02  0.40650433592E+02 -0.51983637424E+02  0.75626177720E+02  0.00000000000E+00 0. -1.
</event>
<event>
 7    1  0.2693725E-009  0.1735130E+03  0.7561462E-02  0.1174233E+00
         -2   -1    0    0    0  501 -0.00000000000E+00  0.00000000000E+00  0.22665253242E+02  0.22665253242E+02  0.00000000000E+00 0.  1.
          2   -1    0    0  501    0  0.00000000000E+00 -0.00000000000E+00 -0.14748855635E+04  0.14748855635E+04  0.00000000000E+00 0. -1.
         25    2    1    2    0    0  0.75288676088E+02  0.12654366827E+03 -0.92474517661E+03  0.94471328409E+03  0.12509141759E+03 0.  0.
          5    1    3    3  502    0 -0.30368541250E+02  0.61430200309E+02 -0.35790083158E+03  0.36442611796E+03  0.41800000000E+01 0.  1.
         -5    1    3    3    0  502  0.10565721734E+03  0.65113467960E+02 -0.56684434503E+03  0.58028716613E+03  0.41800000000E+01 0.  1.
        -11    1    1    2    0    0 -0.33467799106E+02 -0.98003461795E+02 -0.24704125362E+03  0.26786965690E+03  0.00000000000E+00 0.  1.
         11    1    1    2    0    0 -0.41820876981E+02 -0.28540206474E+02 -0.28043388005E+03  0.28496787576E+03  0.00000000000E+00 0. -1.
</event>
<event>
 7    1  0.2693725E-009  0.2118506E+03  0.7561462E-02  0.1140109E+00
          2   -1    0    0  501    0  0.00000000000E+00  0.00000000000E+00  0.79458211314E+03  0.79458211314E+03  0.00000000000E+00 0. -1.
         -2   -1    0    0    0  501 -0.00000000000E+00 -0.00000000000E+00 -0.64158551199E+02  0.64158551199E+02  0.00000000000E+00 0.  1.
         25    2    1    2    0    0 -0.18655532086E+03 -0.32270308886E+02  0.26888320124E+03  0.35183944520E+03  0.12509419936E+03 0.  0.
          5    1    3    3  502    0 -0.13721575656E+03 -0.73056322943E+02  0.14642599220E+03  0.21359642732E+03  0.41800000000E+01 0. -1.
         -5    1    3    3    0  502 -0.49339564295E+02  0.40786014057E+02  0.12245720904E+03  0.13824301788E+03  0.41800000000E+01 0. -1.
        -11    1    1    2    0    0  0.92000749790E+02  0.54469591985E+02  0.29914816490E+03  0.31768018348E+03  0.00000000000E+00 0. -1.
         11    1    1    2    0    0  0.94554571066E+02 -0.22199283099E+02  0.16239219581E+03  0.18922103567E+03  0.00000000000E+00 0.  1.
</event>
<event>
 7    1  0.2693725E-009  0.7974067E+02  0.7561462E-02  0.1329789E+00
          3   -1    0    0  501    0  0.00000000000E+00  0.00000000000E+00  0.65277462686E+03  0.65277462686E+03  0.00000000000E+00 0. -1.
         -3   -1    0    0    0  501 -0.00000000000E+00 -0.00000000000E+00 -0.23587083496E+02  0.23587083496E+02  0.00000000000E+00 0.  1.
         25    2    1    2    0    0  0.13334932471E+02  0.28401191396E+02  0.47940246625E+03  0.49644656183E+03  0.12509203015E+03 0.  0.
          5    1    3    3  502    0  0.32413616736E+02  0.21912903616E+02  0.47336632960E+03  0.47499891820E+03  0.41800000000E+01 0.  1.
         -5    1    3    3    0  502 -0.19078684265E+02  0.64882877799E+01  0.60361366567E+01  0.21447643631E+02  0.41800000000E+01 0.  1.
        -11    1    1    2    0    0  0.31088419118E+02 -0.42759215975E+02  0.83872890651E+02  0.99143845700E+02  0.00000000000E+00 0. -1.
         11    1    1    2    0    0 -0.44423351589E+02  0.14358024579E+02  0.65912186460E+02  0.80771302826E+02  0.00000000000E+00 0.  1.
</event>
<event>
 7    1  0.2693725E-009  0.3655654E+03  0.7561462E-02  0.1056402E+00
          2   -1    0    0  501    0  0.00000000000E+00  0.00000000000E+00  0.86248123103E+03  0.86248123103E+03  0.00000000000E+00 0. -1.
         -2   -1    0    0    0  501 -0.00000000000E+00 -0.00000000000E+00 -0.28134032661E+03  0.28134032661E+03  0.00000000000E+00 0.  1.
         25    2    1    2    0    0  0.29477711574E+03 -0.18897708251E+03  0.34335838545E+03  0.50611095456E+03  0.12508969497E+03 0.  0.
          5    1    3    3  502    0  0.27395285123E+03 -0.11966881050E+03  0.26737514175E+03  0.40109565907E+03  0.41800000000E+01 0.  1.
         -5    1    3    3    0  502  0.20824264505E+02 -0.69308272016E+02  0.75983243703E+02  0.10501529548E+03  0.41800000000E+01 0.  1.
        -11    1    1    2    0    0 -0.28596465089E+03  0.15645219213E+03  0.37473792562E+03  0.49667049729E+03  0.00000000000E+00 0. -1.
         11    1    1    2    0    0 -0.88124648507E+01  0.32524890381E+02 -0.13695540666E+03  0.14104010580E+03  0.00000000000E+00 0.  1.
</event>
<event>
 7    1  0.2693725E-009  0.9346059E+02  0.7561462E-02  0.1294681E+00
         -1   -1    0    0    0  501 -0.00000000000E+00  0.00000000000E+00  0.31629839832E+02  0.31629839832E+02  0.00000000000E+00 0.  1.
          1   -1    0    0  501    0  0.00000000000E+00 -0.00000000000E+00 -0.39721663515E+03  0.39721663515E+03  0.00000000000E+00 0. -1.
         25    2    1    2    0    0  0.15539990138E+02  0.26291566180E+02 -0.20618084956E+03  0.24308214127E+03  0.12508256047E+03 0.  0.
          5    1    3    3  502    0  0.66963076952E+00 -0.48427207643E+02 -0.11038118421E+03  0.12061144669E+03  0.41800000000E+01 0. -1.
         -5    1    3    3    0  502  0.14870359369E+02  0.74718773823E+02 -0.95799665356E+02  0.12247069458E+03  0.41800000000E+01 0. -1.
        -11    1    1    2    0    0 -0.34972754252E+02 -0.24060860689E+02 -0.16065052080E+03  0.16616440169E+03  0.00000000000E+00 0. -1.
         11    1    1    2    0    0  0.19432764114E+02 -0.22307054907E+01  0.12445750412E+01  0.19599932019E+02  0.00000000000E+00 0.  1.
</event>
<event>
 7    1  0.2693725E-009  0.7122462E+02  0.7561462E-02  0.1355977E+00
         -1   -1    0    0    0  501 -0.00000000000E+00  0.00000000000E+00  0.26624808175E+03  0.26624808175E+03  0.00000000000E+00 0.  1.
          1   -1    0    0  501    0  0.00000000000E+00 -0.00000000000E+00 -0.46201269309E+02  0.46201269309E+02  0.00000000000E+00 0. -1.
         25    2    1    2    0    0 -0.94242648172E+01 -0.19491696719E+02  0.14033071862E+03  0.18923313847E+03  0.12509087536E+03 0.  0.
          5    1    3    3  502    0 -0.25523305083E+02 -0.20861989671E+01 -0.16379307415E+02  0.30684612428E+02  0.41800000000E+01 0.  1.
         -5    1    3    3    0  502  0.16099040265E+02 -0.17405497752E+02  0.15671002603E+03  0.15854852604E+03  0.41800000000E+01 0.  1.
        -11    1    1    2    0    0  0.16377292936E+02 -0.34394215571E+02  0.22181369182E+02  0.44081639346E+02  0.00000000000E+00 0.  1.
         11    1    1    2    0    0 -0.69530281184E+01  0.53885912290E+02  0.57534724639E+02  0.79134573244E+02  0.00000000000E+00 0. -1.
</event>
<event>
 7    1  0.2693725E-009  0.1426685E+03  0.7561462E-02  0.1209783E+00
         -1   -1    0    0    0  501 -0.00000000000E+00  0.00000000000E+00  0.65805593789E+02  0.65805593789E+02  0.00000000000E+00 0.  1.
          1   -1    0    0  501    0  0.00000000000E+00 -0.00000000000E+00 -0.39460595695E+03  0.39460595695E+03  0.00000000000E+00 0. -1.
         25    2    1    2    0    0  0.11364920223E+03 -0.24814178739E+02 -0.20829496661E+03  0.26938124365E+03  0.12509027413E+03 0.  0.
          5    1    3    3  502    0  0.59236730188E+02 -0.74032746308E+02 -0.94588861852E+02  0.13399389134E+03  0.41800000000E+01 0. -1.
         -5    1    3    3    0  502  0.54412472038E+02  0.49218567569E+02 -0.11370610475E+03  0.13538735231E+03  0.41800000000E+01 0. -1.
        -11    1    1    2    0    0 -0.76670076017E+02  0.10948542026E+02 -0.15689606071E+02  0.79021103938E+02  0.00000000000E+00 0.  1.
         11    1    1    2    0    0 -0.36979126209E+02  0.13865636713E+02 -0.10481579048E+03  0.11200920315E+03  0.00000000000E+00 0. -1.
</event>
<event>
 7    1  0.2693725E-009  0.9527128E+02  0.7561462E-02  0.1290566E+00
          2   -1    0    0  501    0  0.00000000000E+00  0.00000000000E+00  0.13317056791E+03  0.13317056791E+03  0.00000000000E+00 0. -1.
         -2   -1    0    0    0  501 -0.00000000000E+00 -0.00000000000E+00 -0.13610786483E+03  0.13610786483E+03  0.00000000000E+00 0.  1.
         25    2    1    2    0    0 -0.13897232296E+02  0.10854817459E+02  0.71161642925E+02  0.14499241348E+03  0.12509140824E+03 0.  0.
          5    1    3    3  502    0  0.32448689312E+02 -0.20038324441E+02 -0.15919552758E+02  0.41537410181E+02  0.41800000000E+01 0. -1.
         -5    1    3    3    0  502 -0.46345921608E+02  0.30893141900E+02  0.87081195684E+02  0.10345500330E+03  0.41800000000E+01 0. -1.
        -11    1    1    2    0    0  0.24678700533E+02  0.38539805181E+02 -0.51534982989E+02  0.68921762275E+02  0.00000000000E+00 0.  1.
         11    1    1    2    0    0 -0.10781468237E+02 -0.49394622640E+02 -0.22563956852E+02  0.55364256989E+02  0.00000000000E+00 0. -1.
</event>
<event>
 7    1  0.2693725E-009  0.1484477E+03  0.7561462E-02  0.1202394E+00
          1   -1    0    0  501    0  0.00000000000E+00  0.00000000000E+00  0.91420787255E+03  0.91420787255E+03  0.00000000000E+00 0. -1.
         -1   -1    0    0    0  501 -0.00000000000E+00 -0.00000000000E+00 -0.24683119613E+02  0.24683119613E+02  0.00000000000E+00 0.  1.
         25    2    1    2    0    0 -0.86068413292E+02 -0.51480472817E+02  0.45845427646E+03  0.48568134778E+03  0.12509211457E+03 0.  0.
          5    1    3    3  502    0  0.18527514650E+02  0.22055140926E+02  0.12943588824E+03  0.13266808058E+03  0.41800000000E+01 0.  1.
         -5    1    3    3    0  502 -0.10459592794E+03 -0.73535613744E+02  0.32901838823E+03  0.35301326720E+03  0.41800000000E+01 0.  1.
        -11    1    1    2    0    0 -0.11832753467E+02 -0.16766397677E+02  0.58821607486E+02  0.62298536523E+02  0.00000000000E+00 0.  1.
         11    1    1    2    0    0  0.97901166759E+02  0.68246870494E+02  0.37224886899E+03  0.39091110786E+03  0.00000000000E+00 0. -1.
</event>
<event>
 7    1  0.2693725E-009  0.1067188E+03  0.7561462E-02  0.1266770E+00
          1   -1    0    0  501    0  0.00000000000E+00  0.00000000000E+00  0.10265969411E+03  0.10265969411E+03  0.00000000000E+00 0. -1.
         -1   -1    0    0    0  501 -0.00000000000E+00 -0.00000000000E+00 -0.16246756661E+03  0.16246756661E+03  0.00000000000E+00 0.  1.
         25    2    1    2    0    0 -0.42601138048E+01  0.68850961153E+02 -0.30729343305E+02  0.14612059825E+03  0.12509329827E+03 0.  0.
          5    1    3    3  502    0  0.38557931861E+02 -0.20283071146E+02 -0.67637361224E+01  0.44286991441E+02  0.41800000000E+01 0. -1.
         -5    1    3    3    0  502 -0.42818045666E+02  0.89134032300E+02 -0.23965607182E+02  0.10183360681E+03  0.41800000000E+01 0. -1.
        -11    1    1    2    0    0  0.99083851688E+01 -0.34902459952E+02  0.32340289215E+02  0.48603005194E+02  0.00000000000E+00 0. -1.
         11    1    1    2    0    0 -0.56482713640E+01 -0.33948501201E+02 -0.61418818409E+02  0.70403657276E+02  0.00000000000E+00 0.  1.
</event>
<event>
 7    1  0.2693725E-009  0.8921080E+02  0.7561462E-02  0.1304774E+00
          2   -1    0    0  501    0  0.00000000000E+00  0.00000000000E+00  0.82225349341E+02  0.82225349341E+02  0.00000000000E+00 0.  1.
         -2   -1    0    0    0  501 -0.00000000000E+00 -0.00000000000E+00 -0.18546883275E+03  0.18546883275E+03  0.00000000000E+00 0. -1.
         25    2    1    2    0    0  0.22542771557E+02  0.53939039194E+02 -0.72614029588E+02  0.15600454615E+03  0.12508806749E+03 0.  0.
          5    1    3    3  502    0  0.50330522352E+01 -0.23919143678E+02 -0.71935230211E+02  0.76089465727E+02  0.41800000000E+01 0.  1.
         -5    1    3    3    0  502  0.17509719322E+02  0.77858182872E+02 -0.67879937697E+00  0.79915080425E+02  0.41800000000E+01 0.  1.
        -11    1    1    2    0    0  0.10398880358E+02 -0.33187720797E+02  0.25679458718E+02  0.43231887820E+02  0.00000000000E+00 0.  1.
         11    1    1    2    0    0 -0.32941651915E+02 -0.20751318397E+02 -0.56308912541E+02  0.68457748119E+02  0.00000000000E+00 0. -1.
</event>
<event>
 7    1  0.2693725E-009  0.1053248E+03  0.7561462E-02  0.1269481E+00
         -1   -1    0    0    0  501 -0.00000000000E+00  0.00000000000E+00  0.48899587924E+02  0.48899587924E+02  0.00000000000E+00 0.  1.
          1   -1    0    0  501    0  0.00000000000E+00 -0.00000000000E+00 -0.47083887238E+03  0.47083887238E+03  0.00000000000E+00 0. -1.
         25    2    1    2    0    0  0.54879201210E+02  0.82705743955E+02 -0.16547241422E+03  0.22995858504E+03  0.12509142320E+03 0.  0.
          5    1    3    3  502    0  0.32431378821E+02  0.20617110262E+02  0.12065644585E+02  0.40495823822E+02  0.41800000000E+01 0. -1.
         -5    1    3    3    0  502  0.22447822389E+02  0.62088633693E+02 -0.17753805881E+03  0.18946276122E+03  0.41800000000E+01 0. -1.
        -11    1    1    2    0    0 -0.42626050698E+02 -0.31014403985E+02 -0.38095311238E+02  0.65039420285E+02  0.00000000000E+00 0.  1.
         11    1    1    2    0    0 -0.12253150512E+02 -0.51691339970E+02 -0.21837155899E+03  0.22474045497E+03  0.00000000000E+00 0. -1.
</event>
<event>
 7    1  0.2693725E-009  0.9488441E+02  0.7561462E-02  0.1291437E+00
          2   -1    0    0  501    0  0.00000000000E+00  0.00000000000E+00  0.95119864969E+03  0.95119864969E+03  0.00000000000E+00 0.  1.
         -2   -1    0    0    0  501 -0.00000000000E+00 -0.00000000000E+00 -0.13242657161E+02  0.13242657161E+02  0.00000000000E+00 0. -1.
         25    2    1    2    0    0  0.22575868590E+02 -0.18004366442E+02  0.54546782954E+03  0.56037179932E+03  0.12509026084E+03 0.  0.
          5    1    3    3  502    0  0.10048203190E+02 -0.57267333512E+02  0.47550736184E+03  0.47906704901E+03  0.41800000000E+01 0.  1.
         -5    1    3    3    0  502  0.12527665399E+02  0.39262967069E+02  0.69960467695E+02  0.81304750314E+02  0.41800000000E+01 0.  1.
        -11    1    1    2    0    0  0.10765278469E+02  0.45549441939E+02  0.13284027714E+03  0.14084453170E+03  0.00000000000E+00 0. -1.
         11    1    1    2    0    0 -0.33341147059E+02 -0.27545075497E+02  0.25964788585E+03  0.26322497583E+03  0.00000000000E+00 0.  1.
</event>
<event>
 7    1  0.2693725E-009  0.8515985E+02  0.7561462E-02  0.1315015E+00
          2   -1    0    0  501    0  0.00000000000E+00  0.00000000000E+00  0.14036180802E+03  0.14036180802E+03  0.00000000000E+00 0.  1.
         -2   -1    0    0    0  501 -0.00000000000E+00 -0.00000000000E+00 -0.23179594024E+03  0.23179594024E+03  0.00000000000E+00 0. -1.
         25    2    1    2    0    0  0.11657014283E+02 -0.18804545270E+02  0.98638336623E+02  0.16083082729E+03  0.12509011411E+03 0.  0.
          5    1    3    3  502    0 -0.49502027095E+01 -0.58463472465E+02  0.66396799560E+01  0.59194931113E+02  0.41800000000E+01 0.  1.
         -5    1    3    3    0  502  0.16607216992E+02  0.39658927195E+02  0.91998656667E+02  0.10163589617E+03  0.41800000000E+01 0.  1.
        -11    1    1    2    0    0  0.84186501693E+01  0.38955830303E+02 -0.17430683137E+03  0.17880520644E+03  0.00000000000E+00 0. -1.
         11    1    1    2    0    0 -0.20075664452E+02 -0.20151285033E+02 -0.15765637466E+02  0.32521714536E+02  0.00000000000E+00 0.  1.
</event>
<event>
 7    1  0.5719391E-009  0.2062255E+03  0.7561462E-02  0.1144590E+00
         -1   -1    0    0    0  501 -0.00000000000E+00  0.00000000000E+00  0.12650954333E+03  0.12650954333E+03  0.00000000000E+00 0.  1.
          1   -1    0    0  501    0  0.00000000000E+00 -0.00000000000E+00 -0.35954823721E+03  0.35954823721E+03  0.00000000000E+00 0. -1.
         25    2    1    2    0    0 -0.15388624548E+03 -0.99305240751E+02 -0.11669217775E+03  0.25061392122E+03  0.12509102993E+03 0.  0.
          5    1    3    3  502    0 -0.16493237283E+03 -0.52213071769E+02 -0.86801409568E+02  0.19359971481E+03  0.41800000000E+01 0.  1.
         -5    1    3    3    0  502  0.11046127354E+02 -0.47092168982E+02 -0.29890768187E+02  0.57014206403E+02  0.41800000000E+01 0.  1.
        -11    1    1    2    0    0  0.10035336532E+03  0.33017242635E+02 -0.10592684887E+03  0.14960425647E+03  0.00000000000E+00 0.  1.
         11    1    1    2    0    0  0.53532880165E+02  0.66287998116E+02 -0.10419667243E+02  0.85839602856E+02  0.00000000000E+00 0. -1.
</event>
<event>
 7    1  0.3486901E-009  0.2105505E+03  0.7561462E-02  0.1141131E+00
          2   -1    0    0  501    0  0.00000000000E+00  0.00000000000E+00  0.15020675336E+04  0.15020675336E+04  0.00000000000E+00 0. -1.
         -2   -1    0    0    0  501 -0.00000000000E+00 -0.00000000000E+00 -0.30665227396E+02  0.30665227396E+02  0.00000000000E+00 0.  1.
         25    2    1    2    0    0 -0.14996346979E+03  0.10722495946E+03  0.82141669117E+03  0.85109318036E+03  0.12509191388E+03 0.  0.
          5    1    3    3  502    0 -0.93993301402E+01  0.69628765717E+02  0.17788397687E+03  0.19130262426E+03  0.41800000000E+01 0.  1.
         -5    1    3    3    0  502 -0.14056413965E+03  0.37596193738E+02  0.64353271429E+03  0.65979055609E+03  0.41800000000E+01 0.  1.
        -11    1    1    2    0    0  0.12992091093E+03 -0.41423053679E+02  0.44444373651E+03  0.46489304942E+03  0.00000000000E+00 0.  1.
         11    1    1    2    0    0  0.20042558861E+02 -0.65801905777E+02  0.20554187854E+03  0.21674653123E+03  0.00000000000E+00 0. -1.
</event>
<event>
 7    1  0.2693725E-009  0.1107073E+03  0.7561462E-02  0.1259266E+00
          1   -1    0    0  501    0  0.00000000000E+00  0.00000000000E+00  0.17362722434E+03  0.17362722434E+03  0.00000000000E+00 0.  1.
         -1   -1    0    0    0  501 -0.00000000000E+00 -0.00000000000E+00 -0.76942091718E+02  0.76942091718E+02  0.00000000000E+00 0. -1.
         25    2    1    2    0    0 -0.16027014052E+02 -0.44398265477E+02  0.31358925813E+02  0.13732892678E+03  0.12509108979E+03 0.  0.
          5    1    3    3  502    0 -0.57920843445E+02 -0.64676784088E+02  0.18637687394E+02  0.88897391957E+02  0.41800000000E+01 0.  1.
         -5    1    3    3    0  502  0.41893829393E+02  0.20278518611E+02  0.12721238419E+02  0.48431534822E+02  0.41800000000E+01 0.  1.
        -11    1    1    2    0    0  0.26177257630E+02  0.62080309448E+02  0.32999234583E+02  0.75021084512E+02  0.00000000000E+00 0. -1.
         11    1    1    2    0    0 -0.10150243578E+02 -0.17682043972E+02  0.32326972230E+02  0.38219304773E+02  0.00000000000E+00 0.  1.
</event>
<event>
 7    1  0.2693725E-009  0.1616000E+03  0.7561462E-02  0.1186902E+00
          1   -1    0    0  501    0  0.00000000000E+00  0.00000000000E+00  0.18626275813E+03  0.18626275813E+03  0.00000000000E+00 0. -1.
         -1   -1    0    0    0  501 -0.00000000000E+00 -0.00000000000E+00 -0.19545957005E+03  0.19545957005E+03  0.00000000000E+00 0.  1.
         25    2    1    2    0    0  0.13252491179E+03  0.83174483263E+02  0.59796962112E+01  0.20040984402E+03  0.12508997522E+03 0.  0.
          5    1    3    3  502    0  0.96247746756E+02  0.27574668181E+02 -0.51346917887E+02  0.11259648954E+03  0.41800000000E+01 0.  1.
         -5    1    3    3    0  502  0.36277165031E+02  0.55599815082E+02  0.57326614098E+02  0.87813354473E+02  0.41800000000E+01 0.  1.
        -11    1    1    2    0    0 -0.38375763651E+02 -0.23146673295E+02  0.36952473709E+02  0.58085738642E+02  0.00000000000E+00 0. -1.
         11    1    1    2    0    0 -0.94149148136E+02 -0.60027809968E+02 -0.52128981839E+02  0.12322674552E+03  0.00000000000E+00 0.  1.
</event>
<event>
 7    1  0.3402659E-009  0.1589456E+03  0.7561462E-02  0.1189892E+00
          2   -1    0    0  501    0  0.00000000000E+00  0.00000000000E+00  0.63168150362E+03  0.63168150362E+03  0.00000000000E+00 0. -1.
         -2   -1    0    0    0  501 -0.00000000000E+00 -0.00000000000E+00 -0.46044976499E+02  0.46044976499E+02  0.00000000000E+00 0.  1.
         25    2    1    2    0    0  0.46486290602E+02  0.11049031981E+03  0.20440749954E+03  0.26795358691E+03  0.12509041884E+03 0.  0.
          5    1    3    3  502    0  0.79872382067E+02  0.11404771689E+03  0.16040360391E+03  0.21244591710E+03  0.41800000000E+01 0. -1.
         -5    1    3    3    0  502 -0.33386091465E+02 -0.35573970849E+01  0.44003895627E+02  0.55507669809E+02  0.41800000000E+01 0. -1.
        -11    1    1    2    0    0 -0.39360437601E+02 -0.57520277776E+01  0.16042323977E+03  0.16528141374E+03  0.00000000000E+00 0. -1.
         11    1    1    2    0    0 -0.71258530015E+01 -0.10473829203E+03  0.22080578782E+03  0.24449147947E+03  0.00000000000E+00 0.  1.
</event>
<event>
 7    1  0.2693725E-009  0.8205864E+02  0.7561462E-02  0.1323309E+00
          2   -1    0    0  501    0  0.00000000000E+00  0.00000000000E+00  0.73930637441E+02  0.73930637441E+02  0.00000000000E+00 0. -1.
         -2   -1    0    0    0  501 -0.00000000000E+00 -0.00000000000E+00 -0.16701521253E+03  0.16701521253E+03  0.00000000000E+00 0.  1.
         25    2    1    2    0    0  0.75785720336E+01 -0.14723788609E+02 -0.31225971861E+02  0.12998791220E+03  0.12509025260E+03 0.  0.
          5    1    3    3  502    0  0.33636065411E+02 -0.46182723765E+02  0.23203132285E+02  0.61806849285E+02  0.41800000000E+01 0. -1.
         -5    1    3    3    0  502 -0.26057493378E+02  0.31458935156E+02 -0.54429104146E+02  0.68181062917E+02  0.41800000000E+01 0. -1.
        -11    1    1    2    0    0  0.79933124617E+01  0.37408826208E+02 -0.72082992960E+02  0.81604357705E+02  0.00000000000E+00 0.  1.
         11    1    1    2    0    0 -0.15571884495E+02 -0.22685037599E+02  0.10224389727E+02  0.29353580069E+02  0.00000000000E+00 0. -1.
</event>
<event>
 7    1  0.2693725E-009  0.2340599E+03  0.7561462E-02  0.1123814E+00
          2   -1    0    0  501    0  0.00000000000E+00  0.00000000000E+00  0.71241041135E+03  0.71241041135E+03  0.00000000000E+00 0. -1.
         -2   -1    0    0    0  501 -0.00000000000E+00 -0.00000000000E+00 -0.86731892126E+02  0.86731892126E+02  0.00000000000E+00 0.  1.
         25    2    1    2    0    0  0.95261506436E+02  0.18906447574E+03  0.43761441076E+03  0.50196980376E+03  0.12508869168E+03 0.  0.
          5    1    3    3  502    0  0.11407099613E+03  0.11199164172E+03  0.23415115892E+03  0.28354639408E+03  0.41800000000E+01 0.  1.
         -5    1    3    3    0  502 -0.18809489692E+02  0.77072834018E+02  0.20346325184E+03  0.21842340968E+03  0.41800000000E+01 0.  1.
        -11    1    1    2    0    0 -0.48010869096E+02 -0.17969480399E+02  0.29398422596E+02  0.59094949262E+02  0.00000000000E+00 0.  1.
         11    1    1    2    0    0 -0.47250637341E+02 -0.17109499534E+03  0.15866568587E+03  0.23807755046E+03  0.00000000000E+00 0. -1.
</event>
<event>
 7    1  0.2693725E-009  0.8374478E+02  0.7561462E-02  0.1318748E+00
          1   -1    0    0  501    0  0.00000000000E+00  0.00000000000E+00  0.38530790837E+02  0.38530790837E+02  0.00000000000E+00 0. -1.
         -1   -1    0    0    0  501 -0.00000000000E+00 -0.00000000000E+00 -0.12334050152E+04  0.12334050152E+04  0.00000000000E+00 0.  1.
         25    2    1    2    0    0  0.61332862147E+02 -0.17327065793E+02 -0.11392537809E+04  0.11478711851E+04  0.12508850143E+03 0.  0.
          5    1    3    3  502    0  0.56322407660E+02  0.22854868285E+02 -0.10208192189E+04  0.10226357654E+04  0.41800000000E+01 0. -1.
         -5    1    3    3    0  502  0.50104544871E+01 -0.40181934078E+02 -0.11843456202E+03  0.12523541976E+03  0.41800000000E+01 0. -1.
        -11    1    1    2    0    0 -0.39586523741E+02  0.19259181123E+02  0.17786300718E+02  0.47480115971E+02  0.00000000000E+00 0. -1.
         11    1    1    2    0    0 -0.21746338407E+02 -0.19321153303E+01 -0.73406744211E+02  0.76584504956E+02  0.00000000000E+00 0.  1.
</event>
<event>
 7    1  0.2693725E-009  0.1342129E+03  0.7561462E-02  0.1221335E+00
         -2   -1    0    0    0  501 -0.00000000000E+00  0.00000000000E+00  0.34287807107E+03  0.34287807107E+03  0.00000000000E+00 0.  1.
          2   -1    0    0  501    0  0.00000000000E+00 -0.00000000000E+00 -0.57745388444E+02  0.57745388444E+02  0.00000000000E+00 0. -1.
         25    2    1    2    0    0  0.82226921414E+02  0.35244705011E+02  0.15419362286E+03  0.21777447870E+03  0.12508634780E+03 0.  0.
          5    1    3    3  502    0  0.86513693260E+02 -0.24320176183E+02  0.11586354870E+03  0.14668989198E+03  0.41800000000E+01 0. -1.
         -5    1    3    3    0  502 -0.42867718461E+01  0.59564881194E+02  0.38330074157E+02  0.71084586722E+02  0.41800000000E+01 0. -1.
        -11    1    1    2    0    0 -0.68582083730E+02  0.11820541842E+02  0.10862067888E+03  0.12900263292E+03  0.00000000000E+00 0.  1.
         11    1    1    2    0    0 -0.13644837684E+02 -0.47065246853E+02  0.22318380887E+02  0.53846347900E+02  0.00000000000E+00 0. -1.
</event>
<event>
 7    1  0.2693725E-009  0.7958550E+02  0.7561462E-02  0.1330232E+00
         -1   -1    0    0    0  501 -0.00000000000E+00  0.00000000000E+00  0.35560144761E+02  0.35560144761E+02  0.00000000000E+00 0.  1.
          1   -1    0    0  501    0  0.00000000000E+00 -0.00000000000E+00 -0.46718524203E+03  0.46718524203E+03  0.00000000000E+00 0. -1.
         25    2    1    2    0    0  0.50493093533E+02  0.13702251954E+02 -0.32415138121E+03  0.35136794989E+03  0.12509202241E+03 0.  0.
          5    1    3    3  502    0 -0.11335510299E+02 -0.24145434754E+02 -0.23426616424E+03  0.23581688642E+03  0.41800000000E+01 0. -1.
         -5    1    3    3    0  502  0.61828603832E+02  0.37847686708E+02 -0.89885216968E+02  0.11555106348E+03  0.41800000000E+01 0. -1.
        -11    1    1    2    0    0 -0.11355765014E+02 -0.16822720930E+02 -0.11016941838E+03  0.11202347114E+03  0.00000000000E+00 0. -1.
         11    1    1    2    0    0 -0.39137328519E+02  0.31204689751E+01  0.26957023177E+01  0.39353965762E+02  0.00000000000E+00 0.  1.
</event>
<event>
 7    1  0.2693725E-009  0.1060365E+03  0.7561462E-02  0.1268091E+00
         -1   -1    0    0    0  501 -0.00000000000E+00  0.00000000000E+00  0.58319256852E+02  0.58319256852E+02  0.00000000000E+00 0.  1.
          1   -1    0    0  501    0  0.00000000000E+00 -0.00000000000E+00 -0.31575342007E+03  0.31575342007E+03  0.00000000000E+00 0. -1.
         25    2    1    2    0    0  0.69558649372E+02  0.19117390218E+02 -0.88023207335E+02  0.16911798830E+03  0.12509567789E+03 0.  0.
          5    1    3    3  502    0  0.18267081093E+02  0.45048788918E+02 -0.99079244415E+02  0.11044115496E+03  0.41800000000E+01 0.  1.
         -5    1    3    3    0  502  0.51291568279E+02 -0.25931398700E+02  0.11056037080E+02  0.58676833341E+02  0.41800000000E+01 0.  1.
        -11    1    1    2    0    0 -0.56613426075E+01 -0.38476509758E+02 -0.10586464595E+03  0.11278216112E+03  0.00000000000E+00 0. -1.
         11    1    1    2    0    0 -0.63897306764E+02  0.19359119540E+02 -0.63546309927E+02  0.92172527504E+02  0.00000000000E+00 0.  1.
</event>
<event>
 7    1  0.2693725E-009  0.3531022E+03  0.7561462E-02  0.1061349E+00
          2   -1    0    0  501    0  0.00000000000E+00  0.00000000000E+00  0.37612553476E+03  0.37612553476E+03  0.00000000000E+00 0. -1.
         -2   -1    0    0    0  501 -0.00000000000E+00 -0.00000000000E+00 -0.37377648459E+03  0.37377648459E+03  0.00000000000E+00 0.  1.
         25    2    1    2    0    0  0.31996928780E+03  0.13030972584E+03  0.97982192205E+02  0.38027313269E+03  0.12508467404E+03 0.  0.
          5    1    3    3  502    0  0.84885314217E+02 -0.12078058285E+02 -0.67836307168E+01  0.86109732943E+02  0.41800000000E+01 0.  1.
         -5    1    3    3    0  502  0.23508397358E+03  0.14238778412E+03  0.10476582292E+03  0.29416339975E+03  0.41800000000E+01 0.  1.
        -11    1    1    2    0    0 -0.17895060886E+03 -0.73285497445E+02 -0.68376491560E+01  0.19349635137E+03  0.00000000000E+00 0. -1.
         11    1    1    2    0    0 -0.14101867893E+03 -0.57024228390E+02 -0.88795492873E+02  0.17613253529E+03  0.00000000000E+00 0.  1.
</event>
<event>
 7    1  0.2693725E-009  0.9072277E+02  0.7561462E-02  0.1301111E+00
         -1   -1    0    0    0  501 -0.00000000000E+00  0.00000000000E+00  0.18108151313E+02  0.18108151313E+02  0.00000000000E+00 0.  1.
          1   -1    0    0  501    0  0.00000000000E+00 -0.00000000000E+00 -0.98931709875E+03  0.98931709875E+03  0.00000000000E+00 0. -1.
         25    2    1    2    0    0 -0.46800266333E+02 -0.41716149214E+02 -0.70529244781E+03  0.71903789405E+03  0.12509018392E+03 0.  0.
          5    1    3    3  502    0 -0.57716777484E+02  0.19703022595E+01 -0.13420659355E+03  0.14616425913E+03  0.41800000000E+01 0.  1.
         -5    1    3    3    0  502  0.10916511151E+02 -0.43686451474E+02 -0.57108585426E+03  0.57287363492E+03  0.41800000000E+01 0.  1.
        -11    1    1    2    0    0  0.31307996536E+02 -0.25599719022E+01 -0.18273713392E+02  0.36341060859E+02  0.00000000000E+00 0.  1.
         11    1    1    2    0    0  0.15492269797E+02  0.44276121117E+02 -0.24764278624E+03  0.25204629515E+03  0.00000000000E+00 0. -1.
</event>
<event>
 7    1  0.2693725E-009  0.8649703E+02  0.7561462E-02  0.1311563E+00
         -2   -1    0    0    0  501 -0.00000000000E+00  0.00000000000E+00  0.50665100863E+02  0.50665100863E+02  0.00000000000E+00 0.  1.
          2   -1    0    0  501    0  0.00000000000E+00 -0.00000000000E+00 -0.33039910740E+03  0.33039910740E+03  0.00000000000E+00 0. -1.
         25    2    1    2    0    0 -0.31241852331E+02  0.16376973483E+02 -0.24393293736E+03  0.27639913067E+03  0.12509573499E+03 0.  0.
          5    1    3    3  502    0  0.41854021176E+02 -0.92655716203E+01 -0.14147466316E+03  0.14788564036E+03  0.41800000000E+01 0. -1.
         -5    1    3    3    0  502 -0.73095873507E+02  0.25642545104E+02 -0.10245827419E+03  0.12851349032E+03  0.41800000000E+01 0. -1.
        -11    1    1    2    0    0  0.37857315071E+02 -0.36866962883E+01  0.22796894828E+02  0.44344858188E+02  0.00000000000E+00 0.  1.
         11    1    1    2    0    0 -0.66154627397E+01 -0.12690277195E+02 -0.58597964007E+02  0.60320219398E+02  0.00000000000E+00 0. -1.
</event>
<event>
 7    1  0.2693725E-009  0.9564751E+02  0.7561462E-02  0.1289724E+00
         -2   -1    0    0    0  501 -0.00000000000E+00  0.00000000000E+00  0.27959402988E+02  0.27959402988E+02  0.00000000000E+00 0.  1.
          2   -1    0    0  501    0  0.00000000000E+00 -0.00000000000E+00 -0.10387563652E+04  0.10387563652E+04  0.00000000000E+00 0. -1.
         25    2    1    2    0    0 -0.45385831966E+02  0.31649464919E+02 -0.90926246192E+03  0.91949282042E+03  0.12508900739E+03 0.  0.
          5    1    3    3  502    0 -0.30331091413E+02 -0.29827017777E+02 -0.11475584256E+03  0.12245816387E+03  0.41800000000E+01 0.  1.
         -5    1    3    3    0  502 -0.15054740553E+02  0.61476482697E+02 -0.79450661936E+03  0.79703465655E+03  0.41800000000E+01 0.  1.
        -11    1    1    2    0    0  0.44304868909E+02  0.83674226416E+01 -0.96960290862E+02  0.10693097388E+03  0.00000000000E+00 0. -1.
         11    1    1    2    0    0  0.10809630572E+01 -0.40016887561E+02 -0.45742094725E+01  0.40291973934E+02  0.00000000000E+00 0.  1.
</event>
<event>
 7    1  0.2693725E-009  0.1005768E+03  0.7561462E-02  0.1279088E+00
         -1   -1    0    0    0  501 -0.00000000000E+00  0.00000000000E+00  0.30682597438E+03  0.30682597438E+03  0.00000000000E+00 0.  1.
          1   -1    0    0  501    0  0.00000000000E+00 -0.00000000000E+00 -0.60975610012E+02  0.60975610012E+02  0.00000000000E+00 0. -1.
         25    2    1    2    0    0 -0.75390174828E+01  0.81407665965E+02  0.15299761604E+03  0.21386871470E+03  0.12509001460E+03 0.  0.
          5    1    3    3  502    0  0.75859570491E+00  0.10118524676E+02  0.14046432107E+03  0.14089236283E+03  0.41800000000E+01 0.  1.
         -5    1    3    3    0  502 -0.82976131877E+01  0.71289141289E+02  0.12533294966E+02  0.72976351875E+02  0.41800000000E+01 0.  1.
        -11    1    1    2    0    0  0.33212522955E+01  0.18245334905E+02  0.13789133900E+01  0.18596353534E+02  0.00000000000E+00 0.  1.
         11    1    1    2    0    0  0.42177651873E+01 -0.99653000871E+02  0.91473834936E+02  0.13533651615E+03  0.00000000000E+00 0. -1.
</event>
<event>
 7    1  0.2693725E-009  0.1092179E+03  0.7561462E-02  0.1262025E+00
          3   -1    0    0  501    0  0.00000000000E+00  0.00000000000E+00  0.19413804902E+03  0.19413804902E+03  0.00000000000E+00 0. -1.
         -3   -1    0    0    0  501 -0.00000000000E+00 -0.00000000000E+00 -0.64225202957E+02  0.64225202957E+02  0.00000000000E+00 0.  1.
         25    2    1    2    0    0 -0.46463677501E+01  0.40360131736E+01  0.83505929820E+02  0.15052825990E+03  0.12509052154E+03 0.  0.
          5    1    3    3  502    0  0.21480272105E+01  0.63341067303E+02  0.55971924704E+02  0.84658334398E+02  0.41800000000E+01 0.  1.
         -5    1    3    3    0  502 -0.67943949606E+01 -0.59305054129E+02  0.27534005116E+02  0.65869925504E+02  0.41800000000E+01 0.  1.
        -11    1    1    2    0    0 -0.42925268662E+02 -0.16363525791E+02  0.10919872794E+02  0.47218505778E+02  0.00000000000E+00 0.  1.
         11    1    1    2    0    0  0.47571636412E+02  0.12327512617E+02  0.35487043446E+02  0.60616486296E+02  0.00000000000E+00 0. -1.
</event>
<event>
 7    1  0.2693725E-009  0.7979645E+02  0.7561462E-02  0.1329630E+00
          2   -1    0    0  501    0  0.00000000000E+00  0.00000000000E+00  0.18917594905E+03  0.18917594905E+03  0.00000000000E+00 0.  1.
         -2   -1    0    0    0  501 -0.00000000000E+00 -0.00000000000E+00 -0.78406115102E+02  0.78406115102E+02  0.00000000000E+00 0. -1.
         25    2    1    2    0    0 -0.23876790690E+02 -0.28322091615E+01  0.11483299081E+03  0.17149542360E+03  0.12508373994E+03 0.  0.
          5    1    3    3  502    0 -0.41124253219E+02 -0.54867101127E+02  0.83818984712E+02  0.10837295598E+03  0.41800000000E+01 0.  1.
         -5    1    3    3    0  502  0.17247462528E+02  0.52034891966E+02  0.31014006093E+02  0.63122467628E+02  0.41800000000E+01 0.  1.
        -11    1    1    2    0    0  0.23009780946E+02 -0.85182361601E+01  0.41997863638E+02  0.48639807942E+02  0.00000000000E+00 0.  1.
         11    1    1    2    0    0  0.86700974387E+00  0.11350445322E+02 -0.46061020497E+02  0.47446832604E+02  0.00000000000E+00 0. -1.
</event>
<event>
 7    1  0.2693725E-009  0.9589154E+02  0.7561462E-02  0.1289181E+00
         -1   -1    0    0    0  501 -0.00000000000E+00  0.00000000000E+00  0.14911798579E+03  0.14911798579E+03  0.00000000000E+00 0.  1.
          1   -1    0    0  501    0  0.00000000000E+00 -0.00000000000E+00 -0.97219074205E+02  0.97219074205E+02  0.00000000000E+00 0. -1.
         25    2    1    2    0    0  0.49099010090E+02 -0.20360892821E+02  0.31172417354E+02  0.13945086757E+03  0.12509814592E+03 0.  0.
          5    1    3    3  502    0  0.13957207260E+02 -0.71624592581E+02  0.10641900612E+02  0.73862090043E+02  0.41800000000E+01 0.  1.
         -5    1    3    3    0  502  0.35141802831E+02  0.51263699760E+02  0.20530516742E+02  0.65588777523E+02  0.41800000000E+01 0.  1.
        -11    1    1    2    0    0 -0.67647869393E+01  0.11200638642E+02  0.51897777059E+02  0.53521919921E+02  0.00000000000E+00 0.  1.
         11    1    1    2    0    0 -0.42334223151E+02  0.91602541796E+01 -0.31171282832E+02  0.53364272504E+02  0.00000000000E+00 0. -1.
</event>
<event>
 7    1  0.2693725E-009  0.2203138E+03  0.7561462E-02  0.1133649E+00
          2   -1    0    0  501    0  0.00000000000E+00  0.00000000000E+00  0.24488717151E+03  0.24488717151E+03  0.00000000000E+00 0. -1.
         -2   -1    0    0    0  501 -0.00000000000E+00 -0.00000000000E+00 -0.25904392925E+03  0.25904392925E+03  0.00000000000E+00 0.  1.
         25    2    1    2    0    0  0.20059163184E+03 -0.38139422000E+02  0.91475898650E+02  0.25633452000E+03  0.12509167772E+03 0.  0.
          5    1    3    3  502    0  0.99566464976E+02 -0.56811965497E+02  0.10131085892E+03  0.15304392476E+03  0.41800000000E+01 0.  1.
         -5    1    3    3    0  502  0.10102516687E+03  0.18672543497E+02 -0.98349602734E+01  0.10329059524E+03  0.41800000000E+01 0.  1.
        -11    1    1    2    0    0 -0.98534615185E+02 -0.26819203766E+02 -0.59041616443E+02  0.11795869003E+03  0.00000000000E+00 0. -1.
         11    1    1    2    0    0 -0.10205701666E+03  0.64958625766E+02 -0.46591039941E+02  0.12963789073E+03  0.00000000000E+00 0.  1.
</event>
<event>
 7    1  0.2693725E-009  0.1299177E+03  0.7561462E-02  0.1227578E+00
          2   -1    0    0  501    0  0.00000000000E+00  0.00000000000E+00  0.99989746824E+02  0.99989746824E+02  0.00000000000E+00 0. -1.
         -2   -1    0    0    0  501 -0.00000000000E+00 -0.00000000000E+00 -0.28612504101E+03  0.28612504101E+03  0.00000000000E+00 0.  1.
         25    2    1    2    0    0  0.28307733404E+02 -0.90722611544E+02  0.31957659762E+01  0.15712996729E+03  0.12509074180E+03 0.  0.
          5    1    3    3  502    0 -0.38174208656E+02 -0.39046527233E+02  0.37218619812E+02  0.66216308838E+02  0.41800000000E+01 0.  1.
         -5    1    3    3    0  502  0.66481942060E+02 -0.51676084312E+02 -0.34022853836E+02  0.90913658451E+02  0.41800000000E+01 0.  1.
        -11    1    1    2    0    0 -0.38402048909E+02  0.10370505942E+02 -0.10397543521E+03  0.11132455201E+03  0.00000000000E+00 0.  1.
         11    1    1    2    0    0  0.10094315505E+02  0.80352105602E+02 -0.85355624960E+02  0.11766026854E+03  0.00000000000E+00 0. -1.
</event>
<event>
 7    1  0.2693725E-009  0.1641311E+03  0.7561462E-02  0.1184110E+00
         -1   -1    0    0    0  501 -0.00000000000E+00  0.00000000000E+00  0.18489090017E+03  0.18489090017E+03  0.00000000000E+00 0.  1.
          1   -1    0    0  501    0  0.00000000000E+00 -0.00000000000E+00 -0.16664191636E+03  0.16664191636E+03  0.00000000000E+00 0. -1.
         25    2    1    2    0    0  0.13561327746E+03 -0.11370212007E+02  0.25118448061E+02  0.18654426956E+03  0.12509030869E+03 0.  0.
          5    1    3    3  502    0  0.26402383676E+02  0.43352041983E+02  0.38137970743E+02  0.63627530365E+02  0.41800000000E+01 0.  1.
         -5    1    3    3    0  502  0.10921089378E+03 -0.54722253991E+02 -0.13019522682E+02  0.12291673919E+03  0.41800000000E+01 0.  1.
        -11    1    1    2    0    0 -0.95351340090E+02  0.42322083905E+02  0.21936753016E+02  0.10660327376E+03  0.00000000000E+00 0.  1.
         11    1    1    2    0    0 -0.40261937368E+02 -0.30951871898E+02 -0.28806217267E+02  0.58385273210E+02  0.00000000000E+00 0. -1.
</event>
<event>
 7    1  0.2693725E-009  0.1008030E+03  0.7561462E-02  0.1278616E+00
          2   -1    0    0  501    0  0.00000000000E+00  0.00000000000E+00  0.60435290446E+03  0.60435290446E+03  0.00000000000E+00 0.  1.
         -2   -1    0    0    0  501 -0.00000000000E+00 -0.00000000000E+00 -0.20392802287E+02  0.20392802287E+02  0.00000000000E+00 0. -1.
         25    2    1    2    0    0  0.25320271308E+02 -0.99184280608E+00  0.30806956968E+03  0.33346156155E+03  0.12509058067E+03 0.  0.
          5    1    3    3  502    0  0.36563120478E+02  0.49982655859E+02  0.23815083039E+03  0.24610651775E+03  0.41800000000E+01 0. -1.
         -5    1    3    3    0  502 -0.11242849170E+02 -0.50974498665E+02  0.69918739293E+02  0.87355043793E+02  0.41800000000E+01 0. -1.
        -11    1    1    2    0    0  0.24992046177E+02  0.21374439149E+02  0.15952847542E+03  0.16288279065E+03  0.00000000000E+00 0.  1.
         11    1    1    2    0    0 -0.50312317484E+02 -0.20382596342E+02  0.11636205707E+03  0.12840135455E+03  0.00000000000E+00 0. -1.
</event>
<event>
 7    1  0.2693725E-009  0.1125344E+03  0.7561462E-02  0.1255947E+00
          2   -1    0    0  501    0  0.00000000000E+00  0.00000000000E+00  0.10705855948E+04  0.10705855948E+04  0.00000000000E+00 0. -1.
         -2   -1    0    0    0  501 -0.00000000000E+00 -0.00000000000E+00 -0.14486596235E+02  0.14486596235E+02  0.00000000000E+00 0.  1.
         25    2    1    2    0    0  0.34822205106E+02 -0.23910920893E+02  0.79562615093E+03  0.80650640595E+03  0.12508913893E+03 0.  0.
          5    1    3    3  502    0 -0.39741140570E+02 -0.38424779718E+02  0.30075902832E+03  0.30582558340E+03  0.41800000000E+01 0.  1.
         -5    1    3    3    0  502  0.74563345677E+02  0.14513858825E+02  0.49486712262E+03  0.50068082254E+03  0.41800000000E+01 0.  1.
        -11    1    1    2    0    0  0.25039228506E+02 -0.72498267718E+01  0.11898981301E+03  0.12181173406E+03  0.00000000000E+00 0. -1.
         11    1    1    2    0    0 -0.59861433612E+02  0.31160747665E+02  0.14148303458E+03  0.15675405099E+03  0.00000000000E+00 0.  1.
</event>
<event>
 7    1  0.2693725E-009  0.1129865E+03  0.7561462E-02  0.1255137E+00
         -2   -1    0    0    0  501 -0.00000000000E+00  0.00000000000E+00  0.83219257005E+03  0.83219257005E+03  0.00000000000E+00 0.  1.
          2   -1    0    0  501    0  0.00000000000E+00 -0.00000000000E+00 -0.28154282251E+02  0.28154282251E+02  0.00000000000E+00 0. -1.
         25    2    1    2    0    0 -0.49028462223E+02 -0.72162525773E+02  0.61247691316E+03  0.63117908643E+03  0.12509136563E+03 0.  0.
          5    1    3    3  502    0 -0.28830035260E+02  0.15287749983E+02  0.38793824461E+03  0.38933075946E+03  0.41800000000E+01 0.  1.
         -5    1    3    3    0  502 -0.20198426964E+02 -0.87450275756E+02  0.22453866856E+03  0.24184832697E+03  0.41800000000E+01 0.  1.
        -11    1    1    2    0    0  0.37022788645E+01  0.54424702987E+02  0.34044716732E+02  0.64302394212E+02  0.00000000000E+00 0. -1.
         11    1    1    2    0    0  0.45326183359E+02  0.17737822786E+02  0.15751665791E+03  0.16486537166E+03  0.00000000000E+00 0.  1.
</event>
<event>
 7    1  0.2693725E-009  0.9523594E+02  0.7561462E-02  0.1290646E+00
          1   -1    0    0  501    0  0.00000000000E+00  0.00000000000E+00  0.39873001546E+03  0.39873001546E+03  0.00000000000E+00 0. -1.
         -1   -1    0    0    0  501 -0.00000000000E+00 -0.00000000000E+00 -0.44006709482E+02  0.44006709482E+02  0.00000000000E+00 0.  1.
         25    2    1    2    0    0  0.70902394854E+01  0.58594842590E+02  0.27641411145E+03  0.30908871344E+03  0.12508974654E+03 0.  0.
          5    1    3    3  502    0 -0.24828897359E+02  0.38625926466E+02  0.20626267676E+02  0.50510906324E+02  0.41800000000E+01 0. -1.
         -5    1    3    3    0  502  0.31919136845E+02  0.19968916124E+02  0.25578784377E+03  0.25857780711E+03  0.41800000000E+01 0. -1.
        -11    1    1    2    0    0 -0.31944991909E+02 -0.71619899110E+02  0.67857023875E+02  0.10370375184E+03  0.00000000000E+00 0. -1.
         11    1    1    2    0    0  0.24854752423E+02  0.13025056520E+02  0.10452170648E+02  0.29944259661E+02  0.00000000000E+00 0.  1.
</event>
<event>
 7    1  0.2693725E-009  0.1670152E+03  0.7561462E-02  0.1180997E+00
          1   -1    0    0  501    0  0.00000000000E+00  0.00000000000E+00  0.83235596425E+03  0.83235596425E+03  0.00000000000E+00 0. -1.
         -1   -1    0    0    0  501 -0.00000000000E+00 -0.00000000000E+00 -0.34741120667E+02  0.34741120667E+02  0.00000000000E+00 0.  1.
         25    2    1    2    0    0  0.12595025948E+03  0.27275508383E+02  0.45550592834E+03  0.48963480557E+03  0.12509664605E+03 0.  0.
          5    1    3    3  502    0  0.88602025538E+02 -0.43992560468E+02  0.25482024270E+03  0.27337975930E+03  0.41800000000E+01 0. -1.
         -5    1    3    3    0  502  0.37348233943E+02  0.71268068851E+02  0.20068568564E+03  0.21625504627E+03  0.41800000000E+01 0. -1.
        -11    1    1    2    0    0 -0.88767383625E+02 -0.58151280663E+02  0.18716707346E+03  0.21515746147E+03  0.00000000000E+00 0.  1.
         11    1    1    2    0    0 -0.37182875855E+02  0.30875772280E+02  0.15494184179E+03  0.16230481788E+03  0.00000000000E+00 0. -1.
</event>
<event>
 7    1  0.2693725E-009  0.1457084E+03  0.7561462E-02  0.1205848E+00
         -2   -1    0    0    0  501 -0.00000000000E+00  0.00000000000E+00  0.29709720629E+02  0.29709720629E+02  0.00000000000E+00 0.  1.
          2   -1    0    0  501    0  0.00000000000E+00 -0.00000000000E+00 -0.98248826355E+03  0.98248826355E+03  0.00000000000E+00 0. -1.
         25    2    1    2    0    0  0.10544046852E+03 -0.78986047431E+02 -0.52199187083E+03  0.55270170171E+03  0.12508864766E+03 0.  0.
          5    1    3    3  502    0  0.24224148908E+02 -0.15752149330E+02 -0.35699429147E+03  0.35818617525E+03  0.41800000000E+01 0.  1.
         -5    1    3    3    0  502  0.81216319611E+02 -0.63233898101E+02 -0.16499757936E+03  0.19451552646E+03  0.41800000000E+01 0.  1.
        -11    1    1    2    0    0 -0.12169991495E+03  0.66335862678E+02 -0.35955538478E+03  0.38534580664E+03  0.00000000000E+00 0.  1.
         11    1    1    2    0    0  0.16259446426E+02  0.12650184754E+02 -0.71231287317E+02  0.74150475826E+02  0.00000000000E+00 0. -1.
</event>
<event>
 7    1  0.2693725E-009  0.8136828E+02  0.7561462E-02  0.1325213E+00
         -2   -1    0    0    0  501 -0.00000000000E+00  0.00000000000E+00  0.21160052621E+02  0.21160052621E+02  0.00000000000E+00 0. -1.
          2   -1    0    0  501    0  0.00000000000E+00 -0.00000000000E+00 -0.77599690355E+03  0.77599690355E+03  0.00000000000E+00 0.  1.
         25    2    1    2    0    0 -0.61157357477E+02  0.19024882219E+02 -0.32127225434E+03  0.35066782486E+03  0.12509953424E+03 0.  0.
          5    1    3    3  502    0 -0.23049578060E+02 -0.52039491500E+01  0.21395523782E+01  0.24091787395E+02  0.41800000000E+01 0. -1.
         -5    1    3    3    0  502 -0.38107779417E+02  0.24228831369E+02 -0.32341180672E+03  0.32657603746E+03  0.41800000000E+01 0. -1.
        -11    1    1    2    0    0 -0.13506509445E+02 -0.12563035330E+02 -0.24781081790E+02  0.30892679858E+02  0.00000000000E+00 0.  1.
         11    1    1    2    0    0  0.74663866922E+02 -0.64618468893E+01 -0.40878351480E+03  0.41559645145E+03  0.00000000000E+00 0. -1.
</event>
<event>
 7    1  0.2693725E-009  0.2090833E+03  0.7561462E-02  0.1142294E+00
         -2   -1    0    0    0  501 -0.00000000000E+00  0.00000000000E+00  0.56841314155E+02  0.56841314155E+02  0.00000000000E+00 0.  1.
          2   -1    0    0  501    0  0.00000000000E+00 -0.00000000000E+00 -0.90009721166E+03  0.90009721166E+03  0.00000000000E+00 0. -1.
         25    2    1    2    0    0  0.10598235494E+03  0.16733761833E+03 -0.39810689655E+03  0.46192075493E+03  0.12509014624E+03 0.  0.
          5    1    3    3  502    0  0.94883474089E+02  0.79317537677E+02 -0.32199956371E+03  0.34495700727E+03  0.41800000000E+01 0. -1.
         -5    1    3    3    0  502  0.11098880849E+02  0.88020080649E+02 -0.76107332849E+02  0.11696374766E+03  0.41800000000E+01 0. -1.
        -11    1    1    2    0    0 -0.47294766276E+02 -0.29350175505E+02 -0.20040164523E+03  0.20798809372E+03  0.00000000000E+00 0.  1.
         11    1    1    2    0    0 -0.58687588661E+02 -0.13798744282E+03 -0.24474735572E+03  0.28702967716E+03  0.00000000000E+00 0. -1.
</event>
<event>
 7    1  0.2846515E-009  0.1559110E+03  0.7561462E-02  0.1193392E+00
         -1   -1    0    0    0  501 -0.00000000000E+00  0.00000000000E+00  0.49777823551E+02  0.49777823551E+02  0.00000000000E+00 0.  1.
          1   -1    0    0  501    0  0.00000000000E+00 -0.00000000000E+00 -0.52844301290E+03  0.52844301290E+03  0.00000000000E+00 0. -1.
         25    2    1    2    0    0 -0.14994120608E+02  0.11079425647E+03 -0.17745583585E+03  0.24421078551E+03  0.12509253840E+03 0.  0.
          5    1    3    3  502    0 -0.48383725862E+02  0.12268611884E+03 -0.14362932825E+03  0.19503775280E+03  0.41800000000E+01 0.  1.
         -5    1    3    3    0  502  0.33389605254E+02 -0.11891862369E+02 -0.33826507601E+02  0.49173032712E+02  0.41800000000E+01 0.  1.
        -11    1    1    2    0    0 -0.15873967568E+02 -0.11216769017E+03 -0.22998132072E+03  0.25636883868E+03  0.00000000000E+00 0. -1.
         11    1    1    2    0    0  0.30868088176E+02  0.13734337034E+01 -0.71228032775E+02  0.77641212257E+02  0.00000000000E+00 0.  1.
</event>
<event>
 7    1  0.2693725E-009  0.9904605E+02  0.7561462E-02  0.1282315E+00
         -2   -1    0    0    0  501 -0.00000000000E+00  0.00000000000E+00  0.21500617162E+03  0.21500617162E+03  0.00000000000E+00 0.  1.
          2   -1    0    0  501    0  0.00000000000E+00 -0.00000000000E+00 -0.65129490046E+02  0.65129490046E+02  0.00000000000E+00 0. -1.
         25    2    1    2    0    0  0.33279615516E+02 -0.25500956214E+02  0.10108971418E+03  0.16621074860E+03  0.12509616725E+03 0.  0.
          5    1    3    3  502    0 -0.25611973188E+02  0.81370637623E+01  0.94042653915E+02  0.97896262097E+02  0.41800000000E+01 0. -1.
         -5    1    3    3    0  502  0.58891588704E+02 -0.33638019976E+02  0.70470602684E+01  0.68314486505E+02  0.41800000000E+01 0. -1.
        -11    1    1    2    0    0 -0.15876649105E+02 -0.35831679755E+02  0.19100231752E+02  0.43598120531E+02  0.00000000000E+00 0. -1.
         11    1    1    2    0    0 -0.17402966411E+02  0.61332635969E+02  0.29686735636E+02  0.70326792530E+02  0.00000000000E+00 0.  1.
</event>
<event>
 7    1  0.2693725E-009  0.1085518E+03  0.7561462E-02  0.1263275E+00
         -2   -1    0    0    0  501 -0.00000000000E+00  0.00000000000E+00  0.19803120320E+03  0.19803120320E+03  0.00000000000E+00 0.  1.
          2   -1    0    0  501    0  0.00000000000E+00 -0.00000000000E+00 -0.71851647971E+02  0.71851647971E+02  0.00000000000E+00 0. -1.
         25    2    1    2    0    0  0.22126186235E+02 -0.45737726161E+02  0.77063556496E+02  0.15546187876E+03  0.12509235107E+03 0.  0.
          5    1    3    3  502    0 -0.17183323490E+02  0.27930861160E+02 -0.10215297570E+02  0.34600929405E+02  0.41800000000E+01 0.  1.
         -5    1    3    3    0  502  0.39309509725E+02 -0.73668587321E+02  0.87278854066E+02  0.12086094936E+03  0.41800000000E+01 0.  1.
        -11    1    1    2    0    0  0.20261055447E+00  0.68531638548E+02  0.20426086322E+02  0.71511198672E+02  0.00000000000E+00 0. -1.
         11    1    1    2    0    0 -0.22328796790E+02 -0.22793912387E+02  0.28689912414E+02  0.42909773738E+02  0.00000000000E+00 0.  1.
</event>
<event>
 7    1  0.2693725E-009  0.1416797E+03  0.7561462E-02  0.1211087E+00
          1   -1    0    0  501    0  0.00000000000E+00  0.00000000000E+00  0.85892020657E+03  0.85892020657E+03  0.00000000000E+00 0. -1.
         -1   -1    0    0    0  501 -0.00000000000E+00 -0.00000000000E+00 -0.32158241548E+02  0.32158241548E+02  0.00000000000E+00 0.  1.
         25    2    1    2    0    0  0.53746157353E+02  0.10514475972E+03  0.33186617713E+03  0.37380273581E+03  0.12509698578E+03 0.  0.
          5    1    3    3  502    0  0.77155717413E+02  0.24763779389E+02  0.21644607641E+03  0.23115498241E+03  0.41800000000E+01 0.  1.
         -5    1    3    3    0  502 -0.23409560060E+02  0.80380980328E+02  0.11542010071E+03  0.14264775340E+03  0.41800000000E+01 0.  1.
        -11    1    1    2    0    0 -0.33485495110E+02 -0.74215407171E+02  0.45749459803E+03  0.46468323864E+03  0.00000000000E+00 0.  1.
         11    1    1    2    0    0 -0.20260662243E+02 -0.30929352546E+02  0.37401189861E+02  0.52592473668E+02  0.00000000000E+00 0. -1.
</event>
<event>
 7    1  0.2693725E-009  0.1092042E+03  0.7561462E-02  0.1262051E+00
         -1   -1    0    0    0  501 -0.00000000000E+00  0.00000000000E+00  0.14115425609E+03  0.14115425609E+03  0.00000000000E+00 0.  1.
          1   -1    0    0  501    0  0.00000000000E+00 -0.00000000000E+00 -0.12490964939E+03  0.12490964939E+03  0.00000000000E+00 0. -1.
         25    2    1    2    0    0 -0.63710507976E+02  0.34733050334E+02  0.90126856153E+01  0.14489056256E+03  0.12508650209E+03 0.  0.
          5    1    3    3  502    0  0.32983231715E+02 -0.14163798389E+02  0.83310992047E+00  0.36147935368E+02  0.41800000000E+01 0. -1.
         -5    1    3    3    0  502 -0.96693739692E+02  0.48896848723E+02  0.81795756949E+01  0.10874262719E+03  0.41800000000E+01 0. -1.
        -11    1    1    2    0    0  0.24684431703E+02 -0.60851712227E+01 -0.43917919053E+02  0.50745779049E+02  0.00000000000E+00 0. -1.
         11    1    1    2    0    0  0.39026076273E+02 -0.28647879111E+02  0.51149840136E+02  0.70427563871E+02  0.00000000000E+00 0.  1.
</event>
<event>
 7    1  0.2693725E-009  0.1014710E+03  0.7561462E-02  0.1277233E+00
         -1   -1    0    0    0  501 -0.00000000000E+00  0.00000000000E+00  0.11531065474E+04  0.11531065474E+04  0.00000000000E+00 0.  1.
          1   -1    0    0  501    0  0.00000000000E+00 -0.00000000000E+00 -0.27463386560E+02  0.27463386560E+02  0.00000000000E+00 0. -1.
         25    2    1    2    0    0 -0.42348319266E+02  0.29650036689E+01  0.10404274724E+04  0.10487796506E+04  0.12508900364E+03 0.  0.
          5    1    3    3  502    0  0.25404958942E+02  0.40213103839E+02  0.57263162300E+03  0.57461896394E+03  0.41800000000E+01 0.  1.
         -5    1    3    3    0  502 -0.67753278208E+02 -0.37248100170E+02  0.46779584936E+03  0.47416068663E+03  0.41800000000E+01 0.  1.
        -11    1    1    2    0    0  0.46063846903E+02  0.23032585489E+02  0.10455788364E+02  0.52551893364E+02  0.00000000000E+00 0. -1.
         11    1    1    2    0    0 -0.37155276373E+01 -0.25997589158E+02  0.74759900111E+02  0.79238390015E+02  0.00000000000E+00 0.  1.
</event>
<event>
 7    1  0.2693725E-009  0.8406019E+02  0.7561462E-02  0.1317909E+00
          2   -1    0    0  501    0  0.00000000000E+00  0.00000000000E+00  0.36077287243E+03  0.36077287243E+03  0.00000000000E+00 0. -1.
         -2   -1    0    0    0  501 -0.00000000000E+00 -0.00000000000E+00 -0.37878990736E+02  0.37878990736E+02  0.00000000000E+00 0.  1.
         25    2    1    2    0    0  0.41793740538E+02 -0.13345123048E+02  0.17512817250E+03  0.21964009821E+03  0.12508831632E+03 0.  0.
          5    1    3    3  502    0 -0.40777862856E+01  0.46195391600E+02  0.27896338254E+02  0.54280020579E+02  0.41800000000E+01 0.  1.
         -5    1    3    3    0  502  0.45871526824E+02 -0.59540514648E+02  0.14723183425E+03  0.16536007763E+03  0.41800000000E+01 0.  1.
        -11    1    1    2    0    0 -0.31471530589E+02  0.29165574885E+01  0.15799467372E+03  0.16112504606E+03  0.00000000000E+00 0. -1.
         11    1    1    2    0    0 -0.10322209949E+02  0.10428565559E+02 -0.10228964522E+02  0.17886718901E+02  0.00000000000E+00 0.  1.
</event>
<event>
 7    1  0.2693725E-009  0.1716438E+03  0.7561462E-02  0.1176144E+00
         -1   -1    0    0    0  501 -0.00000000000E+00  0.00000000000E+00  0.70606144126E+02  0.70606144126E+02  0.00000000000E+00 0.  1.
          1   -1    0    0  501    0  0.00000000000E+00 -0.00000000000E+00 -0.46568713631E+03  0.46568713631E+03  0.00000000000E+00 0. -1.
         25    2    1    2    0    0 -0.11210831667E+03 -0.91989006579E+02 -0.21668648150E+03  0.28919062657E+03  0.12509170730E+03 0.  0.
          5    1    3    3  502    0 -0.11887446609E+03 -0.28815914614E+02 -0.10799887107E+03  0.16322599112E+03  0.41800000000E+01 0. -1.
         -5    1    3    3    0  502  0.67661494164E+01 -0.63173091965E+02 -0.10868761042E+03  0.12596463546E+03  0.41800000000E+01 0. -1.
        -11    1    1    2    0    0 -0.51307361142E+01  0.17710191090E+02 -0.65952453580E+02  0.68481394953E+02  0.00000000000E+00 0.  1.
         11    1    1    2    0    0  0.11723905278E+03  0.74278815489E+02 -0.11244205711E+03  0.17862125891E+03  0.00000000000E+00 0. -1.
</event>
<event>
 7    1  0.2693725E-009  0.7014522E+02  0.7561462E-02  0.1359600E+00
         -2   -1    0    0    0  501 -0.00000000000E+00  0.00000000000E+00  0.49149305502E+03  0.49149305502E+03  0.00000000000E+00 0.  1.
          2   -1    0    0  501    0  0.00000000000E+00 -0.00000000000E+00 -0.34521915806E+02  0.34521915806E+02  0.00000000000E+00 0. -1.
         25    2    1    2    0    0 -0.11160834354E+02 -0.44302007625E+02  0.35523658886E+03  0.37937742015E+03  0.12508781215E+03 0.  0.
          5    1    3    3  502    0 -0.15684587275E+02 -0.51504706609E+02  0.36308100334E+03  0.36707496301E+03  0.41800000000E+01 0. -1.
         -5    1    3    3    0  502  0.45237529216E+01  0.72026989836E+01 -0.78444144794E+01  0.12302457139E+02  0.41800000000E+01 0. -1.
        -11    1    1    2    0    0  0.16588995854E+02 -0.11856911813E+02  0.85542821984E+02  0.87939499283E+02  0.00000000000E+00 0.  1.
         11    1    1    2    0    0 -0.54281614998E+01  0.56158919439E+02  0.16191728368E+02  0.58698051393E+02  0.00000000000E+00 0. -1.
</event>
<event>
 7    1  0.2967136E-009  0.1787179E+03  0.7561462E-02  0.1169050E+00
          1   -1    0    0  501    0  0.00000000000E+00  0.00000000000E+00  0.67543996912E+03  0.67543996912E+03  0.00000000000E+00 0. -1.
         -1   -1    0    0    0  501 -0.00000000000E+00 -0.00000000000E+00 -0.80690482985E+02  0.80690482985E+02  0.00000000000E+00 0.  1.
         25    2    1    2    0    0  0.10078174553E+03  0.14648680291E+03  0.13777186348E+03  0.25737919961E+03  0.12509045674E+03 0.  0.
          5    1    3    3  502    0  0.15634704138E+02  0.31687480043E+02  0.10474560013E+03  0.11062392829E+03  0.41800000000E+01 0. -1.
         -5    1    3    3    0  502  0.85147041391E+02  0.11479932286E+03  0.33026263349E+02  0.14675527131E+03  0.41800000000E+01 0. -1.
        -11    1    1    2    0    0 -0.65806875651E+02 -0.11098490645E+03  0.20750198850E+03  0.24434661768E+03  0.00000000000E+00 0.  1.
         11    1    1    2    0    0 -0.34974869879E+02 -0.35501896456E+02  0.24947563416E+03  0.25440463482E+03  0.00000000000E+00 0. -1.
</event>
<event>
 7    1  0.2693725E-009  0.1163341E+03  0.7561462E-02  0.1249270E+00
         -1   -1    0    0    0  501 -0.00000000000E+00  0.00000000000E+00  0.11294565897E+03  0.11294565897E+03  0.00000000000E+00 0. -1.
          1   -1    0    0  501    0  0.00000000000E+00 -0.00000000000E+00 -0.16535974669E+03  0.16535974669E+03  0.00000000000E+00 0.  1.
         25    2    1    2    0    0  0.79740331496E+02  0.19083051556E+02 -0.22863320319E+02  0.15130419378E+03  0.12509014476E+03 0.  0.
          5    1    3    3  502    0  0.10776830974E+03  0.36198288552E+02 -0.54359121560E+01  0.11389181806E+03  0.41800000000E+01 0. -1.
         -5    1    3    3    0  502 -0.28027978248E+02 -0.17115236996E+02 -0.17427408163E+02  0.37412375725E+02  0.41800000000E+01 0. -1.
        -11    1    1    2    0    0 -0.18045282117E+02 -0.15855290431E+02 -0.55129775081E+02  0.60135800833E+02  0.00000000000E+00 0.  1.
         11    1    1    2    0    0 -0.61695049379E+02 -0.32277611255E+01  0.25579007682E+02  0.66865411042E+02  0.00000000000E+00 0. -1.
</event>
<event>
 7    1  0.2693725E-009  0.7861269E+02  0.7561462E-02  0.1333035E+00
          1   -1    0    0  501    0  0.00000000000E+00  0.00000000000E+00  0.86397740513E+03  0.86397740513E+03  0.00000000000E+00 0. -1.
         -1   -1    0    0    0  501 -0.00000000000E+00 -0.00000000000E+00 -0.16871274477E+02  0.16871274477E+02  0.00000000000E+00 0.  1.
         25    2    1    2    0    0  0.21242362517E+02  0.99045075049E+01  0.65324618545E+03  0.66552952173E+03  0.12509847425E+03 0.  0.
          5    1    3    3  502    0 -0.11987513969E+02 -0.32614469587E+02  0.52711523720E+03  0.52827582739E+03  0.41800000000E+01 0.  1.
         -5    1    3    3    0  502  0.33229876486E+02  0.42518977092E+02  0.12613094825E+03  0.13725369434E+03  0.41800000000E+01 0.  1.
        -11    1    1    2    0    0  0.19020516757E+02 -0.18934872474E+02  0.13017552009E+02  0.29828947578E+02  0.00000000000E+00 0.  1.
         11    1    1    2    0    0 -0.40262879275E+02  0.90303649687E+01  0.18084239319E+03  0.18549021029E+03  0.00000000000E+00 0. -1.
</event>
<event>
 7    1  0.2693725E-009  0.1598609E+03  0.7561462E-02  0.1188854E+00
         -3   -1    0    0    0  501 -0.00000000000E+00  0.00000000000E+00  0.18700623335E+02  0.18700623335E+02  0.00000000000E+00 0.  1.
          3   -1    0    0  501    0  0.00000000000E+00 -0.00000000000E+00 -0.16365989866E+04  0.16365989866E+04  0.00000000000E+00 0. -1.
         25    2    1    2    0    0 -0.96514882072E+02 -0.97612078272E+02 -0.80277218685E+03  0.82397443866E+03  0.12508977297E+03 0.  0.
          5    1    3    3  502    0 -0.10926014370E+03 -0.10252704653E+03 -0.52888135614E+03  0.54971132019E+03  0.41800000000E+01 0. -1.
         -5    1    3    3    0  502  0.12745261630E+02  0.49149682620E+01 -0.27389083071E+03  0.27426311847E+03  0.41800000000E+01 0. -1.
        -11    1    1    2    0    0 -0.64072572406E+01  0.33899788828E+02 -0.94442173795E+02  0.10054637149E+03  0.00000000000E+00 0. -1.
         11    1    1    2    0    0  0.10292213931E+03  0.63712289445E+02 -0.72068400264E+03  0.73077879981E+03  0.00000000000E+00 0.  1.
</event>
<event>
 7    1  0.2693725E-009  0.3731333E+03  0.7561462E-02  0.1053501E+00
         -1   -1    0    0    0  501 -0.00000000000E+00  0.00000000000E+00  0.16246522437E+03  0.16246522437E+03  0.00000000000E+00 0.  1.
          1   -1    0    0  501    0  0.00000000000E+00 -0.00000000000E+00 -0.92587917557E+03  0.92587917557E+03  0.00000000000E+00 0. -1.
         25    2    1    2    0    0  0.26222204328E+03 -0.24950918878E+03 -0.26482112173E+03  0.46560875621E+03  0.12508417996E+03 0.  0.
          5    1    3    3  502    0  0.26442165587E+03 -0.21515880699E+03 -0.20897834268E+03  0.39987691159E+03  0.41800000000E+01 0. -1.
         -5    1    3    3    0  502 -0.21996125873E+01 -0.34350381796E+02 -0.55842779047E+02  0.65731844617E+02  0.41800000000E+01 0. -1.
        -11    1    1    2    0    0 -0.16696272164E+03  0.10384815411E+03 -0.22884760489E+03  0.30171545502E+03  0.00000000000E+00 0. -1.
         11    1    1    2    0    0 -0.95259321635E+02  0.14566103467E+03 -0.26974522458E+03  0.32102018872E+03  0.00000000000E+00 0.  1.
</event>
<event>
 7    1  0.2693725E-009  0.1069521E+03  0.7561462E-02  0.1266321E+00
          1   -1    0    0  501    0  0.00000000000E+00  0.00000000000E+00  0.10342099402E+03  0.10342099402E+03  0.00000000000E+00 0. -1.
         -1   -1    0    0    0  501 -0.00000000000E+00 -0.00000000000E+00 -0.16681094209E+03  0.16681094209E+03  0.00000000000E+00 0.  1.
         25    2    1    2    0    0  0.29899580675E+02  0.62564132800E+02 -0.20448052891E+02  0.14446871298E+03  0.12507929695E+03 0.  0.
          5    1    3    3  502    0  0.24698008499E+02  0.86934591738E+02 -0.51761513394E+02  0.10423215211E+03  0.41800000000E+01 0.  1.
         -5    1    3    3    0  502  0.52015721763E+01 -0.24370458938E+02  0.31313460502E+02  0.40236560869E+02  0.41800000000E+01 0.  1.
        -11    1    1    2    0    0 -0.52769595374E+02 -0.44168714979E+02 -0.60443519880E+02  0.91591073115E+02  0.00000000000E+00 0.  1.
         11    1    1    2    0    0  0.22870014699E+02 -0.18395417821E+02  0.17501624707E+02  0.34172150013E+02  0.00000000000E+00 0. -1.
</event>
<event>
 7    1  0.2693725E-009  0.1196571E+03  0.7561462E-02  0.1243664E+00
          1   -1    0    0  501    0  0.00000000000E+00  0.00000000000E+00  0.12536640142E+04  0.12536640142E+04  0.00000000000E+00 0. -1.
         -1   -1    0    0    0  501 -0.00000000000E+00 -0.00000000000E+00 -0.33225268754E+02  0.33225268754E+02  0.00000000000E+00 0.  1.
         25    2    1    2    0    0 -0.26797782835E+02  0.50594024622E+02  0.11492209831E+04  0.11574257262E+04  0.12509023613E+03 0.  0.
          5    1    3    3  502    0 -0.60460756618E+02 -0.12837075340E+02  0.40127829066E+03  0.40603205853E+03  0.41800000000E+01 0. -1.
         -5    1    3    3    0  502  0.33662973782E+02  0.63431099962E+02  0.74794269241E+03  0.75139366764E+03  0.41800000000E+01 0. -1.
        -11    1    1    2    0    0 -0.25889452778E+02 -0.45693422401E+02  0.49810662894E+02  0.72382696508E+02  0.00000000000E+00 0.  1.
         11    1    1    2    0    0  0.52687235613E+02 -0.49006022206E+01  0.21407099438E+02  0.57080860234E+02  0.00000000000E+00 0. -1.
</event>
<event>
 7    1  0.2693725E-009  0.2364680E+03  0.7561462E-02  0.1122168E+00
          3   -1    0    0  501    0  0.00000000000E+00  0.00000000000E+00  0.27392993390E+03  0.27392993390E+03  0.00000000000E+00 0. -1.
         -3   -1    0    0    0  501 -0.00000000000E+00 -0.00000000000E+00 -0.23276803759E+03  0.23276803759E+03  0.00000000000E+00 0.  1.
         25    2    1    2    0    0 -0.66851883458E+02 -0.21774815094E+03  0.32817843142E+02  0.26193044434E+03  0.12508842987E+03 0.  0.
          5    1    3    3  502    0 -0.25423760396E+01 -0.81654226050E+02 -0.44003630643E+02  0.92885242194E+02  0.41800000000E+01 0. -1.
         -5    1    3    3    0  502 -0.64309507419E+02 -0.13609392489E+03  0.76821473784E+02  0.16904520215E+03  0.41800000000E+01 0. -1.
        -11    1    1    2    0    0  0.29509937520E+02  0.12688704241E+02 -0.14198435889E+02  0.35120296261E+02  0.00000000000E+00 0. -1.
         11    1    1    2    0    0  0.37341945938E+02  0.20505944670E+03  0.22542489057E+02  0.20964723089E+03  0.00000000000E+00 0.  1.
</event>
<event>
 7    1  0.2693725E-009  0.2193445E+03  0.7561462E-02  0.1134373E+00
          2   -1    0    0  501    0  0.00000000000E+00  0.00000000000E+00  0.57482406339E+03  0.57482406339E+03  0.00000000000E+00 0. -1.
         -2   -1    0    0    0  501 -0.00000000000E+00 -0.00000000000E+00 -0.88268158959E+02  0.88268158959E+02  0.00000000000E+00 0.  1.
         25    2    1    2    0    0 -0.14281081065E+03 -0.13807843178E+03  0.26919492615E+03  0.35717710536E+03  0.12509594466E+03 0.  0.
          5    1    3    3  502    0 -0.12967719670E+03 -0.15488408844E+03  0.19859264482E+03  0.28330507791E+03  0.41800000000E+01 0.  1.
         -5    1    3    3    0  502 -0.13133613946E+02  0.16805656653E+02  0.70602281327E+02  0.73872027449E+02  0.41800000000E+01 0.  1.
        -11    1    1    2    0    0  0.14434301865E+03  0.97242161022E+02  0.18270892086E+03  0.25233607486E+03  0.00000000000E+00 0. -1.
         11    1    1    2    0    0 -0.15322080034E+01  0.40836270762E+02  0.34652057421E+02  0.53579042121E+02  0.00000000000E+00 0.  1.
</event>
<event>
 7    1  0.2693725E-009  0.2042383E+03  0.7561462E-02  0.1146212E+00
          2   -1    0    0  501    0  0.00000000000E+00  0.00000000000E+00  0.39568051134E+03  0.39568051134E+03  0.00000000000E+00 0. -1.
         -2   -1    0    0    0  501 -0.00000000000E+00 -0.00000000000E+00 -0.14794163932E+03  0.14794163932E+03  0.00000000000E+00 0.  1.
         25    2    1    2    0    0  0.13294674061E+03  0.13748088219E+03  0.14510388430E+02  0.22898598847E+03  0.12509277651E+03 0.  0.
          5    1    3    3  502    0  0.13404002148E+03  0.73521862730E+02  0.42953803224E+02  0.15885431461E+03  0.41800000000E+01 0. -1.
         -5    1    3    3    0  502 -0.10932808704E+01  0.63959019459E+02 -0.28443414794E+02  0.70131673860E+02  0.41800000000E+01 0. -1.
        -11    1    1    2    0    0 -0.85761330773E+02 -0.94421820065E+02  0.85146498803E+02  0.15336366003E+03  0.00000000000E+00 0.  1.
         11    1    1    2    0    0 -0.47185409837E+02 -0.43059062124E+02  0.14808198479E+03  0.16127250215E+03  0.00000000000E+00 0. -1.
</event>
<event>
 7    1  0.2693725E-009  0.2195159E+03  0.7561462E-02  0.1134245E+00
         -2   -1    0    0    0  501 -0.00000000000E+00  0.00000000000E+00  0.15849961122E+03  0.15849961122E+03  0.00000000000E+00 0.  1.
          2   -1    0    0  501    0  0.00000000000E+00 -0.00000000000E+00 -0.41050259051E+03  0.41050259051E+03  0.00000000000E+00 0. -1.
         25    2    1    2    0    0 -0.14464221706E+03  0.13625702805E+03 -0.25963202340E+03  0.35006917647E+03  0.12510912074E+03 0.  0.
          5    1    3    3  502    0 -0.70533880886E+02  0.44808745418E-01 -0.40044631349E+02  0.81216225352E+02  0.41800000000E+01 0.  1.
         -5    1    3    3    0  502 -0.74108336175E+02  0.13621221930E+03 -0.21958739206E+03  0.26885295112E+03  0.41800000000E+01 0.  1.
        -11    1    1    2    0    0  0.98872693940E+02 -0.13516561428E+03  0.26241827708E+02  0.16951161143E+03  0.00000000000E+00 0.  1.
         11    1    1    2    0    0  0.45769523120E+02 -0.10914137704E+01 -0.18612783600E+02  0.49421413821E+02  0.00000000000E+00 0. -1.
</event>
<event>
 7    1  0.2693725E-009  0.1359399E+03  0.7561462E-02  0.1218899E+00
         -2   -1    0    0    0  501 -0.00000000000E+00  0.00000000000E+00  0.40100851098E+02  0.40100851098E+02  0.00000000000E+00 0. -1.
          2   -1    0    0  501    0  0.00000000000E+00 -0.00000000000E+00 -0.81968282043E+03  0.81968282043E+03  0.00000000000E+00 0.  1.
         25    2    1    2    0    0  0.63978562834E+02  0.97698781950E+02 -0.62729583840E+03  0.65022098033E+03  0.12509574690E+03 0.  0.
          5    1    3    3  502    0  0.10954261923E+02  0.72686752348E+02 -0.53991291425E+03  0.54490988906E+03  0.41800000000E+01 0.  1.
         -5    1    3    3    0  502  0.53024300912E+02  0.25012029601E+02 -0.87382924153E+02  0.10531109127E+03  0.41800000000E+01 0.  1.
        -11    1    1    2    0    0 -0.38322977274E+02  0.14762729911E+00 -0.20595618555E+02  0.43506917664E+02  0.00000000000E+00 0. -1.
         11    1    1    2    0    0 -0.25655585561E+02 -0.97846409249E+02 -0.13169051238E+03  0.16605577353E+03  0.00000000000E+00 0.  1.
</event>
<event>
 7    1  0.2693725E-009  0.1107358E+03  0.7561462E-02  0.1259213E+00
         -3   -1    0    0    0  501 -0.00000000000E+00  0.00000000000E+00  0.10289194117E+03  0.10289194117E+03  0.00000000000E+00 0.  1.
          3   -1    0    0  501    0  0.00000000000E+00 -0.00000000000E+00 -0.19271410992E+03  0.19271410992E+03  0.00000000000E+00 0. -1.
         25    2    1    2    0    0 -0.33556679918E+02  0.25297687975E+02 -0.12797704727E+03  0.18382379109E+03  0.12508811997E+03 0.  0.
          5    1    3    3  502    0  0.23775633359E+02  0.59689713754E+02 -0.71376014469E+02  0.96125701615E+02  0.41800000000E+01 0. -1.
         -5    1    3    3    0  502 -0.57332313276E+02 -0.34392025779E+02 -0.56601032803E+02  0.87698089472E+02  0.41800000000E+01 0. -1.
        -11    1    1    2    0    0  0.88458077049E+01 -0.52562318978E+02  0.50044085327E+02  0.73112626588E+02  0.00000000000E+00 0.  1.
         11    1    1    2    0    0  0.24710872213E+02  0.27264631004E+02 -0.11889206807E+02  0.38669633406E+02  0.00000000000E+00 0. -1.
</event>
<event>
 7    1  0.2693725E-009  0.7294615E+02  0.7561462E-02  0.1350352E+00
         -1   -1    0    0    0  501 -0.00000000000E+00  0.00000000000E+00  0.20310132175E+03  0.20310132175E+03  0.00000000000E+00 0.  1.
          1   -1    0    0  501    0  0.00000000000E+00 -0.00000000000E+00 -0.75713348815E+02  0.75713348815E+02  0.00000000000E+00 0. -1.
         25    2    1    2    0    0 -0.72294034102E+01 -0.55589885757E+02  0.43469460161E+02  0.14380490789E+03  0.12509099846E+03 0.  0.
          5    1    3    3  502    0 -0.81698467676E+01 -0.46061246492E+02  0.87091932039E+02  0.98948783979E+02  0.41800000000E+01 0.  1.
         -5    1    3    3    0  502  0.94044335741E+00 -0.95286392647E+01 -0.43622471878E+02  0.44856123915E+02  0.41800000000E+01 0.  1.
        -11    1    1    2    0    0  0.17381493722E+02  0.69284196203E+02  0.28292389550E+02  0.76830172940E+02  0.00000000000E+00 0. -1.
         11    1    1    2    0    0 -0.10152090311E+02 -0.13694310446E+02  0.55626123229E+02  0.58179589736E+02  0.00000000000E+00 0.  1.
</event>
<event>
 7    1  0.2693725E-009  0.1053106E+03  0.7561462E-02  0.1269509E+00
          1   -1    0    0  501    0  0.00000000000E+00  0.00000000000E+00  0.79463312836E+03  0.79463312836E+03  0.00000000000E+00 0. -1.
         -1   -1    0    0    0  501 -0.00000000000E+00 -0.00000000000E+00 -0.23803671346E+02  0.23803671346E+02  0.00000000000E+00 0.  1.
         25    2    1    2    0    0 -0.62783758694E+02 -0.12201076724E+02  0.59163133281E+03  0.60808379119E+03  0.12509035340E+03 0.  0.
          5    1    3    3  502    0 -0.37358350128E+02 -0.68697326073E+02  0.31922810585E+03  0.32869290363E+03  0.41800000000E+01 0. -1.
         -5    1    3    3    0  502 -0.25425408566E+02  0.56496249349E+02  0.27240322696E+03  0.27939088756E+03  0.41800000000E+01 0. -1.
        -11    1    1    2    0    0  0.41792023301E+02 -0.62646131133E+01  0.17737098408E+03  0.18233563717E+03  0.00000000000E+00 0. -1.
         11    1    1    2    0    0  0.20991735393E+02  0.18465689837E+02  0.18271401207E+01  0.28017371343E+02  0.00000000000E+00 0.  1.
</event>
<event>
 7    1  0.2693725E-009  0.2319310E+03  0.7561462E-02  0.1125288E+00
         -1   -1    0    0    0  501 -0.00000000000E+00  0.00000000000E+00  0.56174190073E+02  0.56174190073E+02  0.00000000000E+00 0.  1.
          1   -1    0    0  501    0  0.00000000000E+00 -0.00000000000E+00 -0.11450369518E+04  0.11450369518E+04  0.00000000000E+00 0. -1.
         25    2    1    2    0    0 -0.20231167679E+03 -0.10510635453E+03 -0.61437331306E+03  0.66714287013E+03  0.12509069125E+03 0.  0.
          5    1    3    3  502    0 -0.20374036830E+03 -0.95157774091E+02 -0.61632991570E+03  0.65608320893E+03  0.41800000000E+01 0.  1.
         -5    1    3    3    0  502  0.14286915041E+01 -0.99485804389E+01  0.19566026394E+01  0.11059661209E+02  0.41800000000E+01 0.  1.
        -11    1    1    2    0    0  0.17402273082E+03  0.92816977654E+02 -0.45894576563E+03  0.49952989698E+03  0.00000000000E+00 0. -1.
         11    1    1    2    0    0  0.28288945977E+02  0.12289376876E+02 -0.15543683018E+02  0.34538374748E+02  0.00000000000E+00 0.  1.
</event>
<event>
 7    1  0.2693725E-009  0.8301651E+02  0.7561462E-02  0.1320703E+00
         -1   -1    0    0    0  501 -0.00000000000E+00  0.00000000000E+00  0.68354292951E+02  0.68354292951E+02  0.00000000000E+00 0.  1.
          1   -1    0    0  501    0  0.00000000000E+00 -0.00000000000E+00 -0.17820926069E+03  0.17820926069E+03  0.00000000000E+00 0. -1.
         25    2    1    2    0    0  0.18017147947E+02  0.70948973658E+01 -0.60715430485E+02  0.14039227871E+03  0.12509465710E+03 0.  0.
          5    1    3    3  502    0  0.69072526721E+02  0.51826877959E+01 -0.55516420743E+02  0.88867426949E+02  0.41800000000E+01 0. -1.
         -5    1    3    3    0  502 -0.51055378774E+02  0.19122095699E+01 -0.51990097423E+01  0.51524851766E+02  0.41800000000E+01 0. -1.
        -11    1    1    2    0    0 -0.25486545658E+02 -0.18676513821E+02  0.18854304966E+02  0.36794850099E+02  0.00000000000E+00 0.  1.
         11    1    1    2    0    0  0.74693977112E+01  0.11581616456E+02 -0.67993842218E+02  0.69376424825E+02  0.00000000000E+00 0. -1.
</event>
<event>
 7    1  0.2693725E-009  0.1041368E+03  0.7561462E-02  0.1271830E+00
          2   -1    0    0  501    0  0.00000000000E+00  0.00000000000E+00  0.41600500379E+03  0.41600500379E+03  0.00000000000E+00 0. -1.
         -2   -1    0    0    0  501 -0.00000000000E+00 -0.00000000000E+00 -0.41524440356E+02  0.41524440356E+02  0.00000000000E+00 0.  1.
         25    2    1    2    0    0 -0.65841745812E+02  0.24470297352E+02  0.24492106777E+03  0.28384685484E+03  0.12509507033E+03 0.  0.
          5    1    3    3  502    0 -0.83564503729E+02 -0.87323111784E+01  0.22673612005E+03  0.24183883078E+03  0.41800000000E+01 0.  1.
         -5    1    3    3    0  502  0.17722757917E+02  0.33202608530E+02  0.18184947727E+02  0.42008024058E+02  0.41800000000E+01 0.  1.
        -11    1    1    2    0    0  0.25050161732E+02 -0.36031656246E+02  0.75658578009E+01  0.44531259346E+02  0.00000000000E+00 0.  1.
         11    1    1    2    0    0  0.40791584081E+02  0.11561358895E+02  0.12199363786E+03  0.12915132996E+03  0.00000000000E+00 0. -1.
</event>
<event>
 7    1  0.2693725E-009  0.1468888E+03  0.7561462E-02  0.1204349E+00
          2   -1    0    0  501    0  0.00000000000E+00  0.00000000000E+00  0.73278146856E+03  0.73278146856E+03  0.00000000000E+00 0.  1.
         -2   -1    0    0    0  501 -0.00000000000E+00 -0.00000000000E+00 -0.40056754324E+02  0.40056754324E+02  0.00000000000E+00 0. -1.
         25    2    1    2    0    0  0.70821150796E+02  0.78235497000E+02  0.55059931006E+03  0.57440701009E+03  0.12508950639E+03 0.  0.
          5    1    3    3  502    0  0.10172286405E+03  0.74873774994E+02  0.49166015918E+03  0.50764240147E+03  0.41800000000E+01 0.  1.
         -5    1    3    3    0  502 -0.30901713250E+02  0.33617220063E+01  0.58939150884E+02  0.66764608616E+02  0.41800000000E+01 0.  1.
        -11    1    1    2    0    0 -0.24312606559E+02 -0.85567033076E+02  0.10984002511E+03  0.14134231887E+03  0.00000000000E+00 0.  1.
         11    1    1    2    0    0 -0.46508544238E+02  0.73315360766E+01  0.32285379065E+02  0.57088893926E+02  0.00000000000E+00 0. -1.
</event>
<event>
 7    1  0.2693725E-009  0.1355439E+03  0.7561462E-02  0.1219454E+00
          1   -1    0    0  501    0  0.00000000000E+00  0.00000000000E+00  0.13276096890E+03  0.13276096890E+03  0.00000000000E+00 0. -1.
         -1   -1    0    0    0  501 -0.00000000000E+00 -0.00000000000E+00 -0.19950988081E+03  0.19950988081E+03  0.00000000000E+00 0.  1.
         25    2    1    2    0    0  0.10571704001E+03 -0.59539417363E+02 -0.28726825017E+02  0.17661614326E+03  0.12508795632E+03 0.  0.
          5    1    3    3  502    0  0.26265850963E+02  0.10465646268E+02  0.40839994727E+02  0.49847790803E+02  0.41800000000E+01 0.  1.
         -5    1    3    3    0  502  0.79451189045E+02 -0.70005063631E+02 -0.69566819744E+02  0.12676835245E+03  0.41800000000E+01 0.  1.
        -11    1    1    2    0    0  0.79050712600E+01  0.95541712953E+01 -0.28592864949E+02  0.31166075575E+02  0.00000000000E+00 0.  1.
         11    1    1    2    0    0 -0.11362211127E+03  0.49985246067E+02 -0.94292219423E+01  0.12448863089E+03  0.00000000000E+00 0. -1.
</event>
<event>
 7    1  0.2693725E-009  0.1452013E+03  0.7561462E-02  0.1206497E+00
          1   -1    0    0  501    0  0.00000000000E+00  0.00000000000E+00  0.39077332740E+03  0.39077332740E+03  0.00000000000E+00 0. -1.
         -1   -1    0    0    0  501 -0.00000000000E+00 -0.00000000000E+00 -0.72889670287E+02  0.72889670287E+02  0.00000000000E+00 0.  1.
         25    2    1    2    0    0  0.48645875791E+02  0.10412367373E+03  0.87041521921E+02  0.19088243523E+03  0.12510682187E+03 0.  0.
          5    1    3    3  502    0  0.77622691030E+02  0.88295885227E+02  0.24686148092E+02  0.12020118060E+03  0.41800000000E+01 0. -1.
         -5    1    3    3    0  502 -0.28976815239E+02  0.15827788502E+02  0.62355373830E+02  0.70681254627E+02  0.41800000000E+01 0. -1.
        -11    1    1    2    0    0 -0.52632724233E+02 -0.11576987709E+03  0.17950633923E+03  0.21998953140E+03  0.00000000000E+00 0.  1.
         11    1    1    2    0    0  0.39868484418E+01  0.11646203359E+02  0.51335795962E+02  0.52791031059E+02  0.00000000000E+00 0. -1.
</event>
<event>
 7    1  0.2693725E-009  0.1054168E+03  0.7561462E-02  0.1269301E+00
         -1   -1    0    0    0  501 -0.00000000000E+00  0.00000000000E+00  0.22820222501E+03  0.22820222501E+03  0.00000000000E+00 0.  1.
          1   -1    0    0  501    0  0.00000000000E+00 -0.00000000000E+00 -0.65198491834E+02  0.65198491834E+02  0.00000000000E+00 0. -1.
         25    2    1    2    0    0 -0.28515896596E+02 -0.38148442042E+02  0.67979230045E+02  0.15012196076E+03  0.12508783872E+03 0.  0.
          5    1    3    3  502    0 -0.36240011417E+02  0.35740446102E+02  0.54158794556E+02  0.74440347546E+02  0.41800000000E+01 0. -1.
         -5    1    3    3    0  502  0.77241148206E+01 -0.73888888144E+02  0.13820435489E+02  0.75681613210E+02  0.41800000000E+01 0. -1.
        -11    1    1    2    0    0 -0.23853179190E+02  0.96339601659E+01  0.76697896781E+02  0.80897186086E+02  0.00000000000E+00 0.  1.
         11    1    1    2    0    0  0.52369075786E+02  0.28514481876E+02  0.18326606345E+02  0.62381569999E+02  0.00000000000E+00 0. -1.
</event>
<event>
 7    1  0.2693725E-009  0.1013834E+03  0.7561462E-02  0.1277413E+00
          2   -1    0    0  501    0  0.00000000000E+00  0.00000000000E+00  0.29153090769E+03  0.29153090769E+03  0.00000000000E+00 0. -1.
         -2   -1    0    0    0  501 -0.00000000000E+00 -0.00000000000E+00 -0.48119142900E+02  0.48119142900E+02  0.00000000000E+00 0.  1.
         25    2    1    2    0    0 -0.35851619165E+02 -0.30871322574E+02  0.12609825474E+03  0.18381141527E+03  0.12508992517E+03 0.  0.
          5    1    3    3  502    0 -0.63921673680E+02 -0.36372986160E+02  0.13480639829E+03  0.15362034992E+03  0.41800000000E+01 0. -1.
         -5    1    3    3    0  502  0.28070054515E+02  0.55016635857E+01 -0.87081435552E+01  0.30191065348E+02  0.41800000000E+01 0. -1.
        -11    1    1    2    0    0  0.64870712237E+02  0.29164987581E+02  0.66898318230E+02  0.97643180963E+02  0.00000000000E+00 0.  1.
         11    1    1    2    0    0 -0.29019093071E+02  0.17063349936E+01  0.50415191820E+02  0.58195454359E+02  0.00000000000E+00 0. -1.
</event>
<event>
 7    1  0.3119615E-009  0.1509184E+03  0.7561462E-02  0.1199349E+00
          2   -1    0    0  501    0  0.00000000000E+00  0.00000000000E+00  0.24321405797E+03  0.24321405797E+03  0.00000000000E+00 0.  1.
         -2   -1    0    0    0  501 -0.00000000000E+00 -0.00000000000E+00 -0.11105598101E+03  0.11105598101E+03  0.00000000000E+00 0. -1.
         25    2    1    2    0    0 -0.55542737957E+02 -0.90129564538E+02  0.31782402127E+01  0.16390874586E+03  0.12509053367E+03 0.  0.
          5    1    3    3  502    0  0.38926745699E+02 -0.17284301134E+02 -0.96013839671E+01  0.43859976864E+02  0.41800000000E+01 0. -1.
         -5    1    3    3    0  502 -0.94469483656E+02 -0.72845263404E+02  0.12779624180E+02  0.12004876899E+03  0.41800000000E+01 0. -1.
        -11    1    1    2    0    0 -0.23252810767E+02  0.52107348222E+01  0.17270139859E+02  0.29429622776E+02  0.00000000000E+00 0.  1.
         11    1    1    2    0    0  0.78795548725E+02  0.84918829715E+02  0.11170969689E+03  0.16093167034E+03  0.00000000000E+00 0. -1.
</event>
<event>
 7    1  0.2693725E-009  0.1535612E+03  0.7561462E-02  0.1196164E+00
          1   -1    0    0  501    0  0.00000000000E+00  0.00000000000E+00  0.16275663675E+04  0.16275663675E+04  0.00000000000E+00 0. -1.
         -1   -1    0    0    0  501 -0.00000000000E+00 -0.00000000000E+00 -0.24479998858E+02  0.24479998858E+02  0.00000000000E+00 0.  1.
         25    2    1    2    0    0  0.92793609340E+02  0.90285051889E+02  0.12700328202E+04  0.12827286951E+04  0.12508995211E+03 0.  0.
          5    1    3    3  502    0  0.74782342507E+02  0.13992108407E+02  0.30000923634E+03  0.30953383036E+03  0.41800000000E+01 0. -1.
         -5    1    3    3    0  502  0.18011266833E+02  0.76292943482E+02  0.97002358391E+03  0.97319486471E+03  0.41800000000E+01 0. -1.
        -11    1    1    2    0    0 -0.20237690865E+02 -0.75778140428E+02  0.11624777248E+03  0.14023350279E+03  0.00000000000E+00 0.  1.
         11    1    1    2    0    0 -0.72555918475E+02 -0.14506911460E+02  0.21680577589E+03  0.22908416847E+03  0.00000000000E+00 0. -1.
</event>
<event>
 7    1  0.2693725E-009  0.8998721E+02  0.7561462E-02  0.1302883E+00
         -1   -1    0    0    0  501 -0.00000000000E+00  0.00000000000E+00  0.26289623102E+02  0.26289623102E+02  0.00000000000E+00 0.  1.
          1   -1    0    0  501    0  0.00000000000E+00 -0.00000000000E+00 -0.54382218662E+03  0.54382218662E+03  0.00000000000E+00 0. -1.
         25    2    1    2    0    0 -0.13221755789E+01  0.20037272094E+02 -0.18847587748E+03  0.22710054356E+03  0.12509300569E+03 0.  0.
          5    1    3    3  502    0 -0.17946111410E+02 -0.27242019048E+02 -0.90106737917E+00  0.32900985380E+02  0.41800000000E+01 0. -1.
         -5    1    3    3    0  502  0.16623935831E+02  0.47279291141E+02 -0.18757481010E+03  0.19419955818E+03  0.41800000000E+01 0. -1.
        -11    1    1    2    0    0 -0.66538294761E+01  0.37814794837E+02 -0.12531931987E+03  0.13106931025E+03  0.00000000000E+00 0. -1.
         11    1    1    2    0    0  0.79760050551E+01 -0.57852066931E+02 -0.20373736616E+03  0.21194195591E+03  0.00000000000E+00 0.  1.
</event>
<event>
 7    1  0.2693725E-009  0.2158971E+03  0.7561462E-02  0.1136979E+00
         -1   -1    0    0    0  501 -0.00000000000E+00  0.00000000000E+00  0.13428701743E+03  0.13428701743E+03  0.00000000000E+00 0.  1.
          1   -1    0    0  501    0  0.00000000000E+00 -0.00000000000E+00 -0.80956284636E+03  0.80956284636E+03  0.00000000000E+00 0. -1.
         25    2    1    2    0    0  0.17482404674E+03 -0.75962461172E+02  0.85061927193E+01  0.22815353082E+03  0.12509170830E+03 0.  0.
          5    1    3    3  502    0  0.31885889046E+02  0.34574236210E+02  0.11665049912E+00  0.47218362287E+02  0.41800000000E+01 0. -1.
         -5    1    3    3    0  502  0.14293815769E+03 -0.11053669738E+03  0.83895422202E+01  0.18093516853E+03  0.41800000000E+01 0. -1.
        -11    1    1    2    0    0 -0.13968954983E+03  0.89811344439E+02 -0.46699900646E+03  0.49564838339E+03  0.00000000000E+00 0. -1.
         11    1    1    2    0    0 -0.35134496905E+02 -0.13848883267E+02 -0.21678301518E+03  0.22004794957E+03  0.00000000000E+00 0.  1.
</event>
<event>
 7    1  0.2693725E-009  0.3211036E+03  0.7561462E-02  0.1075142E+00
         -2   -1    0    0    0  501 -0.00000000000E+00  0.00000000000E+00  0.10146286608E+03  0.10146286608E+03  0.00000000000E+00 0.  1.
          2   -1    0    0  501    0  0.00000000000E+00 -0.00000000000E+00 -0.10567762862E+04  0.10567762862E+04  0.00000000000E+00 0. -1.
         25    2    1    2    0    0 -0.12816096608E+03 -0.28051403763E+03 -0.51407968889E+03  0.61240352372E+03  0.12508713287E+03 0.  0.
          5    1    3    3  502    0 -0.20776681317E+02  0.88248837187E+01 -0.23867435581E+02  0.33116097905E+02  0.41800000000E+01 0. -1.
         -5    1    3    3    0  502 -0.10738428476E+03 -0.28933892135E+03 -0.49021225331E+03  0.57928742582E+03  0.41800000000E+01 0. -1.
        -11    1    1    2    0    0  0.99538544269E+02  0.17559318225E+03 -0.34932345710E+03  0.40344487248E+03  0.00000000000E+00 0. -1.
         11    1    1    2    0    0  0.28622421806E+02  0.10492085538E+03 -0.91910274147E+02  0.14239075608E+03  0.00000000000E+00 0.  1.
</event>
<event>
 7    1  0.2693725E-009  0.8607074E+02  0.7561462E-02  0.1312656E+00
         -1   -1    0    0    0  501 -0.00000000000E+00  0.00000000000E+00  0.13154227274E+02  0.13154227274E+02  0.00000000000E+00 0.  1.
          1   -1    0    0  501    0  0.00000000000E+00 -0.00000000000E+00 -0.11639928525E+04  0.11639928525E+04  0.00000000000E+00 0. -1.
         25    2    1    2    0    0  0.52921944887E+02  0.49967733079E+01 -0.77940963398E+03  0.79117212951E+03  0.12509300928E+03 0.  0.
          5    1    3    3  502    0 -0.95469007006E+01  0.10738233829E+02 -0.75586798156E+01  0.16764814920E+02  0.41800000000E+01 0.  1.
         -5    1    3    3    0  502  0.62468845588E+02 -0.57414605212E+01 -0.77185095417E+03  0.77440731459E+03  0.41800000000E+01 0.  1.
        -11    1    1    2    0    0 -0.90029898962E+01 -0.38201272709E+02 -0.76820032259E+02  0.86265337303E+02  0.00000000000E+00 0.  1.
         11    1    1    2    0    0 -0.43918954991E+02  0.33204499402E+02 -0.29460895895E+03  0.29970961293E+03  0.00000000000E+00 0. -1.
</event>
<event>
 7    1  0.2693725E-009  0.9547598E+02  0.7561462E-02  0.1290108E+00
          2   -1    0    0  501    0  0.00000000000E+00  0.00000000000E+00  0.22114987139E+03  0.22114987139E+03  0.00000000000E+00 0. -1.
         -2   -1    0    0    0  501 -0.00000000000E+00 -0.00000000000E+00 -0.10621614882E+03  0.10621614882E+03  0.00000000000E+00 0.  1.
         25    2    1    2    0    0 -0.35567771501E+02 -0.21814925027E+02  0.17014302875E+03  0.21525957145E+03  0.12508827102E+03 0.  0.
          5    1    3    3  502    0  0.23437960620E+02 -0.24801026604E+02 -0.75687541116E+00  0.34387122285E+02  0.41800000000E+01 0. -1.
         -5    1    3    3    0  502 -0.59005732121E+02  0.29861015769E+01  0.17089990416E+03  0.18087244917E+03  0.41800000000E+01 0. -1.
        -11    1    1    2    0    0  0.52353992006E+02  0.44783909531E+02 -0.35557829849E+02  0.77529983202E+02  0.00000000000E+00 0. -1.
         11    1    1    2    0    0 -0.16786220505E+02 -0.22968984504E+02 -0.19651476332E+02  0.34576465551E+02  0.00000000000E+00 0.  1.
</event>
<event>
 7    1  0.2693725E-009  0.1369648E+03  0.7561462E-02  0.1217472E+00
          2   -1    0    0  501    0  0.00000000000E+00  0.00000000000E+00  0.10503290050E+03  0.10503290050E+03  0.00000000000E+00 0. -1.
         -2   -1    0    0    0  501 -0.00000000000E+00 -0.00000000000E+00 -0.19934327028E+03  0.19934327028E+03  0.00000000000E+00 0.  1.
         25    2    1    2    0    0 -0.55581480074E+02 -0.67201651196E+02 -0.91429425747E+02  0.17780491586E+03  0.12509950183E+03 0.  0.
          5    1    3    3  502    0 -0.73469385848E+02  0.43964502083E+01 -0.23391600006E+02  0.77341572146E+02  0.41800000000E+01 0. -1.
         -5    1    3    3    0  502  0.17887905773E+02 -0.71598101404E+02 -0.68037825741E+02  0.10046334371E+03  0.41800000000E+01 0. -1.
        -11    1    1    2    0    0  0.15966128465E+02 -0.22871532205E+02  0.26318762981E+01  0.28016977289E+02  0.00000000000E+00 0.  1.
         11    1    1    2    0    0  0.39615351609E+02  0.90073183400E+02 -0.55128203313E+01  0.98554277629E+02  0.00000000000E+00 0. -1.
</event>
<event>
 7    1  0.2693725E-009  0.9810927E+02  0.7561462E-02  0.1284323E+00
         -1   -1    0    0    0  501 -0.00000000000E+00  0.00000000000E+00  0.30703846921E+03  0.30703846921E+03  0.00000000000E+00 0.  1.
          1   -1    0    0  501    0  0.00000000000E+00 -0.00000000000E+00 -0.61669333850E+02  0.61669333850E+02  0.00000000000E+00 0. -1.
         25    2    1    2    0    0  0.61251443755E+02 -0.50379072632E+02  0.97700240851E+02  0.17743669690E+03  0.12509458032E+03 0.  0.
          5    1    3    3  502    0  0.49240086245E+02  0.25188469321E+01  0.11091300714E+03  0.12144998244E+03  0.41800000000E+01 0.  1.
         -5    1    3    3    0  502  0.12011357510E+02 -0.52897919564E+02 -0.13212766284E+02  0.55986714463E+02  0.41800000000E+01 0.  1.
        -11    1    1    2    0    0 -0.69241211205E+02  0.43362507511E+02  0.15708989045E+03  0.17706463810E+03  0.00000000000E+00 0.  1.
         11    1    1    2    0    0  0.79897674498E+01  0.70165651216E+01 -0.94209959374E+01  0.14206468050E+02  0.00000000000E+00 0. -1.
</event>
<event>
 7    1  0.2693725E-009  0.1129532E+03  0.7561462E-02  0.1255197E+00
          2   -1    0    0  501    0  0.00000000000E+00  0.00000000000E+00  0.90600057211E+02  0.90600057211E+02  0.00000000000E+00 0.  1.
         -2   -1    0    0    0  501 -0.00000000000E+00 -0.00000000000E+00 -0.26617962807E+03  0.26617962807E+03  0.00000000000E+00 0. -1.
         25    2    1    2    0    0 -0.43828196829E+01  0.64492928889E+02  0.83398652389E+01  0.14105249990E+03  0.12509079659E+03 0.  0.
          5    1    3    3  502    0 -0.57618603268E+02  0.46136267627E+02  0.31053361638E+02  0.80188791624E+02  0.41800000000E+01 0. -1.
         -5    1    3    3    0  502  0.53235783585E+02  0.18356661262E+02 -0.22713496399E+02  0.60863708278E+02  0.41800000000E+01 0. -1.
        -11    1    1    2    0    0  0.36676843116E+02 -0.24514134687E+02 -0.29728349517E+02  0.53196883231E+02  0.00000000000E+00 0.  1.
         11    1    1    2    0    0 -0.32294023433E+02 -0.39978794201E+02 -0.15419108658E+03  0.16253030215E+03  0.00000000000E+00 0. -1.
</event>
<event>
 7    1  0.2693725E-009  0.8860883E+02  0.7561462E-02  0.1306256E+00
          1   -1    0    0  501    0  0.00000000000E+00  0.00000000000E+00  0.51937478843E+03  0.51937478843E+03  0.00000000000E+00 0. -1.
         -1   -1    0    0    0  501 -0.00000000000E+00 -0.00000000000E+00 -0.30848194401E+02  0.30848194401E+02  0.00000000000E+00 0.  1.
         25    2    1    2    0    0 -0.55080080661E+02  0.34062934316E+02  0.25941854387E+03  0.29519352554E+03  0.12508852002E+03 0.  0.
          5    1    3    3  502    0 -0.29582281938E+02  0.37650427528E+01 -0.25460622730E+01  0.30219890548E+02  0.41800000000E+01 0. -1.
         -5    1    3    3    0  502 -0.25497798723E+02  0.30297891563E+02  0.26196460614E+03  0.26497363500E+03  0.41800000000E+01 0. -1.
        -11    1    1    2    0    0  0.65891303166E+02 -0.53612045508E+02  0.14543715946E+03  0.16842767768E+03  0.00000000000E+00 0.  1.
         11    1    1    2    0    0 -0.10811222505E+02  0.19549111192E+02  0.83670890706E+02  0.86601779612E+02  0.00000000000E+00 0. -1.
</event>
<event>
 7    1  0.2693725E-009  0.8829472E+02  0.7561462E-02  0.1307035E+00
         -1   -1    0    0    0  501 -0.00000000000E+00  0.00000000000E+00  0.72671938114E+02  0.72671938114E+02  0.00000000000E+00 0.  1.
          1   -1    0    0  501    0  0.00000000000E+00 -0.00000000000E+00 -0.20554900326E+03  0.20554900326E+03  0.00000000000E+00 0. -1.
         25    2    1    2    0    0 -0.29321641979E+02 -0.45961954365E+02 -0.80229757076E+02  0.15829282273E+03  0.12509014298E+03 0.  0.
          5    1    3    3  502    0 -0.27848656655E+01 -0.65698525820E+02  0.56876984853E+01  0.66135271117E+02  0.41800000000E+01 0. -1.
         -5    1    3    3    0  502 -0.26536776313E+02  0.19736571454E+02 -0.85917455561E+02  0.92157551617E+02  0.41800000000E+01 0. -1.
        -11    1    1    2    0    0  0.39233929236E+02  0.52462738491E+02 -0.71931348829E+02  0.97292132660E+02  0.00000000000E+00 0. -1.
         11    1    1    2    0    0 -0.99122872579E+01 -0.65007841254E+01  0.19284040763E+02  0.22635985976E+02  0.00000000000E+00 0.  1.
</event>
<event>
 7    1  0.2693725E-009  0.1374625E+03  0.7561462E-02  0.1216785E+00
         -2   -1    0    0    0  501 -0.00000000000E+00  0.00000000000E+00  0.34735533210E+02  0.34735533210E+02  0.00000000000E+00 0. -1.
          2   -1    0    0  501    0  0.00000000000E+00 -0.00000000000E+00 -0.75601436193E+03  0.75601436193E+03  0.00000000000E+00 0.  1.
         25    2    1    2    0    0 -0.73066098802E+02  0.91851011993E+02 -0.45336990021E+03  0.48473431627E+03  0.12509127771E+03 0.  0.
          5    1    3    3  502    0  0.97491058496E+01  0.70131558877E+02 -0.30722254161E+03  0.31530404864E+03  0.41800000000E+01 0.  1.
         -5    1    3    3    0  502 -0.82815204652E+02  0.21719453115E+02 -0.14614735860E+03  0.16943026763E+03  0.41800000000E+01 0.  1.
        -11    1    1    2    0    0  0.25671451537E+02 -0.21683537402E+02 -0.18315369312E+03  0.18621083353E+03  0.00000000000E+00 0.  1.
         11    1    1    2    0    0  0.47394647266E+02 -0.70167474590E+02 -0.84755235387E+02  0.11980474534E+03  0.00000000000E+00 0. -1.
</event>
<event>
 7    1  0.2693725E-009  0.8717865E+02  0.7561462E-02  0.1309831E+00
          1   -1    0    0  501    0  0.00000000000E+00  0.00000000000E+00  0.40255835334E+02  0.40255835334E+02  0.00000000000E+00 0. -1.
         -1   -1    0    0    0  501 -0.00000000000E+00 -0.00000000000E+00 -0.38209910409E+03  0.38209910409E+03  0.00000000000E+00 0.  1.
         25    2    1    2    0    0 -0.12545595700E+02  0.24767007200E+02 -0.27561201857E+03  0.30394194604E+03  0.12509166704E+03 0.  0.
          5    1    3    3  502    0 -0.60604270021E+02  0.19155102155E+02 -0.79311755280E+02  0.10172326385E+03  0.41800000000E+01 0. -1.
         -5    1    3    3    0  502  0.48058674321E+02  0.56119050444E+01 -0.19630026329E+03  0.20221868218E+03  0.41800000000E+01 0. -1.
        -11    1    1    2    0    0  0.33299625929E+02 -0.54504011076E+01 -0.80050898615E+02  0.86871850034E+02  0.00000000000E+00 0.  1.
         11    1    1    2    0    0 -0.20754030228E+02 -0.19316606092E+02  0.13819648427E+02  0.31541143357E+02  0.00000000000E+00 0. -1.
</event>
<event>
 7    1  0.2693725E-009  0.1062990E+03  0.7561462E-02  0.1267581E+00
         -1   -1    0    0    0  501 -0.00000000000E+00  0.00000000000E+00  0.27980930639E+03  0.27980930639E+03  0.00000000000E+00 0.  1.
          1   -1    0    0  501    0  0.00000000000E+00 -0.00000000000E+00 -0.10092618683E+03  0.10092618683E+03  0.00000000000E+00 0. -1.
         25    2    1    2    0    0  0.47577245255E+02  0.41078349635E+02  0.22240999500E+03  0.26279831507E+03  0.12508286633E+03 0.  0.
          5    1    3    3  502    0 -0.22969362310E+02  0.16306299764E+02  0.38032534400E+00  0.28479888769E+02  0.41800000000E+01 0.  1.
         -5    1    3    3    0  502  0.70546607565E+02  0.24772049871E+02  0.22202966966E+03  0.23431842630E+03  0.41800000000E+01 0.  1.
        -11    1    1    2    0    0 -0.31079805088E+02  0.25774129368E+02 -0.20844294079E+02  0.45439461096E+02  0.00000000000E+00 0. -1.
         11    1    1    2    0    0 -0.16497440166E+02 -0.66852479003E+02 -0.22682581363E+02  0.72497717055E+02  0.00000000000E+00 0.  1.
</event>
<event>
 7    1  0.2693725E-009  0.1180489E+03  0.7561462E-02  0.1246351E+00
          1   -1    0    0  501    0  0.00000000000E+00  0.00000000000E+00  0.46761040376E+02  0.46761040376E+02  0.00000000000E+00 0. -1.
         -1   -1    0    0    0  501 -0.00000000000E+00 -0.00000000000E+00 -0.31533109587E+03  0.31533109587E+03  0.00000000000E+00 0.  1.
         25    2    1    2    0    0  0.27364518705E+02 -0.38814763665E+02 -0.11124620708E+03  0.17400792149E+03  0.12509050880E+03 0.  0.
          5    1    3    3  502    0  0.78783089159E+01  0.45831717738E+02 -0.34975533386E+02  0.58338447338E+02  0.41800000000E+01 0.  1.
         -5    1    3    3    0  502  0.19486209789E+02 -0.84646481403E+02 -0.76270673695E+02  0.11566947416E+03  0.41800000000E+01 0.  1.
        -11    1    1    2    0    0 -0.58295937004E+02  0.41256294399E+02 -0.99732433774E+02  0.12266644384E+03  0.00000000000E+00 0. -1.
         11    1    1    2    0    0  0.30931418299E+02 -0.24415307340E+01 -0.57591414639E+02  0.65417770907E+02  0.00000000000E+00 0.  1.
</event>
<event>
 7    1  0.2693725E-009  0.6822768E+02  0.7561462E-02  0.1366226E+00
          2   -1    0    0  501    0  0.00000000000E+00  0.00000000000E+00  0.25613613379E+02  0.25613613379E+02  0.00000000000E+00 0. -1.
         -2   -1    0    0    0  501 -0.00000000000E+00 -0.00000000000E+00 -0.50479293047E+03  0.50479293047E+03  0.00000000000E+00 0.  1.
         25    2    1    2    0    0  0.23321708915E+02 -0.23439404381E+02 -0.30894466526E+03  0.33494314058E+03  0.12508714341E+03 0.  0.
          5    1    3    3  502    0 -0.26020687547E+02  0.31336336443E+01 -0.65037189213E+01  0.27325200824E+02  0.41800000000E+01 0.  1.
         -5    1    3    3    0  502  0.49342396462E+02 -0.26573038026E+02 -0.30244094634E+03  0.30761793976E+03  0.41800000000E+01 0.  1.
        -11    1    1    2    0    0 -0.32791707607E+02  0.28079522965E+02 -0.17748874884E+03  0.18266365720E+03  0.00000000000E+00 0.  1.
         11    1    1    2    0    0  0.94699986917E+01 -0.46401185833E+01  0.72540970142E+01  0.12799746059E+02  0.00000000000E+00 0. -1.
</event>
<event>
 7    1  0.2693725E-009  0.1093470E+03  0.7561462E-02  0.1261784E+00
          2   -1    0    0  501    0  0.00000000000E+00  0.00000000000E+00  0.13448545888E+04  0.13448545888E+04  0.00000000000E+00 0.  1.
         -2   -1    0    0    0  501 -0.00000000000E+00 -0.00000000000E+00 -0.14676471881E+02  0.14676471881E+02  0.00000000000E+00 0. -1.
         25    2    1    2    0    0 -0.40814226166E+02  0.36152295815E+02  0.10858149940E+04  0.10943557894E+04  0.12509037896E+03 0.  0.
          5    1    3    3  502    0 -0.77687621371E+02 -0.15958634899E+01  0.48381507737E+03  0.49003307519E+03  0.41800000000E+01 0. -1.
         -5    1    3    3    0  502  0.36873395205E+02  0.37748159305E+02  0.60199991667E+03  0.60432271418E+03  0.41800000000E+01 0. -1.
        -11    1    1    2    0    0  0.17045179151E+02 -0.55017587151E+02  0.21631756058E+03  0.22385432773E+03  0.00000000000E+00 0.  1.
         11    1    1    2    0    0  0.23769047014E+02  0.18865291336E+02  0.28045562298E+02  0.41320943573E+02  0.00000000000E+00 0. -1.
</event>
<event>
 7    1  0.2693725E-009  0.1310732E+03  0.7561462E-02  0.1225872E+00
         -1   -1    0    0    0  501 -0.00000000000E+00  0.00000000000E+00  0.42178417601E+02  0.42178417601E+02  0.00000000000E+00 0.  1.
          1   -1    0    0  501    0  0.00000000000E+00 -0.00000000000E+00 -0.49627936721E+03  0.49627936721E+03  0.00000000000E+00 0. -1.
         25    2    1    2    0    0  0.83854682377E+02  0.37173852034E+02 -0.21313626780E+03  0.26360738973E+03  0.12509310229E+03 0.  0.
          5    1    3    3  502    0  0.48296722354E+02 -0.34008292288E+02 -0.35810169582E+02  0.69202442009E+02  0.41800000000E+01 0.  1.
         -5    1    3    3    0  502  0.35557960023E+02  0.71182144322E+02 -0.17732609822E+03  0.19440494772E+03  0.41800000000E+01 0.  1.
        -11    1    1    2    0    0  0.13122719189E+02  0.89291994660E+01 -0.78627803745E+02  0.80213888347E+02  0.00000000000E+00 0. -1.
         11    1    1    2    0    0 -0.96977401566E+02 -0.46103051500E+02 -0.16233687807E+03  0.19463650673E+03  0.00000000000E+00 0.  1.
</event>
<event>
 7    1  0.2693725E-009  0.2187904E+03  0.7561462E-02  0.1134788E+00
         -1   -1    0    0    0  501 -0.00000000000E+00  0.00000000000E+00  0.41930799182E+03  0.41930799182E+03  0.00000000000E+00 0. -1.
          1   -1    0    0  501    0  0.00000000000E+00 -0.00000000000E+00 -0.13948119102E+03  0.13948119102E+03  0.00000000000E+00 0.  1.
         25    2    1    2    0    0 -0.18791446195E+03 -0.44864826037E+02  0.26059403866E+03  0.34767964837E+03  0.12508871764E+03 0.  0.
          5    1    3    3  502    0 -0.39010209294E+02 -0.68677005963E+02  0.82679806015E+02  0.11441918676E+03  0.41800000000E+01 0.  1.
         -5    1    3    3    0  502 -0.14890425265E+03  0.23812179926E+02  0.17791423265E+03  0.23326046161E+03  0.41800000000E+01 0.  1.
        -11    1    1    2    0    0  0.12970490651E+03 -0.66873750220E+01 -0.40572215654E+01  0.12994054335E+03  0.00000000000E+00 0.  1.
         11    1    1    2    0    0  0.58209555435E+02  0.51552201059E+02  0.23289983700E+02  0.81168991116E+02  0.00000000000E+00 0. -1.
</event>
<event>
 7    1  0.2693725E-009  0.9327794E+02  0.7561462E-02  0.1295102E+00
         -1   -1    0    0    0  501 -0.00000000000E+00  0.00000000000E+00  0.58478954228E+02  0.58478954228E+02  0.00000000000E+00 0.  1.
          1   -1    0    0  501    0  0.00000000000E+00 -0.00000000000E+00 -0.27166811771E+03  0.27166811771E+03  0.00000000000E+00 0. -1.
         25    2    1    2    0    0 -0.27571624867E+02 -0.36426098357E+02 -0.17010666579E+03  0.21603134567E+03  0.12508480893E+03 0.  0.
          5    1    3    3  502    0 -0.71684718752E+02 -0.49175286605E+02 -0.10911369941E+03  0.13957141367E+03  0.41800000000E+01 0.  1.
         -5    1    3    3    0  502  0.44113093885E+02  0.12749188248E+02 -0.60992966377E+02  0.76459931994E+02  0.41800000000E+01 0.  1.
        -11    1    1    2    0    0  0.16701383146E+02  0.38842610814E+02  0.22293334768E+02  0.47798299017E+02  0.00000000000E+00 0.  1.
         11    1    1    2    0    0  0.10870241721E+02 -0.24165124568E+01 -0.65375832464E+02  0.66317427256E+02  0.00000000000E+00 0. -1.
</event>
<event>
 7    1  0.2693725E-009  0.1099439E+03  0.7561462E-02  0.1260674E+00
         -1   -1    0    0    0  501 -0.00000000000E+00  0.00000000000E+00  0.79603669134E+03  0.79603669134E+03  0.00000000000E+00 0.  1.
          1   -1    0    0  501    0  0.00000000000E+00 -0.00000000000E+00 -0.23022315616E+02  0.23022315616E+02  0.00000000000E+00 0. -1.
         25    2    1    2    0    0  0.70014207373E+02 -0.34889782872E+02  0.49211928489E+03  0.51375848487E+03  0.12508838488E+03 0.  0.
          5    1    3    3  502    0  0.28044620780E+02 -0.58731503782E+02  0.10490557000E+03  0.12352546825E+03  0.41800000000E+01 0. -1.
         -5    1    3    3    0  502  0.41969586593E+02  0.23841720911E+02  0.38721371489E+03  0.39023301661E+03  0.41800000000E+01 0. -1.
        -11    1    1    2    0    0 -0.33102234295E+02 -0.21029363492E+02  0.43216093385E+02  0.58357713901E+02  0.00000000000E+00 0. -1.
         11    1    1    2    0    0 -0.36911973078E+02  0.55919146364E+02  0.23767899745E+03  0.24694280819E+03  0.00000000000E+00 0.  1.
</event>
<event>
 7    1  0.2693725E-009  0.1689474E+03  0.7561462E-02  0.1178950E+00
         -2   -1    0    0    0  501 -0.00000000000E+00  0.00000000000E+00  0.32285747467E+02  0.32285747467E+02  0.00000000000E+00 0.  1.
          2   -1    0    0  501    0  0.00000000000E+00 -0.00000000000E+00 -0.10655426265E+04  0.10655426265E+04  0.00000000000E+00 0. -1.
         25    2    1    2    0    0 -0.65542017240E+02  0.11947776802E+03 -0.35577862381E+03  0.40099465255E+03  0.12509032393E+03 0.  0.
          5    1    3    3  502    0  0.10305435964E+02 -0.21517194358E+02 -0.36606316357E+02  0.43894036733E+02  0.41800000000E+01 0.  1.
         -5    1    3    3    0  502 -0.75847453204E+02  0.14099496238E+03 -0.31917230745E+03  0.35710061582E+03  0.41800000000E+01 0.  1.
        -11    1    1    2    0    0  0.41286629136E+02 -0.11512635558E+02 -0.99205474040E+02  0.10806874017E+03  0.00000000000E+00 0.  1.
         11    1    1    2    0    0  0.24255388104E+02 -0.10796513247E+03 -0.57827278118E+03  0.58876498123E+03  0.00000000000E+00 0. -1.
</event>
<event>
 7    1  0.2693725E-009  0.1492025E+03  0.7561462E-02  0.1201456E+00
         -2   -1    0    0    0  501 -0.00000000000E+00  0.00000000000E+00  0.55968317862E+02  0.55968317862E+02  0.00000000000E+00 0.  1.
          2   -1    0    0  501    0  0.00000000000E+00 -0.00000000000E+00 -0.55652552913E+03  0.55652552913E+03  0.00000000000E+00 0. -1.
         25    2    1    2    0    0 -0.12269905457E+03 -0.42904501379E+01 -0.15367564972E+03  0.23310289634E+03  0.12508912427E+03 0.  0.
          5    1    3    3  502    0 -0.10520787191E+03 -0.56270805982E+02 -0.94033784359E+02  0.15197014482E+03  0.41800000000E+01 0.  1.
         -5    1    3    3    0  502 -0.17491182667E+02  0.51980355844E+02 -0.59641865357E+02  0.81132751513E+02  0.41800000000E+01 0.  1.
        -11    1    1    2    0    0  0.81606440539E+02  0.11121755524E+02 -0.10252555142E+03  0.13150966990E+03  0.00000000000E+00 0.  1.
         11    1    1    2    0    0  0.41092614035E+02 -0.68313053856E+01 -0.24435601013E+03  0.24788128075E+03  0.00000000000E+00 0. -1.
</event>
<event>
 7    1  0.3038558E-009  0.1921033E+03  0.7561462E-02  0.1156578E+00
          1   -1    0    0  501    0  0.00000000000E+00  0.00000000000E+00  0.89763051185E+03  0.89763051185E+03  0.00000000000E+00 0. -1.
         -1   -1    0    0    0  501 -0.00000000000E+00 -0.00000000000E+00 -0.51584593885E+02  0.51584593885E+02  0.00000000000E+00 0.  1.
         25    2    1    2    0    0 -0.47691987089E+02 -0.16782603113E+03  0.58025697895E+03  0.61869701895E+03  0.12509091605E+03 0.  0.
          5    1    3    3  502    0 -0.45012726867E+02 -0.18540249169E+03  0.55897231119E+03  0.59065027435E+03  0.41800000000E+01 0.  1.
         -5    1    3    3    0  502 -0.26792602222E+01  0.17576460561E+02  0.21284667755E+02  0.28046744600E+02  0.41800000000E+01 0.  1.
        -11    1    1    2    0    0  0.16861012842E+02  0.36420649725E+02  0.10092328118E+02  0.41383723458E+02  0.00000000000E+00 0.  1.
         11    1    1    2    0    0  0.30830974248E+02  0.13140538140E+03  0.25569661090E+03  0.28913436334E+03  0.00000000000E+00 0. -1.
</event>
<event>
 7    1  0.2693725E-009  0.1029112E+03  0.7561462E-02  0.1274290E+00
          2   -1    0    0  501    0  0.00000000000E+00  0.00000000000E+00  0.12350450883E+04  0.12350450883E+04  0.00000000000E+00 0. -1.
         -2   -1    0    0    0  501 -0.00000000000E+00 -0.00000000000E+00 -0.14296114907E+02  0.14296114907E+02  0.00000000000E+00 0.  1.
         25    2    1    2    0    0 -0.68155914912E+01 -0.38359423444E+02  0.99692930415E+03  0.10055014373E+04  0.12508878936E+03 0.  0.
          5    1    3    3  502    0 -0.67637021947E+01 -0.82479561642E+02  0.75623805737E+03  0.76076415371E+03  0.41800000000E+01 0.  1.
         -5    1    3    3    0  502 -0.51889296559E-01  0.44120138198E+02  0.24069124678E+03  0.24473728355E+03  0.41800000000E+01 0.  1.
        -11    1    1    2    0    0 -0.20890445899E+02 -0.98058531519E+01  0.14463518457E+02  0.27235250174E+02  0.00000000000E+00 0.  1.
         11    1    1    2    0    0  0.27706037390E+02  0.48165276596E+02  0.20935615081E+03  0.21660451579E+03  0.00000000000E+00 0. -1.
</event>
<event>
 7    1  0.2693725E-009  0.3023777E+03  0.7561462E-02  0.1084058E+00
          2   -1    0    0  501    0  0.00000000000E+00  0.00000000000E+00  0.22539825389E+04  0.22539825389E+04  0.00000000000E+00 0. -1.
         -2   -1    0    0    0  501 -0.00000000000E+00 -0.00000000000E+00 -0.41984788958E+02  0.41984788958E+02  0.00000000000E+00 0.  1.
         25    2    1    2    0    0 -0.77814764930E+02 -0.27656851472E+03  0.11593408005E+04  0.12009425288E+04  0.12508630946E+03 0.  0.
          5    1    3    3  502    0  0.13276559836E+02 -0.14097993662E+03  0.67741311262E+03  0.69206763190E+03  0.41800000000E+01 0.  1.
         -5    1    3    3    0  502 -0.91091324766E+02 -0.13558857810E+03  0.48192768790E+03  0.50887489693E+03  0.41800000000E+01 0.  1.
        -11    1    1    2    0    0 -0.33385695957E+01  0.14545939112E+03  0.57353038152E+03  0.59169813169E+03  0.00000000000E+00 0.  1.
         11    1    1    2    0    0  0.81153334526E+02  0.13110912360E+03  0.47912656795E+03  0.50332666740E+03  0.00000000000E+00 0. -1.
</event>
<event>
 7    1  0.2693725E-009  0.6994132E+02  0.7561462E-02  0.1360293E+00
         -3   -1    0    0    0  501 -0.00000000000E+00  0.00000000000E+00  0.63727212578E+02  0.63727212578E+02  0.00000000000E+00 0.  1.
          3   -1    0    0  501    0  0.00000000000E+00 -0.00000000000E+00 -0.22902124080E+03  0.22902124080E+03  0.00000000000E+00 0. -1.
         25    2    1    2    0    0  0.15553961101E+02 -0.63016018570E+01 -0.31507102194E+02  0.13008405849E+03  0.12509008311E+03 0.  0.
          5    1    3    3  502    0 -0.13212950032E+02  0.42177397703E+02 -0.53419177641E+02  0.69459310861E+02  0.41800000000E+01 0.  1.
         -5    1    3    3    0  502  0.28766911133E+02 -0.48478999560E+02  0.21912075447E+02  0.60624747627E+02  0.41800000000E+01 0.  1.
        -11    1    1    2    0    0  0.11145923754E+02 -0.12434562704E+01  0.10722155735E+02  0.15515876496E+02  0.00000000000E+00 0.  1.
         11    1    1    2    0    0 -0.26699884856E+02  0.75450581274E+01 -0.14450908176E+03  0.14714851839E+03  0.00000000000E+00 0. -1.
</event>
<event>
 7    1  0.2693725E-009  0.1334438E+03  0.7561462E-02  0.1222433E+00
          2   -1    0    0  501    0  0.00000000000E+00  0.00000000000E+00  0.24871971137E+04  0.24871971137E+04  0.00000000000E+00 0. -1.
         -2   -1    0    0    0  501 -0.00000000000E+00 -0.00000000000E+00 -0.14032780360E+02  0.14032780360E+02  0.00000000000E+00 0.  1.
         25    2    1    2    0    0  0.21096013723E+02  0.94268431572E+02  0.20114752652E+04  0.20176748738E+04  0.12509026676E+03 0.  0.
          5    1    3    3  502    0  0.45488830505E+02  0.89418388076E+02  0.84766774374E+03  0.85359414127E+03  0.41800000000E+01 0.  1.
         -5    1    3    3    0  502 -0.24392816782E+02  0.48500434958E+01  0.11638075215E+04  0.11640807326E+04  0.41800000000E+01 0.  1.
        -11    1    1    2    0    0 -0.86650001026E+01 -0.11594557539E+03  0.40959720601E+03  0.42577967289E+03  0.00000000000E+00 0. -1.
         11    1    1    2    0    0 -0.12431013620E+02  0.21677143817E+02  0.52091862116E+02  0.57775347359E+02  0.00000000000E+00 0.  1.
</event>
<event>
 7    1  0.2693725E-009  0.1331373E+03  0.7561462E-02  0.1222873E+00
         -2   -1    0    0    0  501 -0.00000000000E+00  0.00000000000E+00  0.17944108569E+02  0.17944108569E+02  0.00000000000E+00 0.  1.
          2   -1    0    0  501    0  0.00000000000E+00 -0.00000000000E+00 -0.19077436574E+04  0.19077436574E+04  0.00000000000E+00 0. -1.
         25    2    1    2    0    0 -0.50584886843E+02  0.64818282200E+02 -0.16377261275E+04  0.16445528928E+04  0.12508840033E+03 0.  0.
          5    1    3    3  502    0 -0.20387438219E+02 -0.36199665109E+02 -0.34253248919E+03  0.34506816999E+03  0.41800000000E+01 0.  1.
         -5    1    3    3    0  502 -0.30197448623E+02  0.10101794731E+03 -0.12951936383E+04  0.12994847228E+04  0.41800000000E+01 0.  1.
        -11    1    1    2    0    0  0.74863395617E+02 -0.42851148913E+02 -0.14059304896E+03  0.16494591351E+03  0.00000000000E+00 0.  1.
         11    1    1    2    0    0 -0.24278508775E+02 -0.21967133287E+02 -0.11148037236E+03  0.11618895969E+03  0.00000000000E+00 0. -1.
</event>
<event>
 7    1  0.2693725E-009  0.1237206E+03  0.7561462E-02  0.1237082E+00
          2   -1    0    0  501    0  0.00000000000E+00  0.00000000000E+00  0.64301505714E+03  0.64301505714E+03  0.00000000000E+00 0. -1.
         -2   -1    0    0    0  501 -0.00000000000E+00 -0.00000000000E+00 -0.31313899212E+02  0.31313899212E+02  0.00000000000E+00 0.  1.
         25    2    1    2    0    0 -0.38685743345E+02 -0.79402061388E+02  0.33567909064E+03  0.36895587018E+03  0.12508680249E+03 0.  0.
          5    1    3    3  502    0 -0.11050116998E+02  0.32673715655E+02  0.11120573788E+03  0.11650693249E+03  0.41800000000E+01 0.  1.
         -5    1    3    3    0  502 -0.27635626347E+02 -0.11207577704E+03  0.22447335276E+03  0.25244893769E+03  0.41800000000E+01 0.  1.
        -11    1    1    2    0    0  0.32799446436E+02  0.22019943599E+02  0.22475362596E+03  0.22819919804E+03  0.00000000000E+00 0. -1.
         11    1    1    2    0    0  0.58862969095E+01  0.57382117789E+02  0.51268441330E+02  0.77173888134E+02  0.00000000000E+00 0.  1.
</event>
<event>
 7    1  0.2693725E-009  0.2139154E+03  0.7561462E-02  0.1138502E+00
          1   -1    0    0  501    0  0.00000000000E+00  0.00000000000E+00  0.55614372511E+03  0.55614372511E+03  0.00000000000E+00 0. -1.
         -1   -1    0    0    0  501 -0.00000000000E+00 -0.00000000000E+00 -0.10433274192E+03  0.10433274192E+03  0.00000000000E+00 0.  1.
         25    2    1    2    0    0 -0.19862764438E+02 -0.20940634988E+03  0.17289468623E+03  0.29964176360E+03  0.12508822960E+03 0.  0.
          5    1    3    3  502    0 -0.34358889077E+02 -0.11964089705E+03  0.16713244313E+03  0.20843513008E+03  0.41800000000E+01 0. -1.
         -5    1    3    3    0  502  0.14496124639E+02 -0.89765452829E+02  0.57622430945E+01  0.91206633512E+02  0.41800000000E+01 0. -1.
        -11    1    1    2    0    0  0.18772475515E+02  0.60422493978E+02  0.15370785198E+03  0.16622089933E+03  0.00000000000E+00 0. -1.
         11    1    1    2    0    0  0.10902889238E+01  0.14898385590E+03  0.12520844498E+03  0.19461380409E+03  0.00000000000E+00 0.  1.
</event>
<event>
 7    1  0.2693725E-009  0.1002740E+03  0.7561462E-02  0.1279721E+00
         -1   -1    0    0    0  501 -0.00000000000E+00  0.00000000000E+00  0.18192014517E+02  0.18192014517E+02  0.00000000000E+00 0.  1.
          1   -1    0    0  501    0  0.00000000000E+00 -0.00000000000E+00 -0.98835636303E+03  0.98835636303E+03  0.00000000000E+00 0. -1.
         25    2    1    2    0    0  0.39876258048E+02 -0.22152376577E+02 -0.78081569915E+03  0.79208663413E+03  0.12508891310E+03 0.  0.
          5    1    3    3  502    0  0.37618508878E+02 -0.69371246814E+02 -0.35813775832E+03  0.36675284379E+03  0.41800000000E+01 0.  1.
         -5    1    3    3    0  502  0.22577491706E+01  0.47218870236E+02 -0.42267794083E+03  0.42533379034E+03  0.41800000000E+01 0.  1.
        -11    1    1    2    0    0  0.15357918406E+02  0.33531558994E+01  0.62309599048E+00  0.15732055201E+02  0.00000000000E+00 0.  1.
         11    1    1    2    0    0 -0.55234176454E+02  0.18799220678E+02 -0.18997174535E+03  0.19872968821E+03  0.00000000000E+00 0. -1.
</event>
<event>
 7    1  0.2693725E-009  0.1338526E+03  0.7561462E-02  0.1221849E+00
          1   -1    0    0  501    0  0.00000000000E+00  0.00000000000E+00  0.55468544063E+02  0.55468544063E+02  0.00000000000E+00 0. -1.
         -1   -1    0    0    0  501 -0.00000000000E+00 -0.00000000000E+00 -0.33936618341E+03  0.33936618341E+03  0.00000000000E+00 0.  1.
         25    2    1    2    0    0 -0.48253706184E+02 -0.67937207881E+02 -0.12301810402E+03  0.19422876978E+03  0.12508987456E+03 0.  0.
          5    1    3    3  502    0 -0.28839463921E+02  0.33631831694E+02 -0.53343894405E+02  0.69468397510E+02  0.41800000000E+01 0.  1.
         -5    1    3    3    0  502 -0.19414242263E+02 -0.10156903958E+03 -0.69674209611E+02  0.12476037227E+03  0.41800000000E+01 0.  1.
        -11    1    1    2    0    0  0.61567720066E+02  0.12661843493E+02 -0.79926219137E+02  0.10168139919E+03  0.00000000000E+00 0. -1.
         11    1    1    2    0    0 -0.13314013882E+02  0.55275364388E+02 -0.80953316191E+02  0.98924558509E+02  0.00000000000E+00 0.  1.
</event>
<event>
 7    1  0.2693725E-009  0.1017706E+03  0.7561462E-02  0.1276616E+00
          2   -1    0    0  501    0  0.00000000000E+00  0.00000000000E+00  0.24766518663E+03  0.24766518663E+03  0.00000000000E+00 0. -1.
         -2   -1    0    0    0  501 -0.00000000000E+00 -0.00000000000E+00 -0.50848690707E+02  0.50848690707E+02  0.00000000000E+00 0.  1.
         25    2    1    2    0    0 -0.15312089672E+02  0.28937967298E+02  0.11299111471E+03  0.17171801645E+03  0.12509284203E+03 0.  0.
          5    1    3    3  502    0 -0.62889120792E+02  0.20974606716E+02  0.24414048212E+02  0.70770712806E+02  0.41800000000E+01 0.  1.
         -5    1    3    3    0  502  0.47577031121E+02  0.79633605818E+01  0.88577066502E+02  0.10094730364E+03  0.41800000000E+01 0.  1.
        -11    1    1    2    0    0  0.33484490594E+02  0.18245898847E+02  0.14076889054E+02  0.40648280905E+02  0.00000000000E+00 0.  1.
         11    1    1    2    0    0 -0.18172400922E+02 -0.47183866145E+02  0.69748492154E+02  0.86147579986E+02  0.00000000000E+00 0. -1.
</event>
<event>
 7    1  0.2693725E-009  0.1145807E+03  0.7561462E-02  0.1252315E+00
         -1   -1    0    0    0  501 -0.00000000000E+00  0.00000000000E+00  0.48275852216E+02  0.48275852216E+02  0.00000000000E+00 0.  1.
          1   -1    0    0  501    0  0.00000000000E+00 -0.00000000000E+00 -0.27502679502E+03  0.27502679502E+03  0.00000000000E+00 0. -1.
         25    2    1    2    0    0  0.93270510956E+01 -0.37341678569E+02 -0.14263335515E+03  0.19357960030E+03  0.12508953917E+03 0.  0.
          5    1    3    3  502    0 -0.52792972197E+02  0.79168378921E+01 -0.51545971654E+02  0.74325189736E+02  0.41800000000E+01 0. -1.
         -5    1    3    3    0  502  0.62120023292E+02 -0.45258516461E+02 -0.91087383494E+02  0.11925441056E+03  0.41800000000E+01 0. -1.
        -11    1    1    2    0    0  0.37984675614E+02  0.34388861459E+02 -0.46762577008E+02  0.69369791569E+02  0.00000000000E+00 0.  1.
         11    1    1    2    0    0 -0.47311726709E+02  0.29528171095E+01 -0.37355010644E+02  0.60353255366E+02  0.00000000000E+00 0. -1.
</event>
<event>
 7    1  0.2693725E-009  0.1058447E+03  0.7561462E-02  0.1268464E+00
         -1   -1    0    0    0  501 -0.00000000000E+00  0.00000000000E+00  0.47254859139E+02  0.47254859139E+02  0.00000000000E+00 0.  1.
          1   -1    0    0  501    0  0.00000000000E+00 -0.00000000000E+00 -0.30534831080E+03  0.30534831080E+03  0.00000000000E+00 0. -1.
         25    2    1    2    0    0 -0.21759564072E+02  0.47254028638E+02 -0.13045939253E+03  0.18808129359E+03  0.12509395687E+03 0.  0.
          5    1    3    3  502    0  0.16331920539E+02 -0.23068482148E+02 -0.97289686351E+02  0.10139843178E+03  0.41800000000E+01 0. -1.
         -5    1    3    3    0  502 -0.38091484610E+02  0.70322510786E+02 -0.33169706183E+02  0.86682861809E+02  0.41800000000E+01 0. -1.
        -11    1    1    2    0    0 -0.20948252290E+02  0.16243425077E+02 -0.24479277826E+02  0.36082033966E+02  0.00000000000E+00 0.  1.
         11    1    1    2    0    0  0.42707816362E+02 -0.63497453715E+02 -0.10315478130E+03  0.12843984238E+03  0.00000000000E+00 0. -1.
</event>
<event>
 7    1  0.2693725E-009  0.8499859E+02  0.7561462E-02  0.1315436E+00
          2   -1    0    0  501    0  0.00000000000E+00  0.00000000000E+00  0.21765766821E+03  0.21765766821E+03  0.00000000000E+00 0. -1.
         -2   -1    0    0    0  501 -0.00000000000E+00 -0.00000000000E+00 -0.57338560245E+02  0.57338560245E+02  0.00000000000E+00 0.  1.
         25    2    1    2    0    0 -0.16963182209E+02  0.94428877810E+01  0.10052044492E+03  0.16164258681E+03  0.12508816229E+03 0.  0.
          5    1    3    3  502    0 -0.61825232064E+02  0.10985041665E+01  0.13700626511E+02  0.63472400286E+02  0.41800000000E+01 0. -1.
         -5    1    3    3    0  502  0.44862049855E+02  0.83443836145E+01  0.86819818405E+02  0.98170186528E+02  0.41800000000E+01 0. -1.
        -11    1    1    2    0    0  0.89373051533E+01  0.25147922512E+02  0.71216715705E+02  0.76053363015E+02  0.00000000000E+00 0. -1.
         11    1    1    2    0    0  0.80258770560E+01 -0.34590810293E+02 -0.11418052654E+02  0.37300278628E+02  0.00000000000E+00 0.  1.
</event>
<event>
 7    1  0.2693725E-009  0.1196286E+03  0.7561462E-02  0.1243711E+00
          1   -1    0    0  501    0  0.00000000000E+00  0.00000000000E+00  0.22599366453E+03  0.22599366453E+03  0.00000000000E+00 0. -1.
         -1   -1    0    0    0  501 -0.00000000000E+00 -0.00000000000E+00 -0.88037428224E+02  0.88037428224E+02  0.00000000000E+00 0.  1.
         25    2    1    2    0    0  0.77702338954E+02  0.37389018372E+02  0.10208472102E+03  0.18304745390E+03  0.12509791342E+03 0.  0.
          5    1    3    3  502    0  0.45463231077E+01 -0.33672854465E+02  0.66774263984E+02  0.75038689436E+02  0.41800000000E+01 0.  1.
         -5    1    3    3    0  502  0.73156015846E+02  0.71061872837E+02  0.35310457033E+02  0.10800876447E+03  0.41800000000E+01 0.  1.
        -11    1    1    2    0    0 -0.25347822593E+02 -0.43390223097E+02  0.55389555526E+02  0.74787876236E+02  0.00000000000E+00 0. -1.
         11    1    1    2    0    0 -0.52354516362E+02  0.60012047246E+01 -0.19518040235E+02  0.56195762618E+02  0.00000000000E+00 0.  1.
</event>
<event>
 7    1  0.2693725E-009  0.1900665E+03  0.7561462E-02  0.1158401E+00
          3   -1    0    0  501    0  0.00000000000E+00  0.00000000000E+00  0.55146733249E+03  0.55146733249E+03  0.00000000000E+00 0. -1.
         -3   -1    0    0    0  501 -0.00000000000E+00 -0.00000000000E+00 -0.79886914994E+02  0.79886914994E+02  0.00000000000E+00 0.  1.
         25    2    1    2    0    0  0.78397895452E+02  0.15141644144E+03  0.15646886303E+03  0.26306542959E+03  0.12509095249E+03 0.  0.
          5    1    3    3  502    0  0.10237922027E+03  0.77924082145E+02  0.12519391617E+03  0.17956797144E+03  0.41800000000E+01 0.  1.
         -5    1    3    3    0  502 -0.23981324823E+02  0.73492359299E+02  0.31274946864E+02  0.83497458147E+02  0.41800000000E+01 0.  1.
        -11    1    1    2    0    0 -0.43801914771E+02 -0.48221424848E+02  0.19785472909E+03  0.20830364225E+03  0.00000000000E+00 0.  1.
         11    1    1    2    0    0 -0.34595980681E+02 -0.10319501660E+03  0.11725682538E+03  0.15998517565E+03  0.00000000000E+00 0. -1.
</event>
<event>
 7    1  0.2693725E-009  0.1018651E+03  0.7561462E-02  0.1276422E+00
         -2   -1    0    0    0  501 -0.00000000000E+00  0.00000000000E+00  0.77508732355E+02  0.77508732355E+02  0.00000000000E+00 0. -1.
          2   -1    0    0  501    0  0.00000000000E+00 -0.00000000000E+00 -0.21710371801E+03  0.21710371801E+03  0.00000000000E+00 0.  1.
         25    2    1    2    0    0  0.19446018043E+02 -0.54628191398E+02 -0.12486688634E+03  0.18600701830E+03  0.12507791426E+03 0.  0.
          5    1    3    3  502    0 -0.21909514221E+01 -0.80837744199E+02 -0.12816855522E+03  0.15160538283E+03  0.41800000000E+01 0. -1.
         -5    1    3    3    0  502  0.21636969465E+02  0.26209552802E+02  0.33016688722E+01  0.34401635470E+02  0.41800000000E+01 0. -1.
        -11    1    1    2    0    0 -0.33764716557E+01 -0.15859933688E+02 -0.30560051532E+02  0.34595589416E+02  0.00000000000E+00 0.  1.
         11    1    1    2    0    0 -0.16069546387E+02  0.70488125085E+02  0.15831952217E+02  0.74009842657E+02  0.00000000000E+00 0. -1.
</event>
<event>
 7    1  0.2693725E-009  0.1081120E+03  0.7561462E-02  0.1264107E+00
          1   -1    0    0  501    0  0.00000000000E+00  0.00000000000E+00  0.15402393243E+03  0.15402393243E+03  0.00000000000E+00 0. -1.
         -1   -1    0    0    0  501 -0.00000000000E+00 -0.00000000000E+00 -0.12154625778E+03  0.12154625778E+03  0.00000000000E+00 0.  1.
         25    2    1    2    0    0 -0.65044304739E+02 -0.32256002486E+02  0.57861886829E+02  0.15577664356E+03  0.12508858244E+03 0.  0.
          5    1    3    3  502    0 -0.80919905060E+02 -0.61603920516E+02  0.17563829436E+02  0.10329101879E+03  0.41800000000E+01 0. -1.
         -5    1    3    3    0  502  0.15875600322E+02  0.29347918030E+02  0.40298057394E+02  0.52485624775E+02  0.41800000000E+01 0. -1.
        -11    1    1    2    0    0  0.37876295237E+02 -0.97217968231E+00  0.30983974411E+02  0.48944514958E+02  0.00000000000E+00 0. -1.
         11    1    1    2    0    0  0.27168009502E+02  0.33228182169E+02 -0.56368186599E+02  0.70849031687E+02  0.00000000000E+00 0.  1.
</event>
<event>
 7    1  0.2693725E-009  0.1278843E+03  0.7561462E-02  0.1230629E+00
         -2   -1    0    0    0  501 -0.00000000000E+00  0.00000000000E+00  0.38260813397E+02  0.38260813397E+02  0.00000000000E+00 0.  1.
          2   -1    0    0  501    0  0.00000000000E+00 -0.00000000000E+00 -0.44908246485E+03  0.44908246485E+03  0.00000000000E+00 0. -1.
         25    2    1    2    0    0 -0.48570410717E+02  0.52511819800E+02 -0.26149395837E+03  0.29856779026E+03  0.12508820529E+03 0.  0.
          5    1    3    3  502    0 -0.31599822829E+02 -0.37445357272E+02 -0.12336539204E+03  0.13280510509E+03  0.41800000000E+01 0. -1.
         -5    1    3    3    0  502 -0.16970587888E+02  0.89957177072E+02 -0.13812856633E+03  0.16576268517E+03  0.41800000000E+01 0. -1.
        -11    1    1    2    0    0  0.43739488816E+02 -0.77776551153E+02 -0.10796552945E+03  0.14006744926E+03  0.00000000000E+00 0. -1.
         11    1    1    2    0    0  0.48309219012E+01  0.25264731353E+02 -0.41362163631E+02  0.48708038730E+02  0.00000000000E+00 0.  1.
</event>
<event>
 7    1  0.2693725E-009  0.8618797E+02  0.7561462E-02  0.1312355E+00
         -2   -1    0    0    0  501 -0.00000000000E+00  0.00000000000E+00  0.42887131144E+03  0.42887131144E+03  0.00000000000E+00 0.  1.
          2   -1    0    0  501    0  0.00000000000E+00 -0.00000000000E+00 -0.34173620263E+02  0.34173620263E+02  0.00000000000E+00 0. -1.
         25    2    1    2    0    0  0.66092484662E+01  0.39349954840E+01  0.32511598088E+03  0.34843634379E+03  0.12509323840E+03 0.  0.
          5    1    3    3  502    0 -0.15027665704E+02 -0.38951110598E+02  0.27755926136E+03  0.28071272810E+03  0.41800000000E+01 0. -1.
         -5    1    3    3    0  502  0.21636914170E+02  0.42886106082E+02  0.47556719525E+02  0.67723615686E+02  0.41800000000E+01 0. -1.
        -11    1    1    2    0    0 -0.36349195553E+02  0.22214444802E+02  0.60476649851E+02  0.73974122181E+02  0.00000000000E+00 0.  1.
         11    1    1    2    0    0  0.29739947087E+02 -0.26149440286E+02  0.91050604490E+01  0.40634465738E+02  0.00000000000E+00 0. -1.
</event>
<event>
 7    1  0.2693725E-009  0.1910611E+03  0.7561462E-02  0.1157508E+00
          2   -1    0    0  501    0  0.00000000000E+00  0.00000000000E+00  0.12165607805E+03  0.12165607805E+03  0.00000000000E+00 0. -1.
         -2   -1    0    0    0  501 -0.00000000000E+00 -0.00000000000E+00 -0.39783241051E+03  0.39783241051E+03  0.00000000000E+00 0.  1.
         25    2    1    2    0    0  0.14251696488E+03 -0.10930307026E+03 -0.69013062722E+02  0.22949649422E+03  0.12509033371E+03 0.  0.
          5    1    3    3  502    0  0.11451302197E+03 -0.12328431540E+03 -0.17696141274E+02  0.16924207645E+03  0.41800000000E+01 0. -1.
         -5    1    3    3    0  502  0.28003942913E+02  0.13981245146E+02 -0.51316921448E+02  0.60254417775E+02  0.41800000000E+01 0. -1.
        -11    1    1    2    0    0 -0.12006609581E+03  0.10471619065E+03 -0.21333787488E+03  0.26626001729E+03  0.00000000000E+00 0.  1.
         11    1    1    2    0    0 -0.22450869068E+02  0.45868796020E+01  0.61746051442E+01  0.23731977058E+02  0.00000000000E+00 0. -1.
</event>
<event>
 7    1  0.2693725E-009  0.1757816E+03  0.7561462E-02  0.1171949E+00
          2   -1    0    0  501    0  0.00000000000E+00  0.00000000000E+00  0.36906095109E+03  0.36906095109E+03  0.00000000000E+00 0. -1.
         -2   -1    0    0    0  501 -0.00000000000E+00 -0.00000000000E+00 -0.10223890259E+03  0.10223890259E+03  0.00000000000E+00 0.  1.
         25    2    1    2    0    0  0.10383174196E+03 -0.10770459196E+03  0.21455391756E+03  0.28993478661E+03  0.12508991639E+03 0.  0.
          5    1    3    3  502    0  0.11190266732E+03 -0.54097499967E+02  0.88452815643E+02  0.15261100698E+03  0.41800000000E+01 0.  1.
         -5    1    3    3    0  502 -0.80709253684E+01 -0.53607091996E+02  0.12610110191E+03  0.13732377963E+03  0.41800000000E+01 0.  1.
        -11    1    1    2    0    0 -0.56863241779E+02  0.11205587086E+03  0.45846102322E+02  0.13376027646E+03  0.00000000000E+00 0.  1.
         11    1    1    2    0    0 -0.46968500176E+02 -0.43512789018E+01  0.64220286178E+01  0.47604790604E+02  0.00000000000E+00 0. -1.
</event>
<event>
 7    1  0.2693725E-009  0.1396369E+03  0.7561462E-02  0.1213818E+00
         -1   -1    0    0    0  501 -0.00000000000E+00  0.00000000000E+00  0.66494439636E+03  0.66494439636E+03  0.00000000000E+00 0.  1.
          1   -1    0    0  501    0  0.00000000000E+00 -0.00000000000E+00 -0.49207998524E+02  0.49207998524E+02  0.00000000000E+00 0. -1.
         25    2    1    2    0    0 -0.11232348927E+03  0.52659722090E+02  0.47178362817E+03  0.50360367878E+03  0.12508901190E+03 0.  0.
          5    1    3    3  502    0 -0.10345628204E+03  0.53016839243E+02  0.19798290052E+03  0.22962728243E+03  0.41800000000E+01 0. -1.
         -5    1    3    3    0  502 -0.88672072329E+01 -0.35711715315E+00  0.27380072765E+03  0.27397639635E+03  0.41800000000E+01 0. -1.
        -11    1    1    2    0    0  0.86232690127E+02  0.84965824433E+01  0.89890372471E+02  0.12485410615E+03  0.00000000000E+00 0. -1.
         11    1    1    2    0    0  0.26090799148E+02 -0.61156304533E+02  0.54062397197E+02  0.85694609953E+02  0.00000000000E+00 0.  1.
</event>
<event>
 7    1  0.2693725E-009  0.1363788E+03  0.7561462E-02  0.1218286E+00
         -2   -1    0    0    0  501 -0.00000000000E+00  0.00000000000E+00  0.33145267935E+02  0.33145267935E+02  0.00000000000E+00 0. -1.
          2   -1    0    0  501    0  0.00000000000E+00 -0.00000000000E+00 -0.67381103562E+03  0.67381103562E+03  0.00000000000E+00 0.  1.
         25    2    1    2    0    0  0.45260318000E+02 -0.73993976850E+02 -0.27984233732E+03  0.31856433448E+03  0.12509155227E+03 0.  0.
          5    1    3    3  502    0  0.75317092945E+02 -0.45101983633E+02 -0.96623871990E+02  0.13061584305E+03  0.41800000000E+01 0.  1.
         -5    1    3    3    0  502 -0.30056774945E+02 -0.28891993217E+02 -0.18321846533E+03  0.18794849143E+03  0.41800000000E+01 0.  1.
        -11    1    1    2    0    0 -0.74822633147E+02  0.83306317176E+02 -0.26518663916E+03  0.28785816386E+03  0.00000000000E+00 0.  1.
         11    1    1    2    0    0  0.29562315147E+02 -0.93123403262E+01 -0.95636791209E+02  0.10053380522E+03  0.00000000000E+00 0. -1.
</event>
<event>
 7    1  0.2693725E-009  0.9298798E+02  0.7561462E-02  0.1295773E+00
          1   -1    0    0  501    0  0.00000000000E+00  0.00000000000E+00  0.25814367482E+03  0.25814367482E+03  0.00000000000E+00 0. -1.
         -1   -1    0    0    0  501 -0.00000000000E+00 -0.00000000000E+00 -0.73040893214E+02  0.73040893214E+02  0.00000000000E+00 0.  1.
         25    2    1    2    0    0 -0.79015072574E+01 -0.46549034115E+02  0.18158192904E+02  0.13493172951E+03  0.12509038838E+03 0.  0.
          5    1    3    3  502    0  0.15403124997E+02  0.40401747985E+02  0.29422121028E+01  0.43539482220E+02  0.41800000000E+01 0. -1.
         -5    1    3    3    0  502 -0.23304632255E+02 -0.86950782100E+02  0.15215980802E+02  0.91392247287E+02  0.41800000000E+01 0. -1.
        -11    1    1    2    0    0  0.11345503902E+02  0.84038420189E+01 -0.86311738028E+01  0.16548177564E+02  0.00000000000E+00 0.  1.
         11    1    1    2    0    0 -0.34439966442E+01  0.38145192096E+02  0.17557576250E+03  0.17970466096E+03  0.00000000000E+00 0. -1.
</event>
<event>
 7    1  0.2693725E-009  0.8974945E+02  0.7561462E-02  0.1303460E+00
          3   -1    0    0  501    0  0.00000000000E+00  0.00000000000E+00  0.43872892262E+03  0.43872892262E+03  0.00000000000E+00 0. -1.
         -3   -1    0    0    0  501 -0.00000000000E+00 -0.00000000000E+00 -0.36645975064E+02  0.36645975064E+02  0.00000000000E+00 0.  1.
         25    2    1    2    0    0  0.49958539250E+02  0.38148827596E+02  0.13331114331E+03  0.19331421633E+03  0.12508931455E+03 0.  0.
          5    1    3    3  502    0 -0.17704715539E+02  0.25569249115E+01  0.11247092358E+03  0.11396129110E+03  0.41800000000E+01 0.  1.
         -5    1    3    3    0  502  0.67663254789E+02  0.35591902685E+02  0.20840219729E+02  0.79352925237E+02  0.41800000000E+01 0.  1.
        -11    1    1    2    0    0 -0.26871643268E+02  0.11942207684E+02  0.73954442895E+02  0.79586186994E+02  0.00000000000E+00 0.  1.
         11    1    1    2    0    0 -0.23086895982E+02 -0.50091035280E+02  0.19481736135E+03  0.20247449436E+03  0.00000000000E+00 0. -1.
</event>
<event>
 7    1  0.2693725E-009  0.6421134E+02  0.7561462E-02  0.1380963E+00
          1   -1    0    0  501    0  0.00000000000E+00  0.00000000000E+00  0.14410083264E+03  0.14410083264E+03  0.00000000000E+00 0. -1.
         -1   -1    0    0    0  501 -0.00000000000E+00 -0.00000000000E+00 -0.81513809198E+02  0.81513809198E+02  0.00000000000E+00 0.  1.
         25    2    1    2    0    0  0.53414962626E+01  0.17651555550E+02  0.39024429611E+02  0.13231722086E+03  0.12507930218E+03 0.  0.
          5    1    3    3  502    0  0.15248732470E+02  0.45295738755E+02 -0.30417192782E+02  0.56805860684E+02  0.41800000000E+01 0. -1.
         -5    1    3    3    0  502 -0.99072362078E+01 -0.27644183205E+02  0.69441622393E+02  0.75511360172E+02  0.41800000000E+01 0. -1.
        -11    1    1    2    0    0 -0.20463190668E+02 -0.26332244811E+02 -0.25013377480E+02  0.41686908522E+02  0.00000000000E+00 0.  1.
         11    1    1    2    0    0  0.15121694406E+02  0.86806892615E+01  0.48575971308E+02  0.51610512459E+02  0.00000000000E+00 0. -1.
</event>
<event>
 7    1  0.2693725E-009  0.1471417E+03  0.7561462E-02  0.1204030E+00
          3   -1    0    0  501    0  0.00000000000E+00  0.00000000000E+00  0.80361707218E+03  0.80361707218E+03  0.00000000000E+00 0. -1.
         -3   -1    0    0    0  501 -0.00000000000E+00 -0.00000000000E+00 -0.40677229642E+02  0.40677229642E+02  0.00000000000E+00 0.  1.
         25    2    1    2    0    0  0.49272778954E+02  0.12745873439E+03  0.51058720751E+03  0.54315681497E+03  0.12508594427E+03 0.  0.
          5    1    3    3  502    0  0.25772894354E+02  0.31268741334E+02  0.25523179615E+02  0.48071627450E+02  0.41800000000E+01 0.  1.
         -5    1    3    3    0  502  0.23499884600E+02  0.96189993056E+02  0.48506402790E+03  0.49508518752E+03  0.41800000000E+01 0.  1.
        -11    1    1    2    0    0 -0.11810094749E+02  0.77573912211E+01  0.68060796284E+02  0.69512066919E+02  0.00000000000E+00 0. -1.
         11    1    1    2    0    0 -0.37462684205E+02 -0.13521612561E+03  0.18429183874E+03  0.23162541993E+03  0.00000000000E+00 0.  1.
</event>
<event>
 7    1  0.5171668E-009  0.1672690E+03  0.7561462E-02  0.1180726E+00
         -2   -1    0    0    0  501 -0.00000000000E+00  0.00000000000E+00  0.32799726281E+02  0.32799726281E+02  0.00000000000E+00 0. -1.
          2   -1    0    0  501    0  0.00000000000E+00 -0.00000000000E+00 -0.10026904105E+04  0.10026904105E+04  0.00000000000E+00 0.  1.
         25    2    1    2    0    0  0.35588558166E+00  0.14310834506E+03 -0.44998719597E+03  0.48848418861E+03  0.12509276922E+03 0.  0.
          5    1    3    3  502    0  0.61350313419E+02  0.53280546174E+02 -0.19829205723E+03  0.21433592774E+03  0.41800000000E+01 0.  1.
         -5    1    3    3    0  502 -0.60994427838E+02  0.89827798883E+02 -0.25169513873E+03  0.27414826088E+03  0.41800000000E+01 0.  1.
        -11    1    1    2    0    0  0.98706564353E+01 -0.72893970950E+02 -0.40746004178E+03  0.41404667190E+03  0.00000000000E+00 0.  1.
         11    1    1    2    0    0 -0.10226542017E+02 -0.70214374107E+02 -0.11244344649E+03  0.13295927629E+03  0.00000000000E+00 0. -1.
</event>
<event>
 7    1  0.2693725E-009  0.1120341E+03  0.7561462E-02  0.1256849E+00
         -1   -1    0    0    0  501 -0.00000000000E+00  0.00000000000E+00  0.23446851225E+03  0.23446851225E+03  0.00000000000E+00 0.  1.
          1   -1    0    0  501    0  0.00000000000E+00 -0.00000000000E+00 -0.66365495591E+02  0.66365495591E+02  0.00000000000E+00 0. -1.
         25    2    1    2    0    0  0.12324746854E+02  0.35974997261E+02  0.36678579541E+02  0.13578736626E+03  0.12508713294E+03 0.  0.
          5    1    3    3  502    0 -0.34755807731E+02  0.63344492223E+02  0.36748797252E+02  0.81169189755E+02  0.41800000000E+01 0.  1.
         -5    1    3    3    0  502  0.47080554584E+02 -0.27369494962E+02 -0.70217711771E-01  0.54618176507E+02  0.41800000000E+01 0.  1.
        -11    1    1    2    0    0  0.17865580505E+01 -0.64883193132E+02  0.68448051831E+02  0.94330039437E+02  0.00000000000E+00 0. -1.
         11    1    1    2    0    0 -0.14111304904E+02  0.28908195871E+02  0.62976385283E+02  0.70716602138E+02  0.00000000000E+00 0.  1.
</event>
<event>
 7    1  0.2693725E-009  0.1125047E+03  0.7561462E-02  0.1256001E+00
         -2   -1    0    0    0  501 -0.00000000000E+00  0.00000000000E+00  0.18521074539E+02  0.18521074539E+02  0.00000000000E+00 0.  1.
          2   -1    0    0  501    0  0.00000000000E+00 -0.00000000000E+00 -0.17165546032E+04  0.17165546032E+04  0.00000000000E+00 0. -1.
         25    2    1    2    0    0 -0.78568593433E+02 -0.34339418745E+02 -0.14322220730E+04  0.14402290761E+04  0.12508999042E+03 0.  0.
          5    1    3    3  502    0 -0.11757528703E+02  0.27548311589E+02 -0.90624498413E+02  0.95537537466E+02  0.41800000000E+01 0. -1.
         -5    1    3    3    0  502 -0.66811064730E+02 -0.61887730334E+02 -0.13415975746E+04  0.13446915386E+04  0.41800000000E+01 0. -1.
        -11    1    1    2    0    0  0.27785174538E+02  0.43871715624E+02 -0.47078979448E+02  0.70094034424E+02  0.00000000000E+00 0.  1.
         11    1    1    2    0    0  0.50783418895E+02 -0.95322968792E+01 -0.21873247615E+03  0.22475256716E+03  0.00000000000E+00 0. -1.
</event>
<event>
 7    1  0.2693725E-009  0.2455004E+03  0.7561462E-02  0.1116182E+00
         -2   -1    0    0    0  501 -0.00000000000E+00  0.00000000000E+00  0.11879487017E+03  0.11879487017E+03  0.00000000000E+00 0.  1.
          2   -1    0    0  501    0  0.00000000000E+00 -0.00000000000E+00 -0.57907600984E+03  0.57907600984E+03  0.00000000000E+00 0. -1.
         25    2    1    2    0    0  0.36894204980E+02  0.23461271247E+03 -0.25920284868E+03  0.37314584378E+03  0.12508955495E+03 0.  0.
          5    1    3    3  502    0  0.61514600352E+02  0.19764428761E+03 -0.15143850290E+03  0.25651199395E+03  0.41800000000E+01 0.  1.
         -5    1    3    3    0  502 -0.24620395372E+02  0.36968424855E+02 -0.10776434578E+03  0.11663384983E+03  0.41800000000E+01 0.  1.
        -11    1    1    2    0    0 -0.15436994555E+02 -0.18018912287E+03 -0.96720258657E+02  0.20508834495E+03  0.00000000000E+00 0.  1.
         11    1    1    2    0    0 -0.21457210425E+02 -0.54423589598E+02 -0.10435803234E+03  0.11963669127E+03  0.00000000000E+00 0. -1.
</event>
<event>
 7    1  0.2693725E-009  0.1227753E+03  0.7561462E-02  0.1238588E+00
         -1   -1    0    0    0  501 -0.00000000000E+00  0.00000000000E+00  0.13238791474E+03  0.13238791474E+03  0.00000000000E+00 0.  1.
          1   -1    0    0  501    0  0.00000000000E+00 -0.00000000000E+00 -0.16490160007E+03  0.16490160007E+03  0.00000000000E+00 0. -1.
         25    2    1    2    0    0  0.67099718310E+02 -0.70528344556E+02  0.67783974980E+01  0.15865256275E+03  0.12509224360E+03 0.  0.
          5    1    3    3  502    0  0.52170728696E+02 -0.14276106788E+02 -0.52486290653E+02  0.75484271634E+02  0.41800000000E+01 0. -1.
         -5    1    3    3    0  502  0.14928989614E+02 -0.56252237768E+02  0.59264688151E+02  0.83168291111E+02  0.41800000000E+01 0. -1.
        -11    1    1    2    0    0  0.18395314424E+02  0.36613870621E+02 -0.12380846840E+02  0.42804771733E+02  0.00000000000E+00 0.  1.
         11    1    1    2    0    0 -0.85495032734E+02  0.33914473934E+02 -0.26911235987E+02  0.95832180330E+02  0.00000000000E+00 0. -1.
</event>
<event>
 7    1  0.2693725E-009  0.2118361E+03  0.7561462E-02  0.1140120E+00
         -1   -1    0    0    0  501 -0.00000000000E+00  0.00000000000E+00  0.41106991799E+02  0.41106991799E+02  0.00000000000E+00 0.  1.
          1   -1    0    0  501    0  0.00000000000E+00 -0.00000000000E+00 -0.12993161787E+04  0.12993161787E+04  0.00000000000E+00 0. -1.
         25    2    1    2    0    0 -0.16179582635E+03  0.11066452214E+03 -0.49208982129E+03  0.54426482072E+03  0.12508907612E+03 0.  0.
          5    1    3    3  502    0 -0.17319916532E+02  0.75678116336E+02 -0.11406714805E+03  0.13804326664E+03  0.41800000000E+01 0.  1.
         -5    1    3    3    0  502 -0.14447590982E+03  0.34986405802E+02 -0.37802267325E+03  0.40622155408E+03  0.41800000000E+01 0.  1.
        -11    1    1    2    0    0  0.82988992737E+02 -0.69815465344E+02 -0.57879146017E+03  0.58886409848E+03  0.00000000000E+00 0. -1.
         11    1    1    2    0    0  0.78806833612E+02 -0.40849056794E+02 -0.18732790541E+03  0.20729425127E+03  0.00000000000E+00 0.  1.
</event>
<event>
 7    1  0.2693725E-009  0.1203537E+03  0.7561462E-02  0.1242515E+00
         -3   -1    0    0    0  501 -0.00000000000E+00  0.00000000000E+00  0.67267070815E+03  0.67267070815E+03  0.00000000000E+00 0.  1.
          3   -1    0    0  501    0  0.00000000000E+00 -0.00000000000E+00 -0.22513921420E+02  0.22513921420E+02  0.00000000000E+00 0. -1.
         25    2    1    2    0    0  0.39308102370E+02 -0.42103968382E+02  0.38155904243E+03  0.40564865000E+03  0.12508258600E+03 0.  0.
          5    1    3    3  502    0 -0.31954790766E+02  0.22849022779E+02  0.14160625393E+03  0.14701357096E+03  0.41800000000E+01 0.  1.
         -5    1    3    3    0  502  0.71262893136E+02 -0.64952991161E+02  0.23995278850E+03  0.25863507904E+03  0.41800000000E+01 0.  1.
        -11    1    1    2    0    0  0.28383010968E+01  0.59155848610E+02  0.11504931459E+03  0.12939789475E+03  0.00000000000E+00 0.  1.
         11    1    1    2    0    0 -0.42146403466E+02 -0.17051880228E+02  0.15354842971E+03  0.16013808482E+03  0.00000000000E+00 0. -1.
</event>
<event>
 7    1  0.2693725E-009  0.2073663E+03  0.7561462E-02  0.1143669E+00
         -1   -1    0    0    0  501 -0.00000000000E+00  0.00000000000E+00  0.85875825041E+02  0.85875825041E+02  0.00000000000E+00 0.  1.
          1   -1    0    0  501    0  0.00000000000E+00 -0.00000000000E+00 -0.62333064601E+03  0.62333064601E+03  0.00000000000E+00 0. -1.
         25    2    1    2    0    0  0.20261098812E+03  0.23896697825E+02 -0.28487897135E+03  0.37205753977E+03  0.12509404426E+03 0.  0.
          5    1    3    3  502    0  0.79551911201E+02 -0.21778395900E+01 -0.21231222308E+03  0.22677566455E+03  0.41800000000E+01 0.  1.
         -5    1    3    3    0  502  0.12305907692E+03  0.26074537415E+02 -0.72566748262E+02  0.14528187522E+03  0.41800000000E+01 0.  1.
        -11    1    1    2    0    0 -0.15445515555E+03 -0.37886462735E+02 -0.23551097831E+03  0.28417811323E+03  0.00000000000E+00 0. -1.
         11    1    1    2    0    0 -0.48155832570E+02  0.13989764910E+02 -0.17064871313E+02  0.52970818057E+02  0.00000000000E+00 0.  1.
</event>
<event>
 7    1  0.2693725E-009  0.9201695E+02  0.7561462E-02  0.1298040E+00
         -1   -1    0    0    0  501 -0.00000000000E+00  0.00000000000E+00  0.92237606241E+02  0.92237606241E+02  0.00000000000E+00 0.  1.
          1   -1    0    0  501    0  0.00000000000E+00 -0.00000000000E+00 -0.18409447379E+03  0.18409447379E+03  0.00000000000E+00 0. -1.
         25    2    1    2    0    0  0.38111223985E+02  0.56839153833E+02 -0.25144114621E+02  0.14477661505E+03  0.12507952256E+03 0.  0.
          5    1    3    3  502    0  0.20055025555E+02 -0.20842556554E+02  0.34416178564E+02  0.45150436993E+02  0.41800000000E+01 0. -1.
         -5    1    3    3    0  502  0.18056198430E+02  0.77681710387E+02 -0.59560293185E+02  0.99626178059E+02  0.41800000000E+01 0. -1.
        -11    1    1    2    0    0 -0.24539440226E+02 -0.10553266765E+02  0.19290402633E+02  0.32949585729E+02  0.00000000000E+00 0.  1.
         11    1    1    2    0    0 -0.13571783760E+02 -0.46285887068E+02 -0.86003155560E+02  0.98605879249E+02  0.00000000000E+00 0. -1.
</event>
<event>
 7    1  0.2693725E-009  0.6626391E+02  0.7561462E-02  0.1373279E+00
         -3   -1    0    0    0  501 -0.00000000000E+00  0.00000000000E+00  0.11604589929E+03  0.11604589929E+03  0.00000000000E+00 0.  1.
          3   -1    0    0  501    0  0.00000000000E+00 -0.00000000000E+00 -0.11521197693E+03  0.11521197693E+03  0.00000000000E+00 0. -1.
         25    2    1    2    0    0  0.28984269284E+02 -0.18280534193E+02  0.22934705882E+02  0.13170999979E+03  0.12508899837E+03 0.  0.
          5    1    3    3  502    0  0.39827459089E+02 -0.23189589158E+02  0.69482960511E+02  0.83482559521E+02  0.41800000000E+01 0.  1.
         -5    1    3    3    0  502 -0.10843189805E+02  0.49090549646E+01 -0.46548254629E+02  0.48227440268E+02  0.41800000000E+01 0.  1.
        -11    1    1    2    0    0  0.21173389748E+02  0.55400351007E+01 -0.39325990339E+02  0.45005976697E+02  0.00000000000E+00 0. -1.
         11    1    1    2    0    0 -0.50157659032E+02  0.12740499092E+02  0.17225206821E+02  0.54541899736E+02  0.00000000000E+00 0.  1.
</event>
<event>
 7    1  0.2693725E-009  0.9740655E+02  0.7561462E-02  0.1285846E+00
          1   -1    0    0  501    0  0.00000000000E+00  0.00000000000E+00  0.16575473098E+04  0.16575473098E+04  0.00000000000E+00 0. -1.
         -1   -1    0    0    0  501 -0.00000000000E+00 -0.00000000000E+00 -0.11356431122E+02  0.11356431122E+02  0.00000000000E+00 0.  1.
         25    2    1    2    0    0  0.24112203812E+02  0.15285392056E+01  0.13819972027E+04  0.13878571457E+04  0.12508978246E+03 0.  0.
          5    1    3    3  502    0 -0.23156963043E+02 -0.41778879798E+02  0.93924640272E+03  0.94046956205E+03  0.41800000000E+01 0.  1.
         -5    1    3    3    0  502  0.47269166855E+02  0.43307419004E+02  0.44275079998E+03  0.44738758360E+03  0.41800000000E+01 0.  1.
        -11    1    1    2    0    0 -0.22240156371E+02 -0.39109561654E+02  0.69791278455E+02  0.83036166316E+02  0.00000000000E+00 0. -1.
         11    1    1    2    0    0 -0.18720474411E+01  0.37581022448E+02  0.19440239757E+03  0.19801042900E+03  0.00000000000E+00 0.  1.
</event>
<event>
 7    1  0.2693725E-009  0.1037177E+03  0.7561462E-02  0.1272667E+00
         -3   -1    0    0    0  501 -0.00000000000E+00  0.00000000000E+00  0.11039508322E+03  0.11039508322E+03  0.00000000000E+00 0.  1.
          3   -1    0    0  501    0  0.00000000000E+00 -0.00000000000E+00 -0.13303971522E+03  0.13303971522E+03  0.00000000000E+00 0. -1.
         25    2    1    2    0    0 -0.47052185913E+02 -0.80508567627E+01  0.17826577849E+02  0.13507046827E+03  0.12509004767E+03 0.  0.
          5    1    3    3  502    0 -0.51789774386E+02  0.38493708269E+02 -0.27062611526E+02  0.70098528158E+02  0.41800000000E+01 0.  1.
         -5    1    3    3    0  502  0.47375884736E+01 -0.46544565032E+02  0.44889189376E+02  0.64971940108E+02  0.41800000000E+01 0.  1.
        -11    1    1    2    0    0 -0.17959243200E+02  0.22911907008E+02  0.21965362801E+01  0.29194428761E+02  0.00000000000E+00 0.  1.
         11    1    1    2    0    0  0.65011429113E+02 -0.14861050245E+02 -0.42667746126E+02  0.79169901409E+02  0.00000000000E+00 0. -1.
</event>
<event>
 7    1  0.2693725E-009  0.1419784E+03  0.7561462E-02  0.1210691E+00
         -1   -1    0    0    0  501 -0.00000000000E+00  0.00000000000E+00  0.18365614516E+03  0.18365614516E+03  0.00000000000E+00 0.  1.
          1   -1    0    0  501    0  0.00000000000E+00 -0.00000000000E+00 -0.25960459176E+03  0.25960459176E+03  0.00000000000E+00 0. -1.
         25    2    1    2    0    0  0.37391939355E+02 -0.92044890345E+02  0.12317095398E+03  0.20171696553E+03  0.12509289073E+03 0.  0.
          5    1    3    3  502    0 -0.10993608716E+02  0.22984849869E+02  0.51846442686E+02  0.57919675200E+02  0.41800000000E+01 0.  1.
         -5    1    3    3    0  502  0.48385548071E+02 -0.11502974021E+03  0.71324511290E+02  0.14379729033E+03  0.41800000000E+01 0.  1.
        -11    1    1    2    0    0  0.13295057092E+02 -0.11764388393E+02 -0.11310884328E+02  0.21049833292E+02  0.00000000000E+00 0.  1.
         11    1    1    2    0    0 -0.50686996447E+02  0.10380927874E+03 -0.18780851624E+03  0.22049393809E+03  0.00000000000E+00 0. -1.
</event>
<event>
 7    1  0.2693725E-009  0.1730347E+03  0.7561462E-02  0.1174720E+00
          2   -1    0    0  501    0  0.00000000000E+00  0.00000000000E+00  0.50618506073E+03  0.50618506073E+03  0.00000000000E+00 0.  1.
         -2   -1    0    0    0  501 -0.00000000000E+00 -0.00000000000E+00 -0.76227931521E+02  0.76227931521E+02  0.00000000000E+00 0. -1.
         25    2    1    2    0    0 -0.11881933843E+03  0.11188686478E+03  0.21353018111E+03  0.29643648478E+03  0.12507096213E+03 0.  0.
          5    1    3    3  502    0 -0.45794876809E+01  0.23068753855E+01 -0.16153189282E+02  0.17455409060E+02  0.41800000000E+01 0.  1.
         -5    1    3    3    0  502 -0.11423985075E+03  0.10957998940E+03  0.22968337039E+03  0.27898107572E+03  0.41800000000E+01 0.  1.
        -11    1    1    2    0    0  0.11206811215E+03 -0.56873091371E+02  0.18044092520E+03  0.21989255960E+03  0.00000000000E+00 0. -1.
         11    1    1    2    0    0  0.67512262845E+01 -0.55013773411E+02  0.35986022899E+02  0.66083947865E+02  0.00000000000E+00 0.  1.
</event>
<event>
 7    1  0.2693725E-009  0.1122302E+03  0.7561462E-02  0.1256495E+00
          2   -1    0    0  501    0  0.00000000000E+00  0.00000000000E+00  0.63533353073E+03  0.63533353073E+03  0.00000000000E+00 0. -1.
         -2   -1    0    0    0  501 -0.00000000000E+00 -0.00000000000E+00 -0.29551354519E+02  0.29551354519E+02  0.00000000000E+00 0.  1.
         25    2    1    2    0    0  0.57801695781E+01 -0.44939235503E+02  0.16216245552E+03  0.20975498399E+03  0.12509015181E+03 0.  0.
          5    1    3    3  502    0  0.59580791031E+02 -0.12870856307E+02  0.11839581368E+03  0.13323126773E+03  0.41800000000E+01 0.  1.
         -5    1    3    3    0  502 -0.53800621452E+02 -0.32068379196E+02  0.43766641839E+02  0.76523716263E+02  0.41800000000E+01 0.  1.
        -11    1    1    2    0    0  0.32118201442E+02  0.52878787752E+02  0.30452075077E+03  0.31074206781E+03  0.00000000000E+00 0. -1.
         11    1    1    2    0    0 -0.37898371020E+02 -0.79395522492E+01  0.13909896991E+03  0.14438783345E+03  0.00000000000E+00 0.  1.
</event>
<event>
 7    1  0.2693725E-009  0.1071115E+03  0.7561462E-02  0.1266014E+00
          2   -1    0    0  501    0  0.00000000000E+00  0.00000000000E+00  0.18181127476E+03  0.18181127476E+03  0.00000000000E+00 0. -1.
         -2   -1    0    0    0  501 -0.00000000000E+00 -0.00000000000E+00 -0.92755602999E+02  0.92755602999E+02  0.00000000000E+00 0.  1.
         25    2    1    2    0    0 -0.63896094357E+02  0.63306929261E+01  0.86262988063E+02  0.16495942448E+03  0.12509004784E+03 0.  0.
          5    1    3    3  502    0  0.23321475137E+02 -0.27138300407E+02  0.56158988646E+02  0.66720933427E+02  0.41800000000E+01 0. -1.
         -5    1    3    3    0  502 -0.87217569494E+02  0.33468993333E+02  0.30103999417E+02  0.98238491051E+02  0.41800000000E+01 0. -1.
        -11    1    1    2    0    0  0.33970427179E+02  0.24373439117E+02  0.36160570775E+02  0.55277855746E+02  0.00000000000E+00 0. -1.
         11    1    1    2    0    0  0.29925667177E+02 -0.30704132043E+02 -0.33367887076E+02  0.54329597536E+02  0.00000000000E+00 0.  1.
</event>
<event>
 7    1  0.2693725E-009  0.1104265E+03  0.7561462E-02  0.1259782E+00
         -1   -1    0    0    0  501 -0.00000000000E+00  0.00000000000E+00  0.11987366282E+03  0.11987366282E+03  0.00000000000E+00 0.  1.
          1   -1    0    0  501    0  0.00000000000E+00 -0.00000000000E+00 -0.13690516301E+03  0.13690516301E+03  0.00000000000E+00 0. -1.
         25    2    1    2    0    0  0.35951860340E+02 -0.14166265700E+02 -0.62576607523E+02  0.14510545618E+03  0.12508613935E+03 0.  0.
          5    1    3    3  502    0 -0.15717286213E+02  0.42238007132E+02 -0.50051915601E+02  0.67481471440E+02  0.41800000000E+01 0.  1.
         -5    1    3    3    0  502  0.51669146553E+02 -0.56404272832E+02 -0.12524691922E+02  0.77623984741E+02  0.41800000000E+01 0.  1.
        -11    1    1    2    0    0 -0.58941165840E+02  0.34498243992E+02  0.43378502024E+02  0.80906639449E+02  0.00000000000E+00 0.  1.
         11    1    1    2    0    0  0.22989305500E+02 -0.20331978292E+02  0.21666053023E+01  0.30766730199E+02  0.00000000000E+00 0. -1.
</event>
<event>
 7    1  0.2693725E-009  0.1255371E+03  0.7561462E-02  0.1234232E+00
         -2   -1    0    0    0  501 -0.00000000000E+00  0.00000000000E+00  0.38856035364E+02  0.38856035364E+02  0.00000000000E+00 0.  1.
          2   -1    0    0  501    0  0.00000000000E+00 -0.00000000000E+00 -0.70497135001E+03  0.70497135001E+03  0.00000000000E+00 0. -1.
         25    2    1    2    0    0  0.11411128511E+03  0.38144103986E+02 -0.42896543826E+03  0.46274768251E+03  0.12509081655E+03 0.  0.
          5    1    3    3  502    0  0.24638075254E+02  0.17758856770E+01 -0.21771119845E+01  0.25147579183E+02  0.41800000000E+01 0.  1.
         -5    1    3    3    0  502  0.89473209861E+02  0.36368218309E+02 -0.42678832628E+03  0.43760010333E+03  0.41800000000E+01 0.  1.
        -11    1    1    2    0    0 -0.11247244929E+03 -0.23865991411E+02 -0.24027891793E+03  0.26637116172E+03  0.00000000000E+00 0. -1.
         11    1    1    2    0    0 -0.16388358208E+01 -0.14278112575E+02  0.31290415442E+01  0.14708541142E+02  0.00000000000E+00 0.  1.
</event>
<event>
 7    1  0.2693725E-009  0.1713021E+03  0.7561462E-02  0.1176497E+00
          1   -1    0    0  501    0  0.00000000000E+00  0.00000000000E+00  0.13796820764E+03  0.13796820764E+03  0.00000000000E+00 0. -1.
         -1   -1    0    0    0  501 -0.00000000000E+00 -0.00000000000E+00 -0.31040554770E+03  0.31040554770E+03  0.00000000000E+00 0.  1.
         25    2    1    2    0    0 -0.14623144051E+03  0.54652189504E+02 -0.17818893210E+03  0.26789886561E+03  0.12509200878E+03 0.  0.
          5    1    3    3  502    0 -0.11439628274E+03  0.76431240329E+02 -0.73043760251E+02  0.15582396258E+03  0.41800000000E+01 0.  1.
         -5    1    3    3    0  502 -0.31835157774E+02 -0.21779050825E+02 -0.10514517185E+03  0.11207490303E+03  0.41800000000E+01 0.  1.
        -11    1    1    2    0    0  0.11401727972E+03 -0.66317794137E+02  0.33838006971E+02  0.13617268673E+03  0.00000000000E+00 0. -1.
         11    1    1    2    0    0  0.32214160789E+02  0.11665604633E+02 -0.28086414926E+02  0.44302202995E+02  0.00000000000E+00 0.  1.
</event>
<event>
 7    1  0.3183254E-009  0.6555404E+02  0.7561462E-02  0.1375899E+00
         -1   -1    0    0    0  501 -0.00000000000E+00  0.00000000000E+00  0.90103096923E+02  0.90103096923E+02  0.00000000000E+00 0.  1.
          1   -1    0    0  501    0  0.00000000000E+00 -0.00000000000E+00 -0.17725620784E+03  0.17725620784E+03  0.00000000000E+00 0. -1.
         25    2    1    2    0    0 -0.38861178235E+02 -0.51975316250E+02 -0.46676950146E+02  0.14845057304E+03  0.12508880961E+03 0.  0.
          5    1    3    3  502    0 -0.15269775724E+02 -0.18774136124E+02 -0.87351359112E+02  0.90737900442E+02  0.41800000000E+01 0.  1.
         -5    1    3    3    0  502 -0.23591402510E+02 -0.33201180126E+02  0.40674408966E+02  0.57712672602E+02  0.41800000000E+01 0.  1.
        -11    1    1    2    0    0  0.94191605110E+01  0.65433910456E+01 -0.60205441126E+02  0.61288104003E+02  0.00000000000E+00 0. -1.
         11    1    1    2    0    0  0.29442017724E+02  0.45431925204E+02  0.19729280353E+02  0.57620627718E+02  0.00000000000E+00 0.  1.
</event>
<event>
 7    1  0.2693725E-009  0.1022234E+03  0.7561462E-02  0.1275689E+00
          2   -1    0    0  501    0  0.00000000000E+00  0.00000000000E+00  0.11352136592E+04  0.11352136592E+04  0.00000000000E+00 0. -1.
         -2   -1    0    0    0  501 -0.00000000000E+00 -0.00000000000E+00 -0.14943477357E+02  0.14943477357E+02  0.00000000000E+00 0.  1.
         25    2    1    2    0    0  0.52198303670E+02 -0.49784419221E+02  0.62018734830E+03  0.63677555672E+03  0.12509041267E+03 0.  0.
          5    1    3    3  502    0  0.57054226197E+02 -0.55545337734E+02  0.62271256303E+03  0.62779684439E+03  0.41800000000E+01 0. -1.
         -5    1    3    3    0  502 -0.48559225270E+01  0.57609185127E+01 -0.25252147292E+01  0.89787123312E+01  0.41800000000E+01 0. -1.
        -11    1    1    2    0    0 -0.33919580719E+02  0.76523504704E+02  0.36020572637E+03  0.36980339376E+03  0.00000000000E+00 0.  1.
         11    1    1    2    0    0 -0.18278722950E+02 -0.26739085482E+02  0.13987710715E+03  0.14357818605E+03  0.00000000000E+00 0. -1.
</event>
<event>
 7    1  0.2693725E-009  0.3356863E+03  0.7561462E-02  0.1068648E+00
          2   -1    0    0  501    0  0.00000000000E+00  0.00000000000E+00  0.90216377627E+03  0.90216377627E+03  0.00000000000E+00 0. -1.
         -2   -1    0    0    0  501 -0.00000000000E+00 -0.00000000000E+00 -0.13530909077E+03  0.13530909077E+03  0.00000000000E+00 0.  1.
         25    2    1    2    0    0  0.31309081578E+03  0.10778658198E+03  0.41517138471E+03  0.54558086854E+03  0.12508956495E+03 0.  0.
          5    1    3    3  502    0  0.91155887570E+02  0.27421834892E+02  0.21830417474E+03  0.23819222904E+03  0.41800000000E+01 0. -1.
         -5    1    3    3    0  502  0.22193492821E+03  0.80364747087E+02  0.19686720997E+03  0.30738863950E+03  0.41800000000E+01 0. -1.
        -11    1    1    2    0    0 -0.11513493983E+03 -0.10985394188E+01  0.15536618382E+03  0.19338022710E+03  0.00000000000E+00 0.  1.
         11    1    1    2    0    0 -0.19795587595E+03 -0.10668804256E+03  0.19631711697E+03  0.29851177140E+03  0.00000000000E+00 0. -1.
</event>
<event>
 7    1  0.2693725E-009  0.1046271E+03  0.7561462E-02  0.1270856E+00
         -2   -1    0    0    0  501 -0.00000000000E+00  0.00000000000E+00  0.19749667996E+02  0.19749667996E+02  0.00000000000E+00 0.  1.
          2   -1    0    0  501    0  0.00000000000E+00 -0.00000000000E+00 -0.71929824987E+03  0.71929824987E+03  0.00000000000E+00 0. -1.
         25    2    1    2    0    0 -0.33065859763E+01  0.51992114226E+02 -0.38535963414E+03  0.40848905818E+03  0.12508856692E+03 0.  0.
          5    1    3    3  502    0  0.36565836111E+02 -0.50482405075E+01 -0.27804176408E+03  0.28051245975E+03  0.41800000000E+01 0.  1.
         -5    1    3    3    0  502 -0.39872422087E+02  0.57040354733E+02 -0.10731787006E+03  0.12797659843E+03  0.41800000000E+01 0.  1.
        -11    1    1    2    0    0 -0.23792383694E+01  0.25035547892E+02 -0.89453340674E+02  0.92921147169E+02  0.00000000000E+00 0.  1.
         11    1    1    2    0    0  0.56858243457E+01 -0.77027662118E+02 -0.22473560706E+03  0.23763771252E+03  0.00000000000E+00 0. -1.
</event>
<event>
 7    1  0.2693725E-009  0.1542268E+03  0.7561462E-02  0.1195373E+00
         -1   -1    0    0    0  501 -0.00000000000E+00  0.00000000000E+00  0.49429882083E+03  0.49429882083E+03  0.00000000000E+00 0.  1.
          1   -1    0    0  501    0  0.00000000000E+00 -0.00000000000E+00 -0.61643216618E+02  0.61643216618E+02  0.00000000000E+00 0. -1.
         25    2    1    2    0    0  0.82491634461E+02 -0.10630137484E+03  0.20270748504E+03  0.27357702329E+03  0.12509680704E+03 0.  0.
          5    1    3    3  502    0 -0.25882958713E+02 -0.35727080902E+02  0.17499623743E+02  0.47645158124E+02  0.41800000000E+01 0.  1.
         -5    1    3    3    0  502  0.10837459317E+03 -0.70574293933E+02  0.18520786130E+03  0.22593186516E+03  0.41800000000E+01 0.  1.
        -11    1    1    2    0    0 -0.11822590458E+02  0.19594246410E+02  0.13112194743E+03  0.13310399406E+03  0.00000000000E+00 0.  1.
         11    1    1    2    0    0 -0.70669044003E+02  0.86707128425E+02  0.98826171743E+02  0.14926102010E+03  0.00000000000E+00 0. -1.
</event>
<event>
 7    1  0.2693725E-009  0.8902359E+02  0.7561462E-02  0.1305234E+00
         -2   -1    0    0    0  501 -0.00000000000E+00  0.00000000000E+00  0.39829825173E+02  0.39829825173E+02  0.00000000000E+00 0. -1.
          2   -1    0    0  501    0  0.00000000000E+00 -0.00000000000E+00 -0.38919085186E+03  0.38919085186E+03  0.00000000000E+00 0.  1.
         25    2    1    2    0    0 -0.27178311993E+02 -0.55738554516E+02 -0.22939994659E+03  0.26854724021E+03  0.12509131715E+03 0.  0.
          5    1    3    3  502    0 -0.27333271276E+02  0.20889248361E+02 -0.16429307628E+03  0.16790817648E+03  0.41800000000E+01 0. -1.
         -5    1    3    3    0  502  0.15495928331E+00 -0.76627802877E+02 -0.65106870303E+02  0.10063906372E+03  0.41800000000E+01 0. -1.
        -11    1    1    2    0    0  0.19923970138E+02  0.14157915517E+02  0.80101160752E+01  0.25721063690E+02  0.00000000000E+00 0. -1.
         11    1    1    2    0    0  0.72543418553E+01  0.41580639000E+02 -0.12797119618E+03  0.13475237314E+03  0.00000000000E+00 0.  1.
</event>
<event>
 7    1  0.2693725E-009  0.1621706E+03  0.7561462E-02  0.1186268E+00
         -1   -1    0    0    0  501 -0.00000000000E+00  0.00000000000E+00  0.15095441045E+03  0.15095441045E+03  0.00000000000E+00 0.  1.
          1   -1    0    0  501    0  0.00000000000E+00 -0.00000000000E+00 -0.28434963856E+03  0.28434963856E+03  0.00000000000E+00 0. -1.
         25    2    1    2    0    0 -0.11404073219E+03 -0.39244835242E+02  0.64547378716E+02  0.18536472027E+03  0.12509304429E+03 0.  0.
          5    1    3    3  502    0 -0.12174705698E+03 -0.69572654862E+02  0.41559822604E+02  0.14631264964E+03  0.41800000000E+01 0.  1.
         -5    1    3    3    0  502  0.77063247913E+01  0.30327819620E+02  0.22987556112E+02  0.39052070632E+02  0.41800000000E+01 0.  1.
        -11    1    1    2    0    0  0.10149128655E+03 -0.97036423889E+01 -0.13695306190E+03  0.17073600407E+03  0.00000000000E+00 0.  1.
         11    1    1    2    0    0  0.12549445646E+02  0.48948477631E+02 -0.60989544931E+02  0.79203324673E+02  0.00000000000E+00 0. -1.
</event>
<event>
 7    1  0.2693725E-009  0.1240440E+03  0.7561462E-02  0.1236571E+00
          2   -1    0    0  501    0  0.00000000000E+00  0.00000000000E+00  0.38762763001E+03  0.38762763001E+03  0.00000000000E+00 0. -1.
         -2   -1    0    0    0  501 -0.00000000000E+00 -0.00000000000E+00 -0.59712956745E+02  0.59712956745E+02  0.00000000000E+00 0.  1.
         25    2    1    2    0    0 -0.70062782037E+02 -0.72830260617E+02  0.15396988151E+03  0.22263812930E+03  0.12509185393E+03 0.  0.
          5    1    3    3  502    0  0.15230945650E+02 -0.38146838280E+02  0.11568622228E+03  0.12283296545E+03  0.41800000000E+01 0.  1.
         -5    1    3    3    0  502 -0.85293727686E+02 -0.34683422337E+02  0.38283659234E+02  0.99805163854E+02  0.41800000000E+01 0.  1.
        -11    1    1    2    0    0  0.25250245061E+02 -0.41182797555E+01  0.11524181768E+03  0.11804749741E+03  0.00000000000E+00 0. -1.
         11    1    1    2    0    0  0.44812536976E+02  0.76948540373E+02  0.58702974076E+02  0.10665496004E+03  0.00000000000E+00 0.  1.
</event>
<event>
 7    1  0.2693725E-009  0.1293157E+03  0.7561462E-02  0.1228475E+00
         -2   -1    0    0    0  501 -0.00000000000E+00  0.00000000000E+00  0.13906646083E+03  0.13906646083E+03  0.00000000000E+00 0. -1.
          2   -1    0    0  501    0  0.00000000000E+00 -0.00000000000E+00 -0.15694585042E+03  0.15694585042E+03  0.00000000000E+00 0.  1.
         25    2    1    2    0    0 -0.90985440877E+02  0.24425770748E+02  0.22858977027E+02  0.15825554647E+03  0.12508923386E+03 0.  0.
          5    1    3    3  502    0 -0.10154888365E+03 -0.24722490852E+02  0.25774215940E+02  0.10772724787E+03  0.41800000000E+01 0. -1.
         -5    1    3    3    0  502  0.10563442777E+02  0.49148261600E+02 -0.29152389137E+01  0.50528298602E+02  0.41800000000E+01 0. -1.
        -11    1    1    2    0    0  0.49563687880E+02  0.89854131244E+01  0.22446763928E+02  0.55146659157E+02  0.00000000000E+00 0. -1.
         11    1    1    2    0    0  0.41421752997E+02 -0.33411183873E+02 -0.63185130541E+02  0.82610105620E+02  0.00000000000E+00 0.  1.
</event>
<event>
 7    1  0.3025380E-009  0.1300669E+03  0.7561462E-02  0.1227357E+00
          1   -1    0    0  501    0  0.00000000000E+00  0.00000000000E+00  0.90091781603E+03  0.90091781603E+03  0.00000000000E+00 0. -1.
         -1   -1    0    0    0  501 -0.00000000000E+00 -0.00000000000E+00 -0.26979588783E+02  0.26979588783E+02  0.00000000000E+00 0.  1.
         25    2    1    2    0    0 -0.42739864680E+02 -0.93211840079E+02  0.60222576942E+03  0.62356890207E+03  0.12508858909E+03 0.  0.
          5    1    3    3  502    0 -0.19372424452E+02  0.26523120184E+02  0.68763471818E+02  0.76319422101E+02  0.41800000000E+01 0. -1.
         -5    1    3    3    0  502 -0.23367440228E+02 -0.11973496026E+03  0.53346229760E+03  0.54724947997E+03  0.41800000000E+01 0. -1.
        -11    1    1    2    0    0  0.33488890232E+02  0.46290248618E+02  0.45281417186E+02  0.72901986451E+02  0.00000000000E+00 0.  1.
         11    1    1    2    0    0  0.92509744476E+01  0.46921591461E+02  0.22643104065E+03  0.23142651629E+03  0.00000000000E+00 0. -1.
</event>
<event>
 7    1  0.2693725E-009  0.1080398E+03  0.7561462E-02  0.1264244E+00
          1   -1    0    0  501    0  0.00000000000E+00  0.00000000000E+00  0.12168561146E+04  0.12168561146E+04  0.00000000000E+00 0. -1.
         -1   -1    0    0    0  501 -0.00000000000E+00 -0.00000000000E+00 -0.15223739879E+02  0.15223739879E+02  0.00000000000E+00 0.  1.
         25    2    1    2    0    0  0.72515599250E+02 -0.14228169110E+02  0.81085487828E+03  0.82376836054E+03  0.12509086802E+03 0.  0.
          5    1    3    3  502    0  0.54763616075E+02  0.35515171474E+02  0.19578784845E+03  0.20642367851E+03  0.41800000000E+01 0.  1.
         -5    1    3    3    0  502  0.17751983175E+02 -0.49743340583E+02  0.61506702984E+03  0.61734468203E+03  0.41800000000E+01 0.  1.
        -11    1    1    2    0    0  0.98976792154E+01  0.11585203087E+02  0.89271978269E+01  0.17660006949E+02  0.00000000000E+00 0.  1.
         11    1    1    2    0    0 -0.82413278465E+02  0.26429660229E+01  0.38185029860E+03  0.39065148698E+03  0.00000000000E+00 0. -1.
</event>
<event>
 7    1  0.2693725E-009  0.1033470E+03  0.7561462E-02  0.1273411E+00
         -1   -1    0    0    0  501 -0.00000000000E+00  0.00000000000E+00  0.83906262625E+02  0.83906262625E+02  0.00000000000E+00 0.  1.
          1   -1    0    0  501    0  0.00000000000E+00 -0.00000000000E+00 -0.18785814629E+03  0.18785814629E+03  0.00000000000E+00 0. -1.
         25    2    1    2    0    0 -0.23828076953E+02  0.30295613408E+02 -0.40071800182E+01  0.13095510107E+03  0.12509028564E+03 0.  0.
          5    1    3    3  502    0 -0.52885776549E+02 -0.14799676023E+02  0.34317603600E+02  0.64893035747E+02  0.41800000000E+01 0. -1.
         -5    1    3    3    0  502  0.29057699597E+02  0.45095289431E+02 -0.38324783618E+02  0.66062065318E+02  0.41800000000E+01 0. -1.
        -11    1    1    2    0    0  0.28519196020E+02  0.27621031036E+02 -0.29329989624E+02  0.49361059434E+02  0.00000000000E+00 0. -1.
         11    1    1    2    0    0 -0.46911190672E+01 -0.57916644444E+02 -0.70614714022E+02  0.91448248415E+02  0.00000000000E+00 0.  1.
</event>
<event>
 7    1  0.2693725E-009  0.9012862E+02  0.7561462E-02  0.1302541E+00
         -1   -1    0    0    0  501 -0.00000000000E+00  0.00000000000E+00  0.12171459993E+03  0.12171459993E+03  0.00000000000E+00 0.  1.
          1   -1    0    0  501    0  0.00000000000E+00 -0.00000000000E+00 -0.18956678217E+03  0.18956678217E+03  0.00000000000E+00 0. -1.
         25    2    1    2    0    0  0.42084442857E+02 -0.18221717816E+02 -0.13406255013E+03  0.18900189553E+03  0.12508324363E+03 0.  0.
          5    1    3    3  502    0 -0.32775143068E+02  0.24274547020E+02 -0.18856447994E+02  0.45127615349E+02  0.41800000000E+01 0.  1.
         -5    1    3    3    0  502  0.74859585925E+02 -0.42496264835E+02 -0.11520610213E+03  0.14387428018E+03  0.41800000000E+01 0.  1.
        -11    1    1    2    0    0 -0.29419862391E+02 -0.17005025986E+01 -0.18196033410E+02  0.34634024370E+02  0.00000000000E+00 0. -1.
         11    1    1    2    0    0 -0.12664580466E+02  0.19922220414E+02  0.84406401299E+02  0.87645462203E+02  0.00000000000E+00 0.  1.
</event>
<event>
 7    1  0.2693725E-009  0.2574357E+03  0.7561462E-02  0.1108694E+00
         -2   -1    0    0    0  501 -0.00000000000E+00  0.00000000000E+00  0.82484662856E+02  0.82484662856E+02  0.00000000000E+00 0.  1.
          2   -1    0    0  501    0  0.00000000000E+00 -0.00000000000E+00 -0.89085310284E+03  0.89085310284E+03  0.00000000000E+00 0. -1.
         25    2    1    2    0    0 -0.19746587438E+03 -0.14036005930E+03 -0.51966787641E+03  0.58685291765E+03  0.12509167591E+03 0.  0.
          5    1    3    3  502    0 -0.18356348774E+03 -0.16312201406E+03 -0.46461905969E+03  0.52554037764E+03  0.41800000000E+01 0.  1.
         -5    1    3    3    0  502 -0.13902386642E+02  0.22761954767E+02 -0.55048816728E+02  0.61312540009E+02  0.41800000000E+01 0.  1.
        -11    1    1    2    0    0  0.28928536489E+02  0.20894423563E+02 -0.57505702621E+01  0.36145625154E+02  0.00000000000E+00 0.  1.
         11    1    1    2    0    0  0.16853733789E+03  0.11946563573E+03 -0.28294999330E+03  0.35033922289E+03  0.00000000000E+00 0. -1.
</event>
<event>
 7    1  0.2693725E-009  0.1096304E+03  0.7561462E-02  0.1261256E+00
          1   -1    0    0  501    0  0.00000000000E+00  0.00000000000E+00  0.11554653623E+03  0.11554653623E+03  0.00000000000E+00 0. -1.
         -1   -1    0    0    0  501 -0.00000000000E+00 -0.00000000000E+00 -0.17807115861E+03  0.17807115861E+03  0.00000000000E+00 0.  1.
         25    2    1    2    0    0  0.36455039833E+01  0.72721426941E+02  0.25831474107E+02  0.14702918912E+03  0.12509445137E+03 0.  0.
          5    1    3    3  502    0 -0.18204876864E+02  0.10035091825E+03  0.38886273868E+02  0.10923066891E+03  0.41800000000E+01 0. -1.
         -5    1    3    3    0  502  0.21850380847E+02 -0.27629491308E+02 -0.13054799761E+02  0.37798520208E+02  0.41800000000E+01 0. -1.
        -11    1    1    2    0    0 -0.19178340747E+02 -0.54469450871E+02 -0.28832222965E+01  0.57819052247E+02  0.00000000000E+00 0. -1.
         11    1    1    2    0    0  0.15532836763E+02 -0.18251976071E+02 -0.85472874189E+02  0.88769453477E+02  0.00000000000E+00 0.  1.
</event>
<event>
 7    1  0.2693725E-009  0.2895727E+03  0.7561462E-02  0.1090572E+00
          2   -1    0    0  501    0  0.00000000000E+00  0.00000000000E+00  0.79210702494E+03  0.79210702494E+03  0.00000000000E+00 0. -1.
         -2   -1    0    0    0  501 -0.00000000000E+00 -0.00000000000E+00 -0.16597292990E+03  0.16597292990E+03  0.00000000000E+00 0.  1.
         25    2    1    2    0    0  0.21253781701E+03 -0.17456520455E+03  0.41009983730E+02  0.30491460486E+03  0.12508302520E+03 0.  0.
          5    1    3    3  502    0  0.75680652812E+02 -0.12934594288E+03 -0.14028373397E+02  0.15057291194E+03  0.41800000000E+01 0. -1.
         -5    1    3    3    0  502  0.13685716420E+03 -0.45219261666E+02  0.55038357127E+02  0.15434169292E+03  0.41800000000E+01 0. -1.
        -11    1    1    2    0    0 -0.85605012854E+02  0.11870371969E+03  0.36187130662E+03  0.39034553135E+03  0.00000000000E+00 0. -1.
         11    1    1    2    0    0 -0.12693280416E+03  0.55861484851E+02  0.22325280469E+03  0.26281981863E+03  0.00000000000E+00 0.  1.
</event>
<event>
 7    1  0.2693725E-009  0.1123172E+03  0.7561462E-02  0.1256338E+00
          2   -1    0    0  501    0  0.00000000000E+00  0.00000000000E+00  0.94133133421E+03  0.94133133421E+03  0.00000000000E+00 0.  1.
         -2   -1    0    0    0  501 -0.00000000000E+00 -0.00000000000E+00 -0.26574827814E+02  0.26574827814E+02  0.00000000000E+00 0. -1.
         25    2    1    2    0    0  0.31482082496E+02  0.87245324842E+02  0.69066489757E+03  0.70800312215E+03  0.12509017555E+03 0.  0.
          5    1    3    3  502    0 -0.24432855959E+02  0.50723176919E+02  0.11142915003E+03  0.12491490305E+03  0.41800000000E+01 0. -1.
         -5    1    3    3    0  502  0.55914938455E+02  0.36522147923E+02  0.57923574754E+03  0.58308821911E+03  0.41800000000E+01 0. -1.
        -11    1    1    2    0    0  0.29672946980E+01 -0.51618257299E+02  0.19648556965E+03  0.20317437930E+03  0.00000000000E+00 0.  1.
         11    1    1    2    0    0 -0.34449377194E+02 -0.35627067542E+02  0.27606039174E+02  0.56728660565E+02  0.00000000000E+00 0. -1.
</event>
<event>
 7    1  0.2693725E-009  0.1475139E+03  0.7561462E-02  0.1203562E+00
          4   -1    0    0  501    0  0.00000000000E+00  0.00000000000E+00  0.10588182086E+03  0.10588182086E+03  0.00000000000E+00 0. -1.
         -4   -1    0    0    0  501 -0.00000000000E+00 -0.00000000000E+00 -0.30211211038E+03  0.30211211038E+03  0.00000000000E+00 0.  1.
         25    2    1    2    0    0  0.11291217223E+03 -0.38748856538E+02 -0.16077763191E+02  0.17365499058E+03  0.12508768430E+03 0.  0.
          5    1    3    3  502    0  0.10849139777E+03  0.22854742508E+02 -0.12408628481E+02  0.11164304325E+03  0.41800000000E+01 0.  1.
         -5    1    3    3    0  502  0.44207744574E+01 -0.61603599045E+02 -0.36691347097E+01  0.62011947330E+02  0.41800000000E+01 0.  1.
        -11    1    1    2    0    0 -0.52228125928E+02  0.43287378140E+01 -0.14897341355E+03  0.15792274394E+03  0.00000000000E+00 0.  1.
         11    1    1    2    0    0 -0.60684046298E+02  0.34420118724E+02 -0.31179112773E+02  0.76416196721E+02  0.00000000000E+00 0. -1.
</event>
<event>
 7    1  0.2693725E-009  0.9036777E+02  0.7561462E-02  0.1301964E+00
         -1   -1    0    0    0  501 -0.00000000000E+00  0.00000000000E+00  0.68887530330E+02  0.68887530330E+02  0.00000000000E+00 0.  1.
          1   -1    0    0  501    0  0.00000000000E+00 -0.00000000000E+00 -0.19241635872E+03  0.19241635872E+03  0.00000000000E+00 0. -1.
         25    2    1    2    0    0 -0.25303986857E+02  0.20636129169E+02 -0.38513560133E+02  0.13489617275E+03  0.12509013363E+03 0.  0.
          5    1    3    3  502    0 -0.32072956805E+02 -0.48594001765E+02 -0.83727718901E+01  0.58971410657E+02  0.41800000000E+01 0.  1.
         -5    1    3    3    0  502  0.67689699485E+01  0.69230130934E+02 -0.30140788243E+02  0.75924762095E+02  0.41800000000E+01 0.  1.
        -11    1    1    2    0    0  0.12808850038E+01 -0.27626610279E+02 -0.95393102386E+02  0.99321267837E+02  0.00000000000E+00 0. -1.
         11    1    1    2    0    0  0.24023101853E+02  0.69904811096E+01  0.10377834133E+02  0.27086448458E+02  0.00000000000E+00 0.  1.
</event>
<event>
 7    1  0.3073976E-009  0.1061959E+03  0.7561462E-02  0.1267781E+00
          2   -1    0    0  501    0  0.00000000000E+00  0.00000000000E+00  0.74265316785E+03  0.74265316785E+03  0.00000000000E+00 0. -1.
         -2   -1    0    0    0  501 -0.00000000000E+00 -0.00000000000E+00 -0.17345506766E+02  0.17345506766E+02  0.00000000000E+00 0.  1.
         25    2    1    2    0    0  0.18130200652E+02  0.25317568735E+02  0.36176593170E+03  0.38404482514E+03  0.12508459103E+03 0.  0.
          5    1    3    3  502    0 -0.39142510141E+02  0.42253864885E+02  0.25672020936E+03  0.26313544705E+03  0.41800000000E+01 0. -1.
         -5    1    3    3    0  502  0.57272710792E+02 -0.16936296150E+02  0.10504572234E+03  0.12090937810E+03  0.41800000000E+01 0. -1.
        -11    1    1    2    0    0 -0.31742861910E+02  0.26404019717E+02  0.18619876486E+03  0.19072168617E+03  0.00000000000E+00 0. -1.
         11    1    1    2    0    0  0.13612661259E+02 -0.51721588451E+02  0.17734296452E+03  0.18523216331E+03  0.00000000000E+00 0.  1.
</event>
<event>
 7    1  0.2693725E-009  0.1731704E+03  0.7561462E-02  0.1174581E+00
         -1   -1    0    0    0  501 -0.00000000000E+00  0.00000000000E+00  0.24105253118E+02  0.24105253118E+02  0.00000000000E+00 0.  1.
          1   -1    0    0  501    0  0.00000000000E+00 -0.00000000000E+00 -0.14612015045E+04  0.14612015045E+04  0.00000000000E+00 0. -1.
         25    2    1    2    0    0 -0.66553115273E+02  0.12718701870E+03 -0.96367883148E+03  0.98230859009E+03  0.12508965208E+03 0.  0.
          5    1    3    3  502    0 -0.53879204862E+02  0.58176254461E+01 -0.15050421437E+03  0.16001813780E+03  0.41800000000E+01 0. -1.
         -5    1    3    3    0  502 -0.12673910410E+02  0.12136939326E+03 -0.81317461711E+03  0.82229045229E+03  0.41800000000E+01 0. -1.
        -11    1    1    2    0    0  0.35912901323E+02 -0.13380431515E+03 -0.38061142765E+03  0.40504122023E+03  0.00000000000E+00 0.  1.
         11    1    1    2    0    0  0.30640213950E+02  0.66172964479E+01 -0.92805992286E+02  0.97956947316E+02  0.00000000000E+00 0. -1.
</event>
<event>
 7    1  0.2693725E-009  0.1108068E+03  0.7561462E-02  0.1259083E+00
          1   -1    0    0  501    0  0.00000000000E+00  0.00000000000E+00  0.37226205262E+02  0.37226205262E+02  0.00000000000E+00 0. -1.
         -1   -1    0    0    0  501 -0.00000000000E+00 -0.00000000000E+00 -0.50610291289E+03  0.50610291289E+03  0.00000000000E+00 0.  1.
         25    2    1    2    0    0  0.29991680744E+02  0.73697844422E+02 -0.31858475435E+03  0.35138957477E+03  0.12509002506E+03 0.  0.
          5    1    3    3  502    0 -0.12443886862E+02  0.86133036713E+02 -0.12242211365E+03  0.15026109491E+03  0.41800000000E+01 0.  1.
         -5    1    3    3    0  502  0.42435567605E+02 -0.12435192292E+02 -0.19616264070E+03  0.20112847986E+03  0.41800000000E+01 0.  1.
        -11    1    1    2    0    0 -0.15538231359E+01 -0.57141361319E+02 -0.14834306676E+03  0.15897551697E+03  0.00000000000E+00 0.  1.
         11    1    1    2    0    0 -0.28437857608E+02 -0.16556483103E+02 -0.19488865115E+01  0.32964026403E+02  0.00000000000E+00 0. -1.
</event>
<event>
 7    1  0.2693725E-009  0.1223288E+03  0.7561462E-02  0.1239304E+00
         -2   -1    0    0    0  501 -0.00000000000E+00  0.00000000000E+00  0.48513372399E+03  0.48513372399E+03  0.00000000000E+00 0. -1.
          2   -1    0    0  501    0  0.00000000000E+00 -0.00000000000E+00 -0.38290382569E+02  0.38290382569E+02  0.00000000000E+00 0.  1.
         25    2    1    2    0    0  0.42393163346E+02 -0.67729327294E+02  0.28679677330E+03  0.32293258738E+03  0.12509446327E+03 0.  0.
          5    1    3    3  502    0 -0.37670831899E+02 -0.35816317643E+02  0.55944016976E+02  0.76479445741E+02  0.41800000000E+01 0. -1.
         -5    1    3    3    0  502  0.80063995245E+02 -0.31913009651E+02  0.23085275633E+03  0.24645314164E+03  0.41800000000E+01 0. -1.
        -11    1    1    2    0    0 -0.53909848094E+02  0.20614327410E+02  0.37848590378E+02  0.69019837798E+02  0.00000000000E+00 0.  1.
         11    1    1    2    0    0  0.11516684747E+02  0.47114999883E+02  0.12219797774E+03  0.13147168138E+03  0.00000000000E+00 0. -1.
</event>
<event>
 7    1  0.2693725E-009  0.1365588E+03  0.7561462E-02  0.1218036E+00
         -2   -1    0    0    0  501 -0.00000000000E+00  0.00000000000E+00  0.21470180150E+03  0.21470180150E+03  0.00000000000E+00 0.  1.
          2   -1    0    0  501    0  0.00000000000E+00 -0.00000000000E+00 -0.10185771103E+03  0.10185771103E+03  0.00000000000E+00 0. -1.
         25    2    1    2    0    0 -0.99385240892E+02 -0.59780659056E+01  0.78194783802E+02  0.17797883361E+03  0.12509547402E+03 0.  0.
          5    1    3    3  502    0  0.19984849098E+02  0.25567496804E+02  0.32895004399E+02  0.46396603332E+02  0.41800000000E+01 0. -1.
         -5    1    3    3    0  502 -0.11937008999E+03 -0.31545562709E+02  0.45299779403E+02  0.13158223028E+03  0.41800000000E+01 0. -1.
        -11    1    1    2    0    0  0.63707583467E+02  0.33333804353E+02 -0.13002892373E+02  0.73067598249E+02  0.00000000000E+00 0. -1.
         11    1    1    2    0    0  0.35677657425E+02 -0.27355738448E+02  0.47652199042E+02  0.65513080670E+02  0.00000000000E+00 0.  1.
</event>
<event>
 7    1  0.2693725E-009  0.9454657E+02  0.7561462E-02  0.1292201E+00
         -2   -1    0    0    0  501 -0.00000000000E+00  0.00000000000E+00  0.12632753871E+02  0.12632753871E+02  0.00000000000E+00 0.  1.
          2   -1    0    0  501    0  0.00000000000E+00 -0.00000000000E+00 -0.14011319104E+04  0.14011319104E+04  0.00000000000E+00 0. -1.
         25    2    1    2    0    0  0.38210733526E+02  0.46120923973E+02 -0.10548367123E+04  0.10639144831E+04  0.12508532231E+03 0.  0.
          5    1    3    3  502    0  0.16474423145E+02 -0.22429117559E+02 -0.57879569816E+02  0.64358285671E+02  0.41800000000E+01 0.  1.
         -5    1    3    3    0  502  0.21736310382E+02  0.68550041532E+02 -0.99695714251E+03  0.99955619742E+03  0.41800000000E+01 0.  1.
        -11    1    1    2    0    0 -0.33939138560E+02  0.78022997069E+01 -0.49122420919E+02  0.60214227919E+02  0.00000000000E+00 0.  1.
         11    1    1    2    0    0 -0.42715949665E+01 -0.53923223680E+02 -0.28454002325E+03  0.28963595324E+03  0.00000000000E+00 0. -1.
</event>
<event>
 7    1  0.2693725E-009  0.1828059E+03  0.7561462E-02  0.1165115E+00
         -1   -1    0    0    0  501 -0.00000000000E+00  0.00000000000E+00  0.12495404185E+03  0.12495404185E+03  0.00000000000E+00 0.  1.
          1   -1    0    0  501    0  0.00000000000E+00 -0.00000000000E+00 -0.40107897590E+03  0.40107897590E+03  0.00000000000E+00 0. -1.
         25    2    1    2    0    0 -0.13428113895E+03  0.10038581438E+03 -0.25068554307E+02  0.21067450849E+03  0.12508629065E+03 0.  0.
          5    1    3    3  502    0 -0.55906589776E+01 -0.15518425308E+02  0.25092056548E+02  0.30317663064E+02  0.41800000000E+01 0. -1.
         -5    1    3    3    0  502 -0.12869047997E+03  0.11590423969E+03 -0.50160610855E+02  0.18035684543E+03  0.41800000000E+01 0. -1.
        -11    1    1    2    0    0  0.91526023547E+02 -0.95571936561E+02 -0.23449432769E+03  0.26925563646E+03  0.00000000000E+00 0. -1.
         11    1    1    2    0    0  0.42755115402E+02 -0.48138778175E+01 -0.16562052046E+02  0.46102872803E+02  0.00000000000E+00 0.  1.
</event>
<event>
 7    1  0.2693725E-009  0.1678093E+03  0.7561462E-02  0.1180152E+00
          1   -1    0    0  501    0  0.00000000000E+00  0.00000000000E+00  0.27597024055E+03  0.27597024055E+03  0.00000000000E+00 0. -1.
         -1   -1    0    0    0  501 -0.00000000000E+00 -0.00000000000E+00 -0.16050506124E+03  0.16050506124E+03  0.00000000000E+00 0.  1.
         25    2    1    2    0    0 -0.11427303374E+03  0.56625789242E+02  0.18946292927E+03  0.26040129896E+03  0.12509128140E+03 0.  0.
          5    1    3    3  502    0 -0.45473692994E+02 -0.39428387601E+02  0.67821328678E+02  0.90772570345E+02  0.41800000000E+01 0.  1.
         -5    1    3    3    0  502 -0.68799340751E+02  0.96054176843E+02  0.12164160059E+03  0.16962872861E+03  0.41800000000E+01 0.  1.
        -11    1    1    2    0    0  0.84236670745E+02  0.91696400159E+01 -0.23730930197E+02  0.87994636452E+02  0.00000000000E+00 0. -1.
         11    1    1    2    0    0  0.30036363000E+02 -0.65795429258E+02 -0.50266819757E+02  0.88079366381E+02  0.00000000000E+00 0.  1.
</event>
<event>
 7    1  0.2693725E-009  0.1006565E+03  0.7561462E-02  0.1278921E+00
         -1   -1    0    0    0  501 -0.00000000000E+00  0.00000000000E+00  0.17266006025E+02  0.17266006025E+02  0.00000000000E+00 0.  1.
          1   -1    0    0  501    0  0.00000000000E+00 -0.00000000000E+00 -0.71057970340E+03  0.71057970340E+03  0.00000000000E+00 0. -1.
         25    2    1    2    0    0 -0.19933821662E+01  0.16077459207E+02 -0.44482894333E+03  0.46236671030E+03  0.12509087777E+03 0.  0.
          5    1    3    3  502    0 -0.57792528601E+02 -0.57123526555E+01 -0.13906094928E+03  0.15075817507E+03  0.41800000000E+01 0. -1.
         -5    1    3    3    0  502  0.55799146435E+02  0.21789811863E+02 -0.30576799404E+03  0.31160853522E+03  0.41800000000E+01 0. -1.
        -11    1    1    2    0    0  0.37615654604E+02  0.99654650724E+01 -0.57275192814E+02  0.69243741070E+02  0.00000000000E+00 0.  1.
         11    1    1    2    0    0 -0.35622272438E+02 -0.26042924280E+02 -0.19120956123E+03  0.19623525806E+03  0.00000000000E+00 0. -1.
</event>
<event>
 7    1  0.2693725E-009  0.1174872E+03  0.7561462E-02  0.1247301E+00
         -1   -1    0    0    0  501 -0.00000000000E+00  0.00000000000E+00  0.14958496614E+03  0.14958496614E+03  0.00000000000E+00 0.  1.
          1   -1    0    0  501    0  0.00000000000E+00 -0.00000000000E+00 -0.14361378062E+03  0.14361378062E+03  0.00000000000E+00 0. -1.
         25    2    1    2    0    0 -0.45292562287E+02  0.36562749867E+02  0.83062879944E+02  0.16103357272E+03  0.12507645118E+03 0.  0.
          5    1    3    3  502    0  0.13944781343E+02 -0.35190827126E+02  0.29812520668E+01  0.38199627020E+02  0.41800000000E+01 0.  1.
         -5    1    3    3    0  502 -0.59237343631E+02  0.71753576993E+02  0.80081627878E+02  0.12283394570E+03  0.41800000000E+01 0.  1.
        -11    1    1    2    0    0 -0.50183794950E+01  0.24284736572E+02 -0.50984722896E+01  0.25316535759E+02  0.00000000000E+00 0.  1.
         11    1    1    2    0    0  0.50310941782E+02 -0.60847486439E+02 -0.71993222136E+02  0.10684863828E+03  0.00000000000E+00 0. -1.
</event>
<event>
 7    1  0.2693725E-009  0.8997114E+02  0.7561462E-02  0.1302922E+00
          3   -1    0    0  501    0  0.00000000000E+00  0.00000000000E+00  0.13370792047E+03  0.13370792047E+03  0.00000000000E+00 0. -1.
         -3   -1    0    0    0  501 -0.00000000000E+00 -0.00000000000E+00 -0.12465738879E+03  0.12465738879E+03  0.00000000000E+00 0.  1.
         25    2    1    2    0    0 -0.64285482476E+01 -0.14020705762E+02 -0.63235353280E+02  0.14099383250E+03  0.12507055799E+03 0.  0.
          5    1    3    3  502    0  0.39688128356E+02 -0.11757232581E+02 -0.81229031358E+02  0.91263398938E+02  0.41800000000E+01 0. -1.
         -5    1    3    3    0  502 -0.46116676604E+02 -0.22634731804E+01  0.17993678078E+02  0.49730433565E+02  0.41800000000E+01 0. -1.
        -11    1    1    2    0    0 -0.28236875294E+02 -0.26450031915E+02  0.24492656854E+02  0.45790998618E+02  0.00000000000E+00 0.  1.
         11    1    1    2    0    0  0.34665423542E+02  0.40470737677E+02  0.47793228103E+02  0.71580478134E+02  0.00000000000E+00 0. -1.
</event>
<event>
 7    1  0.2693725E-009  0.1076424E+03  0.7561462E-02  0.1264999E+00
         -1   -1    0    0    0  501 -0.00000000000E+00  0.00000000000E+00  0.68950121972E+02  0.68950121972E+02  0.00000000000E+00 0.  1.
          1   -1    0    0  501    0  0.00000000000E+00 -0.00000000000E+00 -0.19337430506E+03  0.19337430506E+03  0.00000000000E+00 0. -1.
         25    2    1    2    0    0  0.68926861021E+01 -0.35537011705E+02 -0.69450751473E+02  0.14758511448E+03  0.12509025067E+03 0.  0.
          5    1    3    3  502    0  0.31512779880E+02 -0.68814970938E+02 -0.73747716298E+02  0.10575799535E+03  0.41800000000E+01 0. -1.
         -5    1    3    3    0  502 -0.24620093778E+02  0.33277959233E+02  0.42969648242E+01  0.41827119134E+02  0.41800000000E+01 0. -1.
        -11    1    1    2    0    0 -0.48406411950E+02  0.27230393249E+02 -0.44390894697E+02  0.71100116501E+02  0.00000000000E+00 0. -1.
         11    1    1    2    0    0  0.41513725848E+02  0.83066184559E+01 -0.10582536914E+02  0.43639196046E+02  0.00000000000E+00 0.  1.
</event>
<event>
 7    1  0.2693725E-009  0.1146367E+03  0.7561462E-02  0.1252217E+00
         -1   -1    0    0    0  501 -0.00000000000E+00  0.00000000000E+00  0.36772003187E+03  0.36772003187E+03  0.00000000000E+00 0.  1.
          1   -1    0    0  501    0  0.00000000000E+00 -0.00000000000E+00 -0.43814599187E+02  0.43814599187E+02  0.00000000000E+00 0. -1.
         25    2    1    2    0    0 -0.62133373867E+02  0.27697052959E+01  0.14490348343E+03  0.20127786798E+03  0.12509010038E+03 0.  0.
          5    1    3    3  502    0 -0.84837326618E+02 -0.19338571778E+02  0.14518209752E+03  0.16931233324E+03  0.41800000000E+01 0.  1.
         -5    1    3    3    0  502  0.22703952751E+02  0.22108277074E+02 -0.27861408581E+00  0.31965534744E+02  0.41800000000E+01 0.  1.
        -11    1    1    2    0    0  0.79172117072E+02 -0.24226807198E+02  0.13043797005E+03  0.15449668715E+03  0.00000000000E+00 0. -1.
         11    1    1    2    0    0 -0.17038743204E+02  0.21457101902E+02  0.48563979201E+02  0.55760075931E+02  0.00000000000E+00 0.  1.
</event>
<event>
 7    1  0.2693725E-009  0.1196040E+03  0.7561462E-02  0.1243752E+00
          2   -1    0    0  501    0  0.00000000000E+00  0.00000000000E+00  0.11137308357E+03  0.11137308357E+03  0.00000000000E+00 0. -1.
         -2   -1    0    0    0  501 -0.00000000000E+00 -0.00000000000E+00 -0.26064627497E+03  0.26064627497E+03  0.00000000000E+00 0.  1.
         25    2    1    2    0    0 -0.54610509939E+02 -0.31528945240E+02  0.45899723237E+02  0.14740914984E+03  0.12508513373E+03 0.  0.
          5    1    3    3  502    0  0.15497949009E+02 -0.57969295478E+02  0.14091726968E+01  0.60167132302E+02  0.41800000000E+01 0.  1.
         -5    1    3    3    0  502 -0.70108458948E+02  0.26440350238E+02  0.44490550540E+02  0.87242017538E+02  0.41800000000E+01 0.  1.
        -11    1    1    2    0    0  0.21257706203E+02  0.57781031009E+02 -0.15233189341E+03  0.16430320559E+03  0.00000000000E+00 0.  1.
         11    1    1    2    0    0  0.33352803736E+02 -0.26252085769E+02 -0.42841021225E+02  0.60307003108E+02  0.00000000000E+00 0. -1.
</event>
<event>
 7    1  0.2693725E-009  0.9114887E+02  0.7561462E-02  0.1300093E+00
         -2   -1    0    0    0  501 -0.00000000000E+00  0.00000000000E+00  0.67885352046E+03  0.67885352046E+03  0.00000000000E+00 0. -1.
          2   -1    0    0  501    0  0.00000000000E+00 -0.00000000000E+00 -0.26263689086E+02  0.26263689086E+02  0.00000000000E+00 0.  1.
         25    2    1    2    0    0 -0.35861585313E+02  0.67685110371E+02  0.34482877642E+03  0.37472815723E+03  0.12508788632E+03 0.  0.
          5    1    3    3  502    0 -0.37041621905E+02  0.20447271868E+02  0.31677718598E+03  0.31961763192E+03  0.41800000000E+01 0. -1.
         -5    1    3    3    0  502  0.11800365913E+01  0.47237838504E+02  0.28051590441E+02  0.55110525303E+02  0.41800000000E+01 0. -1.
        -11    1    1    2    0    0  0.41917270753E+02 -0.24122466052E+02  0.52555968720E+02  0.71421851026E+02  0.00000000000E+00 0.  1.
         11    1    1    2    0    0 -0.60556854399E+01 -0.43562644319E+02  0.25520508623E+03  0.25896720129E+03  0.00000000000E+00 0. -1.
</event>
<event>
 7    1  0.2693725E-009  0.1514732E+03  0.7561462E-02  0.1198674E+00
          4   -1    0    0  501    0  0.00000000000E+00  0.00000000000E+00  0.20870036248E+03  0.20870036248E+03  0.00000000000E+00 0. -1.
         -4   -1    0    0    0  501 -0.00000000000E+00 -0.00000000000E+00 -0.21760524672E+03  0.21760524672E+03  0.00000000000E+00 0.  1.
         25    2    1    2    0    0 -0.10990158303E+03  0.57489262124E+02 -0.14107225397E+03  0.22568126834E+03  0.12508909156E+03 0.  0.
          5    1    3    3  502    0 -0.13609598284E+03  0.61134914223E+02 -0.12259935884E+03  0.19315193364E+03  0.41800000000E+01 0.  1.
         -5    1    3    3    0  502  0.26194399816E+02 -0.36456520993E+01 -0.18472895136E+02  0.32529334694E+02  0.41800000000E+01 0.  1.
        -11    1    1    2    0    0  0.85884653363E+02 -0.56648349977E+02  0.48816568904E+02  0.11387829748E+03  0.00000000000E+00 0. -1.
         11    1    1    2    0    0  0.24016929666E+02 -0.84091214711E+00  0.83350800825E+02  0.86746043380E+02  0.00000000000E+00 0.  1.
</event>
<event>
 7    1  0.2693725E-009  0.1340181E+03  0.7561462E-02  0.1221613E+00
          2   -1    0    0  501    0  0.00000000000E+00  0.00000000000E+00  0.91496190301E+03  0.91496190301E+03  0.00000000000E+00 0.  1.
         -2   -1    0    0    0  501 -0.00000000000E+00 -0.00000000000E+00 -0.31993222300E+02  0.31993222300E+02  0.00000000000E+00 0. -1.
         25    2    1    2    0    0 -0.85504552901E+02  0.22023607106E+01  0.75109942879E+03  0.76623279451E+03  0.12508582852E+03 0.  0.
          5    1    3    3  502    0  0.29390746774E+02  0.71599017161E+00  0.79563042626E+02  0.84923958868E+02  0.41800000000E+01 0.  1.
         -5    1    3    3    0  502 -0.11489529968E+03  0.14863705390E+01  0.67153638616E+03  0.68130883564E+03  0.41800000000E+01 0.  1.
        -11    1    1    2    0    0  0.58903068480E+02 -0.44202825452E+02  0.73439948735E+02  0.10400426590E+03  0.00000000000E+00 0.  1.
         11    1    1    2    0    0  0.26601484422E+02  0.42000464741E+02  0.58429303191E+02  0.76718064909E+02  0.00000000000E+00 0. -1.
</event>
<event>
 7    1  0.2693725E-009  0.1572678E+03  0.7561462E-02  0.1191816E+00
         -1   -1    0    0    0  501 -0.00000000000E+00  0.00000000000E+00  0.29981955017E+03  0.29981955017E+03  0.00000000000E+00 0.  1.
          1   -1    0    0  501    0  0.00000000000E+00 -0.00000000000E+00 -0.10676110862E+03  0.10676110862E+03  0.00000000000E+00 0. -1.
         25    2    1    2    0    0  0.13055706686E+03 -0.38525102751E+02  0.40939270709E+02  0.18934960936E+03  0.12509164412E+03 0.  0.
          5    1    3    3  502    0  0.51323700630E+02  0.38118859148E+02 -0.14794834802E+02  0.65753548999E+02  0.41800000000E+01 0. -1.
         -5    1    3    3    0  502  0.79233366228E+02 -0.76643961899E+02  0.55734105511E+02  0.12359606036E+03  0.41800000000E+01 0. -1.
        -11    1    1    2    0    0 -0.85101981256E+02  0.81706720338E+01  0.44162166391E+02  0.96225797142E+02  0.00000000000E+00 0. -1.
         11    1    1    2    0    0 -0.45455085602E+02  0.30354430717E+02  0.10795700445E+03  0.12100525229E+03  0.00000000000E+00 0.  1.
</event>
<event>
 7    1  0.2693725E-009  0.1952888E+03  0.7561462E-02  0.1153776E+00
          2   -1    0    0  501    0  0.00000000000E+00  0.00000000000E+00  0.19098947256E+04  0.19098947256E+04  0.00000000000E+00 0. -1.
         -2   -1    0    0    0  501 -0.00000000000E+00 -0.00000000000E+00 -0.27760508061E+02  0.27760508061E+02  0.00000000000E+00 0.  1.
         25    2    1    2    0    0 -0.16104169383E+03 -0.79525247634E+02  0.13702040819E+04  0.13875755424E+04  0.12509183713E+03 0.  0.
          5    1    3    3  502    0 -0.12823388002E+03 -0.32857148351E+02  0.12144537737E+04  0.12216541904E+04  0.41800000000E+01 0.  1.
         -5    1    3    3    0  502 -0.32807813807E+02 -0.46668099283E+02  0.15575030819E+03  0.16592135197E+03  0.41800000000E+01 0.  1.
        -11    1    1    2    0    0  0.95977844681E+02  0.93934237281E+02  0.32663166336E+03  0.35316232969E+03  0.00000000000E+00 0.  1.
         11    1    1    2    0    0  0.65063849145E+02 -0.14408989647E+02  0.18529847226E+03  0.19691736152E+03  0.00000000000E+00 0. -1.
</event>
<event>
 7    1  0.2693725E-009  0.1073546E+03  0.7561462E-02  0.1265549E+00
          2   -1    0    0  501    0  0.00000000000E+00  0.00000000000E+00  0.46291048910E+03  0.46291048910E+03  0.00000000000E+00 0. -1.
         -2   -1    0    0    0  501 -0.00000000000E+00 -0.00000000000E+00 -0.33098204482E+02  0.33098204482E+02  0.00000000000E+00 0.  1.
         25    2    1    2    0    0  0.33007784761E+02  0.60302817147E+01  0.14558349021E+03  0.19485451134E+03  0.12509136587E+03 0.  0.
          5    1    3    3  502    0  0.32280198173E+01 -0.58278150361E+02  0.64986497137E+02  0.87449872107E+02  0.41800000000E+01 0. -1.
         -5    1    3    3    0  502  0.29779764944E+02  0.64308432075E+02  0.80596993069E+02  0.10740463923E+03  0.41800000000E+01 0. -1.
        -11    1    1    2    0    0 -0.26452440209E+01 -0.39742558193E+02  0.21308053198E+03  0.21677126506E+03  0.00000000000E+00 0. -1.
         11    1    1    2    0    0 -0.30362540740E+02  0.33712276479E+02  0.71148262433E+02  0.84382917186E+02  0.00000000000E+00 0.  1.
</event>
<event>
 7    1  0.2693725E-009  0.1301245E+03  0.7561462E-02  0.1227271E+00
         -2   -1    0    0    0  501 -0.00000000000E+00  0.00000000000E+00  0.13279961207E+03  0.13279961207E+03  0.00000000000E+00 0.  1.
          2   -1    0    0  501    0  0.00000000000E+00 -0.00000000000E+00 -0.18450879917E+03  0.18450879917E+03  0.00000000000E+00 0. -1.
         25    2    1    2    0    0 -0.80539123488E+02  0.60876805763E+02  0.23577145570E+02  0.16246828622E+03  0.12509007291E+03 0.  0.
          5    1    3    3  502    0  0.28994836608E+02  0.38006472286E+01 -0.14830926885E+02  0.33054111114E+02  0.41800000000E+01 0.  1.
         -5    1    3    3    0  502 -0.10953396010E+03  0.57076158534E+02  0.38408072455E+02  0.12941417510E+03  0.41800000000E+01 0.  1.
        -11    1    1    2    0    0  0.79670981435E+02 -0.45547610107E+02 -0.15447294945E+02  0.93062715361E+02  0.00000000000E+00 0.  1.
         11    1    1    2    0    0  0.86814205352E+00 -0.15329195656E+02 -0.59839037717E+02  0.61777409666E+02  0.00000000000E+00 0. -1.
</event>
<event>
 7    1  0.2693725E-009  0.8379563E+02  0.7561462E-02  0.1318612E+00
         -2   -1    0    0    0  501 -0.00000000000E+00  0.00000000000E+00  0.55201935971E+03  0.55201935971E+03  0.00000000000E+00 0.  1.
          2   -1    0    0  501    0  0.00000000000E+00 -0.00000000000E+00 -0.26330795654E+02  0.26330795654E+02  0.00000000000E+00 0. -1.
         25    2    1    2    0    0 -0.20452405545E+01  0.23785642143E+02  0.40067127070E+03  0.42042252432E+03  0.12509073511E+03 0.  0.
          5    1    3    3  502    0  0.23470790351E+02 -0.42450672470E+02  0.96938849212E+02  0.10847834106E+03  0.41800000000E+01 0. -1.
         -5    1    3    3    0  502 -0.25516030906E+02  0.66236314613E+02  0.30373242149E+03  0.31194418326E+03  0.41800000000E+01 0. -1.
        -11    1    1    2    0    0 -0.10573011889E+02 -0.31352407735E+02  0.13574474386E+03  0.13971899490E+03  0.00000000000E+00 0.  1.
         11    1    1    2    0    0  0.12618252444E+02  0.75667655921E+01 -0.10727450495E+02  0.18208636148E+02  0.00000000000E+00 0. -1.
</event>
<event>
 7    1  0.2693725E-009  0.1898870E+03  0.7561462E-02  0.1158563E+00
          1   -1    0    0  501    0  0.00000000000E+00  0.00000000000E+00  0.12844677893E+04  0.12844677893E+04  0.00000000000E+00 0. -1.
         -1   -1    0    0    0  501 -0.00000000000E+00 -0.00000000000E+00 -0.38560557355E+02  0.38560557355E+02  0.00000000000E+00 0.  1.
         25    2    1    2    0    0  0.14132053509E+03 -0.69434298390E+02  0.30924625682E+03  0.36888342783E+03  0.12509644495E+03 0.  0.
          5    1    3    3  502    0  0.85725311144E+01 -0.64562825105E+02  0.73809257524E+02  0.98524745985E+02  0.41800000000E+01 0. -1.
         -5    1    3    3    0  502  0.13274800398E+03 -0.48714732850E+01  0.23543699930E+03  0.27035868185E+03  0.41800000000E+01 0. -1.
        -11    1    1    2    0    0 -0.10613739732E+03  0.91452574490E+02  0.74140383527E+03  0.75452525965E+03  0.00000000000E+00 0.  1.
         11    1    1    2    0    0 -0.35183137771E+02 -0.22018276100E+02  0.19525713988E+03  0.19961965921E+03  0.00000000000E+00 0. -1.
</event>
<event>
 7    1  0.2693725E-009  0.9270867E+02  0.7561462E-02  0.1296422E+00
          4   -1    0    0  501    0  0.00000000000E+00  0.00000000000E+00  0.86936046671E+02  0.86936046671E+02  0.00000000000E+00 0. -1.
         -4   -1    0    0    0  501 -0.00000000000E+00 -0.00000000000E+00 -0.22859063100E+03  0.22859063100E+03  0.00000000000E+00 0.  1.
         25    2    1    2    0    0 -0.82781777068E+02 -0.73582439554E+01 -0.40000838517E+02  0.15541661178E+03  0.12508912729E+03 0.  0.
          5    1    3    3  502    0 -0.86681500660E+02 -0.24144314126E+01 -0.77978261092E+02  0.11669444562E+03  0.41800000000E+01 0. -1.
         -5    1    3    3    0  502  0.38997235915E+01 -0.49438125428E+01  0.37977422574E+02  0.38722166158E+02  0.41800000000E+01 0. -1.
        -11    1    1    2    0    0  0.53474664961E+02  0.22547963065E+02 -0.11146963799E+03  0.12567191661E+03  0.00000000000E+00 0.  1.
         11    1    1    2    0    0  0.29307112107E+02 -0.15189719110E+02  0.98158921793E+01  0.34438149282E+02  0.00000000000E+00 0. -1.
</event>
<event>
 7    1  0.2693725E-009  0.8553802E+02  0.7561462E-02  0.1314032E+00
          2   -1    0    0  501    0  0.00000000000E+00  0.00000000000E+00  0.37425621551E+03  0.37425621551E+03  0.00000000000E+00 0. -1.
         -2   -1    0    0    0  501 -0.00000000000E+00 -0.00000000000E+00 -0.59491147544E+02  0.59491147544E+02  0.00000000000E+00 0.  1.
         25    2    1    2    0    0  0.41876273727E+02 -0.36607315475E+02  0.29460768250E+03  0.32485372352E+03  0.12507012932E+03 0.  0.
          5    1    3    3  502    0  0.51209559431E+02 -0.20226234080E+02  0.36874749751E+02  0.66398336511E+02  0.41800000000E+01 0. -1.
         -5    1    3    3    0  502 -0.93332857045E+01 -0.16381081395E+02  0.25773293275E+03  0.25845538701E+03  0.41800000000E+01 0. -1.
        -11    1    1    2    0    0 -0.44788898629E+02  0.58939184777E+02 -0.61285173751E+01  0.74279416178E+02  0.00000000000E+00 0.  1.
         11    1    1    2    0    0  0.29126249020E+01 -0.22331869302E+02  0.26285902838E+02  0.34614223353E+02  0.00000000000E+00 0. -1.
</event>
<event>
 7    1  0.2693725E-009  0.1452606E+03  0.7561462E-02  0.1206421E+00
          3   -1    0    0  501    0  0.00000000000E+00  0.00000000000E+00  0.15658030114E+03  0.15658030114E+03  0.00000000000E+00 0. -1.
         -3   -1    0    0    0  501 -0.00000000000E+00 -0.00000000000E+00 -0.19033762384E+03  0.19033762384E+03  0.00000000000E+00 0.  1.
         25    2    1    2    0    0  0.79071780132E+02 -0.10747828440E+03 -0.18038479324E+01  0.18290748295E+03  0.12509182796E+03 0.  0.
          5    1    3    3  502    0  0.23202587614E+02 -0.62378532523E+01 -0.51496808639E+02  0.56979510223E+02  0.41800000000E+01 0. -1.
         -5    1    3    3    0  502  0.55869192518E+02 -0.10124043115E+03  0.49692960707E+02  0.12592797273E+03  0.41800000000E+01 0. -1.
        -11    1    1    2    0    0 -0.10531916223E+02  0.72900150906E+02 -0.44746546650E+02  0.86183563970E+02  0.00000000000E+00 0.  1.
         11    1    1    2    0    0 -0.68539863909E+02  0.34578133496E+02  0.12793071884E+02  0.77826878063E+02  0.00000000000E+00 0. -1.
</event>
<event>
 7    1  0.2693725E-009  0.1447152E+03  0.7561462E-02  0.1207121E+00
         -2   -1    0    0    0  501 -0.00000000000E+00  0.00000000000E+00  0.12858757393E+03  0.12858757393E+03  0.00000000000E+00 0.  1.
          2   -1    0    0  501    0  0.00000000000E+00 -0.00000000000E+00 -0.29334708629E+03  0.29334708629E+03  0.00000000000E+00 0. -1.
         25    2    1    2    0    0 -0.58632943608E+02 -0.41173709982E+02 -0.18454460650E+03  0.23417370823E+03  0.12509003705E+03 0.  0.
          5    1    3    3  502    0  0.12598675930E+02 -0.27836180606E+02 -0.15116180058E+03  0.15427553903E+03  0.41800000000E+01 0.  1.
         -5    1    3    3    0  502 -0.71231619538E+02 -0.13337529376E+02 -0.33382805912E+02  0.79898169206E+02  0.41800000000E+01 0.  1.
        -11    1    1    2    0    0  0.82415960419E+02  0.95829668180E+02  0.21078734119E+02  0.12814066048E+03  0.00000000000E+00 0. -1.
         11    1    1    2    0    0 -0.23783016811E+02 -0.54655958198E+02 -0.12936399813E+01  0.59620291508E+02  0.00000000000E+00 0.  1.
</event>
<event>
 7    1  0.2693725E-009  0.1413876E+03  0.7561462E-02  0.1211474E+00
         -2   -1    0    0    0  501 -0.00000000000E+00  0.00000000000E+00  0.31269752009E+02  0.31269752009E+02  0.00000000000E+00 0.  1.
          2   -1    0    0  501    0  0.00000000000E+00 -0.00000000000E+00 -0.11861607448E+04  0.11861607448E+04  0.00000000000E+00 0. -1.
         25    2    1    2    0    0  0.91916086492E+02  0.39298919164E+02 -0.99422007212E+03  0.10070322862E+04  0.12508997408E+03 0.  0.
          5    1    3    3  502    0  0.22061942595E+02 -0.38717236035E+02 -0.48975225097E+03  0.49179314087E+03  0.41800000000E+01 0. -1.
         -5    1    3    3    0  502  0.69854143897E+02  0.78016155199E+02 -0.50446782115E+03  0.51523914532E+03  0.41800000000E+01 0. -1.
        -11    1    1    2    0    0 -0.31324593771E+02 -0.61229375426E+02 -0.10341881345E+03  0.12420031226E+03  0.00000000000E+00 0.  1.
         11    1    1    2    0    0 -0.60591492721E+02  0.21930456262E+02 -0.57252107249E+02  0.86197898387E+02  0.00000000000E+00 0. -1.
</event>
<event>
 7    1  0.2693725E-009  0.1711886E+03  0.7561462E-02  0.1176614E+00
          2   -1    0    0  501    0  0.00000000000E+00  0.00000000000E+00  0.98090416618E+03  0.98090416618E+03  0.00000000000E+00 0. -1.
         -2   -1    0    0    0  501 -0.00000000000E+00 -0.00000000000E+00 -0.36774743596E+02  0.36774743596E+02  0.00000000000E+00 0.  1.
         25    2    1    2    0    0 -0.11198626500E+03 -0.92610727415E+02  0.63487756552E+03  0.66320008278E+03  0.12508859348E+03 0.  0.
          5    1    3    3  502    0 -0.66674650194E+02 -0.10605426518E+03  0.30230053940E+03  0.32725541197E+03  0.41800000000E+01 0.  1.
         -5    1    3    3    0  502 -0.45311614804E+02  0.13443537765E+02  0.33257702611E+03  0.33594467080E+03  0.41800000000E+01 0.  1.
        -11    1    1    2    0    0  0.57617076009E+02 -0.50234710002E+01  0.14201835044E+03  0.15334332255E+03  0.00000000000E+00 0.  1.
         11    1    1    2    0    0  0.54369188990E+02  0.97634198415E+02  0.16723350663E+03  0.20113550445E+03  0.00000000000E+00 0. -1.
</event>
<event>
 7    1  0.2693725E-009  0.1164066E+03  0.7561462E-02  0.1249146E+00
          2   -1    0    0  501    0  0.00000000000E+00  0.00000000000E+00  0.30867672835E+04  0.30867672835E+04  0.00000000000E+00 0. -1.
         -2   -1    0    0    0  501 -0.00000000000E+00 -0.00000000000E+00 -0.12236619258E+02  0.12236619258E+02  0.00000000000E+00 0.  1.
         25    2    1    2    0    0 -0.82286326922E+02 -0.37655027861E+01  0.27069292088E+04  0.27110692435E+04  0.12508190467E+03 0.  0.
          5    1    3    3  502    0 -0.38874502720E+02  0.39880332866E+02  0.21512737759E+04  0.21519986058E+04  0.41800000000E+01 0. -1.
         -5    1    3    3    0  502 -0.43411824202E+02 -0.43645835653E+02  0.55565543287E+03  0.55907063770E+03  0.41800000000E+01 0. -1.
        -11    1    1    2    0    0  0.45831135929E+02 -0.38207840777E+02  0.26069990628E+03  0.26744115848E+03  0.00000000000E+00 0. -1.
         11    1    1    2    0    0  0.36455190993E+02  0.41973343563E+02  0.10690154915E+03  0.12049350078E+03  0.00000000000E+00 0.  1.
</event>
<event>
 7    1  0.2693725E-009  0.6841192E+02  0.7561462E-02  0.1365578E+00
          2   -1    0    0  501    0  0.00000000000E+00  0.00000000000E+00  0.13259903798E+03  0.13259903798E+03  0.00000000000E+00 0. -1.
         -2   -1    0    0    0  501 -0.00000000000E+00 -0.00000000000E+00 -0.11940232029E+03  0.11940232029E+03  0.00000000000E+00 0.  1.
         25    2    1    2    0    0 -0.15950893060E+02  0.10209429222E+02  0.69105390648E+02  0.14416296956E+03  0.12509493731E+03 0.  0.
          5    1    3    3  502    0  0.31991336108E+02  0.18137104622E+02  0.85127938585E+02  0.92825850267E+02  0.41800000000E+01 0. -1.
         -5    1    3    3    0  502 -0.47942229168E+02 -0.79276753999E+01 -0.16022547937E+02  0.51337119292E+02  0.41800000000E+01 0. -1.
        -11    1    1    2    0    0 -0.66402957514E+01 -0.23777177935E+02 -0.72574479722E+02  0.76658351307E+02  0.00000000000E+00 0.  1.
         11    1    1    2    0    0  0.22591188811E+02  0.13567748713E+02  0.16665806771E+02  0.31180037402E+02  0.00000000000E+00 0. -1.
</event>
<event>
 7    1  0.2693725E-009  0.1766995E+03  0.7561462E-02  0.1171036E+00
         -1   -1    0    0    0  501 -0.00000000000E+00  0.00000000000E+00  0.80420469087E+03  0.80420469087E+03  0.00000000000E+00 0.  1.
          1   -1    0    0  501    0  0.00000000000E+00 -0.00000000000E+00 -0.63697473378E+02  0.63697473378E+02  0.00000000000E+00 0. -1.
         25    2    1    2    0    0  0.47160683579E+02  0.15015856345E+03  0.15090967562E+03  0.25138236963E+03  0.12509053247E+03 0.  0.
          5    1    3    3  502    0  0.16181472341E+02 -0.60418933438E+01 -0.13606223851E+02  0.22381828562E+02  0.41800000000E+01 0. -1.
         -5    1    3    3    0  502  0.30979211238E+02  0.15620045679E+03  0.16451589947E+03  0.22900054107E+03  0.41800000000E+01 0. -1.
        -11    1    1    2    0    0 -0.50856260929E+02 -0.36469505982E+02  0.27379877922E+03  0.28085967251E+03  0.00000000000E+00 0. -1.
         11    1    1    2    0    0  0.36955773495E+01 -0.11368905746E+03  0.31579876266E+03  0.33566012211E+03  0.00000000000E+00 0.  1.
</event>
<event>
 7    1  0.2693725E-009  0.8725249E+02  0.7561462E-02  0.1309645E+00
         -1   -1    0    0    0  501 -0.00000000000E+00  0.00000000000E+00  0.69157918811E+02  0.69157918811E+02  0.00000000000E+00 0.  1.
          1   -1    0    0  501    0  0.00000000000E+00 -0.00000000000E+00 -0.29451728389E+03  0.29451728389E+03  0.00000000000E+00 0. -1.
         25    2    1    2    0    0 -0.57008151947E+02 -0.22447038054E+02 -0.34206024035E+02  0.14342688064E+03  0.12508964428E+03 0.  0.
          5    1    3    3  502    0  0.49553089935E+01 -0.28944294248E+02  0.37844360516E+02  0.48083212035E+02  0.41800000000E+01 0.  1.
         -5    1    3    3    0  502 -0.61963460940E+02  0.64972561938E+01 -0.72050384551E+02  0.95343668608E+02  0.41800000000E+01 0.  1.
        -11    1    1    2    0    0  0.12093002629E+01 -0.15097793639E+02  0.24075329088E+01  0.15336296639E+02  0.00000000000E+00 0.  1.
         11    1    1    2    0    0  0.55798851684E+02  0.37544831693E+02 -0.19356087395E+03  0.20491202542E+03  0.00000000000E+00 0. -1.
</event>
<event>
 7    1  0.2693725E-009  0.1405027E+03  0.7561462E-02  0.1212654E+00
          2   -1    0    0  501    0  0.00000000000E+00  0.00000000000E+00  0.25744112139E+04  0.25744112139E+04  0.00000000000E+00 0. -1.
         -2   -1    0    0    0  501 -0.00000000000E+00 -0.00000000000E+00 -0.13853955531E+02  0.13853955531E+02  0.00000000000E+00 0.  1.
         25    2    1    2    0    0  0.52716502133E+02 -0.92460321974E+02  0.20893447228E+04  0.20957903968E+04  0.12509227041E+03 0.  0.
          5    1    3    3  502    0 -0.23102139547E+02 -0.52636790202E+02  0.13922205880E+04  0.13934130682E+04  0.41800000000E+01 0. -1.
         -5    1    3    3    0  502  0.75818641680E+02 -0.39823531771E+02  0.69712413481E+03  0.70237732868E+03  0.41800000000E+01 0. -1.
        -11    1    1    2    0    0 -0.61844785318E+02  0.20594026300E+02  0.15650350715E+03  0.16953536251E+03  0.00000000000E+00 0.  1.
         11    1    1    2    0    0  0.91282831853E+01  0.71866295674E+02  0.31470902840E+03  0.32293941005E+03  0.00000000000E+00 0. -1.
</event>
<event>
 7    1  0.3556819E-009  0.1085385E+03  0.7561462E-02  0.1263301E+00
          1   -1    0    0  501    0  0.00000000000E+00  0.00000000000E+00  0.22737560294E+03  0.22737560294E+03  0.00000000000E+00 0. -1.
         -1   -1    0    0    0  501 -0.00000000000E+00 -0.00000000000E+00 -0.10772448373E+03  0.10772448373E+03  0.00000000000E+00 0.  1.
         25    2    1    2    0    0 -0.80909621785E+02  0.20284074403E+02  0.14463240094E+03  0.20862377422E+03  0.12509011630E+03 0.  0.
          5    1    3    3  502    0  0.15465631544E+02 -0.22282618516E+02 -0.25592808698E+01  0.27563076126E+02  0.41800000000E+01 0. -1.
         -5    1    3    3    0  502 -0.96375253329E+02  0.42566692918E+02  0.14719168181E+03  0.18106069809E+03  0.41800000000E+01 0. -1.
        -11    1    1    2    0    0  0.41198261951E+02 -0.16212286717E+02 -0.59181919892E+02  0.73909638550E+02  0.00000000000E+00 0.  1.
         11    1    1    2    0    0  0.39711359834E+02 -0.40717876859E+01  0.34200638156E+02  0.52566673902E+02  0.00000000000E+00 0. -1.
</event>
<event>
 7    1  0.2693725E-009  0.7657079E+02  0.7561462E-02  0.1339075E+00
         -2   -1    0    0    0  501 -0.00000000000E+00  0.00000000000E+00  0.17754514537E+03  0.17754514537E+03  0.00000000000E+00 0.  1.
          2   -1    0    0  501    0  0.00000000000E+00 -0.00000000000E+00 -0.65040627189E+02  0.65040627189E+02  0.00000000000E+00 0. -1.
         25    2    1    2    0    0  0.27501474377E+01  0.15839770447E+02  0.71364860795E+02  0.14491205452E+03  0.12509236008E+03 0.  0.
          5    1    3    3  502    0  0.25493170625E+01  0.40971348299E+02 -0.22950598124E+02  0.47216022209E+02  0.41800000000E+01 0.  1.
         -5    1    3    3    0  502  0.20083037519E+00 -0.25131577852E+02  0.94315458919E+02  0.97696032311E+02  0.41800000000E+01 0.  1.
        -11    1    1    2    0    0 -0.33833955077E+02 -0.35959265848E+02  0.34043104396E+02  0.59972812786E+02  0.00000000000E+00 0.  1.
         11    1    1    2    0    0  0.31083807640E+02  0.20119495401E+02  0.70965529912E+01  0.37700905254E+02  0.00000000000E+00 0. -1.
</event>
<event>
 7    1  0.2693725E-009  0.7520989E+02  0.7561462E-02  0.1343222E+00
         -2   -1    0    0    0  501 -0.00000000000E+00  0.00000000000E+00  0.71914954352E+02  0.71914954352E+02  0.00000000000E+00 0.  1.
          2   -1    0    0  501    0  0.00000000000E+00 -0.00000000000E+00 -0.22595758761E+03  0.22595758761E+03  0.00000000000E+00 0. -1.
         25    2    1    2    0    0 -0.65396370030E+02 -0.13253936470E+02 -0.65070400302E+02  0.15600406325E+03  0.12510299240E+03 0.  0.
          5    1    3    3  502    0 -0.14413014656E+02 -0.17091999025E+02 -0.94271687131E+02  0.96976774625E+02  0.41800000000E+01 0.  1.
         -5    1    3    3    0  502 -0.50983355374E+02  0.38380625544E+01  0.29201286829E+02  0.59027288620E+02  0.41800000000E+01 0.  1.
        -11    1    1    2    0    0  0.10725667299E+02  0.18573006130E+02  0.13683575511E+02  0.25440847755E+02  0.00000000000E+00 0. -1.
         11    1    1    2    0    0  0.54670702731E+02 -0.53190696598E+01 -0.10265580847E+03  0.11642763096E+03  0.00000000000E+00 0.  1.
</event>
<event>
 7    1  0.3282734E-009  0.1115928E+03  0.7561462E-02  0.1257648E+00
         -1   -1    0    0    0  501 -0.00000000000E+00  0.00000000000E+00  0.37350703086E+02  0.37350703086E+02  0.00000000000E+00 0.  1.
          1   -1    0    0  501    0  0.00000000000E+00 -0.00000000000E+00 -0.47216460680E+03  0.47216460680E+03  0.00000000000E+00 0. -1.
         25    2    1    2    0    0 -0.37107953869E+02 -0.59444562934E+02 -0.29710448267E+03  0.32989299713E+03  0.12509060569E+03 0.  0.
          5    1    3    3  502    0  0.30653869808E+02 -0.68167130354E+02 -0.14990018454E+03  0.16755284277E+03  0.41800000000E+01 0. -1.
         -5    1    3    3    0  502 -0.67761823678E+02  0.87225674206E+01 -0.14720429813E+03  0.16234015437E+03  0.41800000000E+01 0. -1.
        -11    1    1    2    0    0  0.78767688705E+01  0.47747839896E+02 -0.11765821217E+02  0.49802954245E+02  0.00000000000E+00 0.  1.
         11    1    1    2    0    0  0.29231184999E+02  0.11696723038E+02 -0.12594359982E+03  0.12981935850E+03  0.00000000000E+00 0. -1.
</event>
<event>
 7    1  0.2693725E-009  0.6903009E+02  0.7561462E-02  0.1363423E+00
         -2   -1    0    0    0  501 -0.00000000000E+00  0.00000000000E+00  0.10338629853E+03  0.10338629853E+03  0.00000000000E+00 0.  1.
          2   -1    0    0  501    0  0.00000000000E+00 -0.00000000000E+00 -0.13972908287E+03  0.13972908287E+03  0.00000000000E+00 0. -1.
         25    2    1    2    0    0  0.74794923207E+01  0.51900844126E+02 -0.10913935378E+02  0.13607370340E+03  0.12508916158E+03 0.  0.
          5    1    3    3  502    0 -0.16944602093E+02  0.42955840374E+02  0.50916880322E+02  0.68864539961E+02  0.41800000000E+01 0.  1.
         -5    1    3    3    0  502  0.24424094414E+02  0.89450037520E+01 -0.61830815700E+02  0.67209163439E+02  0.41800000000E+01 0.  1.
        -11    1    1    2    0    0  0.11652617930E+02 -0.18905533355E+01  0.28620896636E+02  0.30959867906E+02  0.00000000000E+00 0.  1.
         11    1    1    2    0    0 -0.19132110251E+02 -0.50010290790E+02 -0.54049745601E+02  0.76081810093E+02  0.00000000000E+00 0. -1.
</event>
<event>
 7    1  0.2693725E-009  0.1394177E+03  0.7561462E-02  0.1214115E+00
         -1   -1    0    0    0  501 -0.00000000000E+00  0.00000000000E+00  0.25930792541E+03  0.25930792541E+03  0.00000000000E+00 0.  1.
          1   -1    0    0  501    0  0.00000000000E+00 -0.00000000000E+00 -0.84129389467E+02  0.84129389467E+02  0.00000000000E+00 0. -1.
         25    2    1    2    0    0  0.58515837380E+02 -0.81201565125E+02  0.97176896425E+02  0.18737200177E+03  0.12508845049E+03 0.  0.
          5    1    3    3  502    0 -0.33468751745E+02 -0.49516965597E+02  0.54718595593E+02  0.81139905896E+02  0.41800000000E+01 0.  1.
         -5    1    3    3    0  502  0.91984589125E+02 -0.31684599528E+02  0.42458300832E+02  0.10623209587E+03  0.41800000000E+01 0.  1.
        -11    1    1    2    0    0 -0.61831449294E+02  0.27383190983E+02  0.85839399942E+01  0.68166350174E+02  0.00000000000E+00 0.  1.
         11    1    1    2    0    0  0.33156119140E+01  0.53818374142E+02  0.69417699519E+02  0.87898962930E+02  0.00000000000E+00 0. -1.
</event>
<event>
 7    1  0.2693725E-009  0.8521066E+02  0.7561462E-02  0.1314883E+00
         -1   -1    0    0    0  501 -0.00000000000E+00  0.00000000000E+00  0.17503465181E+02  0.17503465181E+02  0.00000000000E+00 0. -1.
          1   -1    0    0  501    0  0.00000000000E+00 -0.00000000000E+00 -0.67628428254E+03  0.67628428254E+03  0.00000000000E+00 0.  1.
         25    2    1    2    0    0  0.53929016496E+00  0.14601269978E+02 -0.34798231561E+03  0.37006891764E+03  0.12508326789E+03 0.  0.
          5    1    3    3  502    0  0.31077397383E+02  0.33116510039E+02 -0.42059076906E+02  0.62039876011E+02  0.41800000000E+01 0.  1.
         -5    1    3    3    0  502 -0.30538107218E+02 -0.18515240061E+02 -0.30592323871E+03  0.30802904163E+03  0.41800000000E+01 0.  1.
        -11    1    1    2    0    0 -0.44014174573E+02 -0.10038784750E+02 -0.18889212952E+03  0.19421189808E+03  0.00000000000E+00 0.  1.
         11    1    1    2    0    0  0.43474884408E+02 -0.45624852271E+01 -0.12190637223E+03  0.12950693200E+03  0.00000000000E+00 0. -1.
</event>
<event>
 7    1  0.2693725E-009  0.1098828E+03  0.7561462E-02  0.1260787E+00
          1   -1    0    0  501    0  0.00000000000E+00  0.00000000000E+00  0.43958383785E+02  0.43958383785E+02  0.00000000000E+00 0. -1.
         -1   -1    0    0    0  501 -0.00000000000E+00 -0.00000000000E+00 -0.44565775324E+03  0.44565775324E+03  0.00000000000E+00 0.  1.
         25    2    1    2    0    0  0.96758777167E+01  0.40122809196E+02 -0.81764432884E+02  0.15502063110E+03  0.12507002500E+03 0.  0.
          5    1    3    3  502    0  0.20592580000E+02 -0.40812401147E+02 -0.48384848515E+02  0.66695370186E+02  0.41800000000E+01 0.  1.
         -5    1    3    3    0  502 -0.10916702283E+02  0.80935210344E+02 -0.33379584369E+02  0.88325260910E+02  0.41800000000E+01 0.  1.
        -11    1    1    2    0    0  0.36597813424E+02 -0.18577127619E+02 -0.20136597071E+03  0.20550611616E+03  0.00000000000E+00 0.  1.
         11    1    1    2    0    0 -0.46273691140E+02 -0.21545681577E+02 -0.11856896586E+03  0.12908938977E+03  0.00000000000E+00 0. -1.
</event>
<event>
 7    1  0.2693725E-009  0.9639740E+02  0.7561462E-02  0.1288059E+00
         -2   -1    0    0    0  501 -0.00000000000E+00  0.00000000000E+00  0.23424178712E+03  0.23424178712E+03  0.00000000000E+00 0.  1.
          2   -1    0    0  501    0  0.00000000000E+00 -0.00000000000E+00 -0.51966053803E+02  0.51966053803E+02  0.00000000000E+00 0. -1.
         25    2    1    2    0    0 -0.69465073646E+01  0.86203862922E+01  0.67593047553E+02  0.14260903257E+03  0.12508377620E+03 0.  0.
          5    1    3    3  502    0 -0.59981138914E+02  0.40040538862E+00  0.65247272140E+02  0.88727539533E+02  0.41800000000E+01 0. -1.
         -5    1    3    3    0  502  0.53034631549E+02  0.82199809036E+01  0.23457754126E+01  0.53881493037E+02  0.41800000000E+01 0. -1.
        -11    1    1    2    0    0 -0.32839279372E+02  0.10792367419E+02  0.22242150241E+02  0.41104825891E+02  0.00000000000E+00 0. -1.
         11    1    1    2    0    0  0.39785786737E+02 -0.19412753711E+02  0.92440535521E+02  0.10249398246E+03  0.00000000000E+00 0.  1.
</event>
<event>
 7    1  0.2693725E-009  0.1038096E+03  0.7561462E-02  0.1272483E+00
          2   -1    0    0  501    0  0.00000000000E+00  0.00000000000E+00  0.53169233496E+03  0.53169233496E+03  0.00000000000E+00 0. -1.
         -2   -1    0    0    0  501 -0.00000000000E+00 -0.00000000000E+00 -0.28988432800E+02  0.28988432800E+02  0.00000000000E+00 0.  1.
         25    2    1    2    0    0  0.53337295896E+02 -0.20685345647E+02  0.23418410994E+03  0.27159257294E+03  0.12509027807E+03 0.  0.
          5    1    3    3  502    0  0.20028550435E+02  0.39294613504E+02  0.23853778804E+02  0.50315848857E+02  0.41800000000E+01 0. -1.
         -5    1    3    3    0  502  0.33308745461E+02 -0.59979959151E+02  0.21033033114E+03  0.22127672408E+03  0.41800000000E+01 0. -1.
        -11    1    1    2    0    0 -0.69847213142E+02  0.23191984588E+01  0.12282541313E+03  0.14131558292E+03  0.00000000000E+00 0.  1.
         11    1    1    2    0    0  0.16509917246E+02  0.18366147188E+02  0.14569437909E+03  0.14777261190E+03  0.00000000000E+00 0. -1.
</event>
<event>
 7    1  0.2693725E-009  0.1311537E+03  0.7561462E-02  0.1225754E+00
         -1   -1    0    0    0  501 -0.00000000000E+00  0.00000000000E+00  0.59922856045E+02  0.59922856045E+02  0.00000000000E+00 0.  1.
          1   -1    0    0  501    0  0.00000000000E+00 -0.00000000000E+00 -0.32683171125E+03  0.32683171125E+03  0.00000000000E+00 0. -1.
         25    2    1    2    0    0  0.31012423177E+02 -0.77368165372E+02 -0.10907606732E+03  0.18572699046E+03  0.12509725464E+03 0.  0.
          5    1    3    3  502    0  0.37415792069E+02  0.19079003190E+02 -0.32369233726E+01  0.42330839016E+02  0.41800000000E+01 0.  1.
         -5    1    3    3    0  502 -0.64033688921E+01 -0.96447168562E+02 -0.10583914395E+03  0.14339615144E+03  0.41800000000E+01 0.  1.
        -11    1    1    2    0    0  0.54688251465E+01  0.85745687681E+02 -0.12193110921E+03  0.14916241617E+03  0.00000000000E+00 0. -1.
         11    1    1    2    0    0 -0.36481248324E+02 -0.83775223094E+01 -0.35901678668E+02  0.51865160662E+02  0.00000000000E+00 0.  1.
</event>
<event>
 7    1  0.2693725E-009  0.3434212E+03  0.7561462E-02  0.1065348E+00
         -1   -1    0    0    0  501 -0.00000000000E+00  0.00000000000E+00  0.22815266620E+03  0.22815266620E+03  0.00000000000E+00 0.  1.
          1   -1    0    0  501    0  0.00000000000E+00 -0.00000000000E+00 -0.55488280907E+03  0.55488280907E+03  0.00000000000E+00 0. -1.
         25    2    1    2    0    0  0.31239449283E+03 -0.11455190910E+03 -0.10454695105E+03  0.37052584595E+03  0.12508748343E+03 0.  0.
          5    1    3    3  502    0  0.10014261851E+03 -0.49050163346E+01 -0.83712839487E+02  0.13068249738E+03  0.41800000000E+01 0. -1.
         -5    1    3    3    0  502  0.21225187432E+03 -0.10964689276E+03 -0.20834111563E+02  0.23984334856E+03  0.41800000000E+01 0. -1.
        -11    1    1    2    0    0 -0.26845733556E+03  0.13336646562E+03 -0.19241670265E+03  0.35620238998E+03  0.00000000000E+00 0.  1.
         11    1    1    2    0    0 -0.43937157265E+02 -0.18814556517E+02 -0.29766489168E+02  0.56307239347E+02  0.00000000000E+00 0. -1.
</event>
<event>
 7    1  0.2693725E-009  0.1074580E+03  0.7561462E-02  0.1265351E+00
         -2   -1    0    0    0  501 -0.00000000000E+00  0.00000000000E+00  0.18677134638E+03  0.18677134638E+03  0.00000000000E+00 0.  1.
          2   -1    0    0  501    0  0.00000000000E+00 -0.00000000000E+00 -0.69414764191E+02  0.69414764191E+02  0.00000000000E+00 0. -1.
         25    2    1    2    0    0 -0.17157138044E+02 -0.29009684908E+01  0.97038288612E+02  0.15926974137E+03  0.12509051944E+03 0.  0.
          5    1    3    3  502    0  0.53677102303E+02 -0.84829249863E+00  0.30041997483E+02  0.61659913433E+02  0.41800000000E+01 0.  1.
         -5    1    3    3    0  502 -0.70834240347E+02 -0.20526759922E+01  0.66996291130E+02  0.97609827934E+02  0.41800000000E+01 0.  1.
        -11    1    1    2    0    0 -0.22351859767E+02 -0.30866389064E+02  0.23624795249E+02  0.44838271147E+02  0.00000000000E+00 0.  1.
         11    1    1    2    0    0  0.39508997811E+02  0.33767357555E+02 -0.33065016695E+01  0.52078098060E+02  0.00000000000E+00 0. -1.
</event>
<event>
 7    1  0.2693725E-009  0.9892256E+02  0.7561462E-02  0.1282578E+00
          2   -1    0    0  501    0  0.00000000000E+00  0.00000000000E+00  0.39547700317E+03  0.39547700317E+03  0.00000000000E+00 0. -1.
         -2   -1    0    0    0  501 -0.00000000000E+00 -0.00000000000E+00 -0.44223959567E+02  0.44223959567E+02  0.00000000000E+00 0.  1.
         25    2    1    2    0    0 -0.84245269195E+01 -0.20365142943E+02  0.31531697323E+03  0.33993885879E+03  0.12509165602E+03 0.  0.
          5    1    3    3  502    0  0.22969505020E+02  0.40750033597E+02  0.64108162414E+02  0.79470071644E+02  0.41800000000E+01 0.  1.
         -5    1    3    3    0  502 -0.31394031939E+02 -0.61115176540E+02  0.25120881082E+03  0.26046878715E+03  0.41800000000E+01 0.  1.
        -11    1    1    2    0    0  0.43897235299E+02  0.91216090446E+01  0.42729293818E+02  0.61935156161E+02  0.00000000000E+00 0.  1.
         11    1    1    2    0    0 -0.35472708379E+02  0.11243533898E+02 -0.67932234451E+01  0.37826947789E+02  0.00000000000E+00 0. -1.
</event>
<event>
 7    1  0.2693725E-009  0.1065101E+03  0.7561462E-02  0.1267173E+00
          1   -1    0    0  501    0  0.00000000000E+00  0.00000000000E+00  0.76415168247E+03  0.76415168247E+03  0.00000000000E+00 0. -1.
         -1   -1    0    0    0  501 -0.00000000000E+00 -0.00000000000E+00 -0.15985200772E+02  0.15985200772E+02  0.00000000000E+00 0.  1.
         25    2    1    2    0    0 -0.11584794004E+02  0.70890555882E+01  0.37934166224E+03  0.39966505932E+03  0.12509037039E+03 0.  0.
          5    1    3    3  502    0  0.55985334799E+02  0.13745871499E+02  0.17466364493E+03  0.18397871604E+03  0.41800000000E+01 0. -1.
         -5    1    3    3    0  502 -0.67570128803E+02 -0.66568159106E+01  0.20467801731E+03  0.21568634327E+03  0.41800000000E+01 0. -1.
        -11    1    1    2    0    0 -0.12687757568E+02  0.35762500598E+02  0.95814816919E+02  0.10305539667E+03  0.00000000000E+00 0.  1.
         11    1    1    2    0    0  0.24272551572E+02 -0.42851556186E+02  0.27301000254E+03  0.27741642726E+03  0.00000000000E+00 0. -1.
</event>
<event>
 7    1  0.2693725E-009  0.1070502E+03  0.7561462E-02  0.1266132E+00
         -1   -1    0    0    0  501 -0.00000000000E+00  0.00000000000E+00  0.19616198583E+02  0.19616198583E+02  0.00000000000E+00 0.  1.
          1   -1    0    0  501    0  0.00000000000E+00 -0.00000000000E+00 -0.10718662890E+04  0.10718662890E+04  0.00000000000E+00 0. -1.
         25    2    1    2    0    0  0.34960504505E+02 -0.18530324702E+02 -0.90377090613E+03  0.91324439259E+03  0.12509140665E+03 0.  0.
          5    1    3    3  502    0 -0.35436277677E+02  0.27424272658E+02 -0.24279832475E+03  0.24693383609E+03  0.41800000000E+01 0. -1.
         -5    1    3    3    0  502  0.70396782182E+02 -0.45954597360E+02 -0.66097258138E+03  0.66631055650E+03  0.41800000000E+01 0. -1.
        -11    1    1    2    0    0 -0.30188381342E+02 -0.26180826030E+02 -0.25766658409E+02  0.47546763351E+02  0.00000000000E+00 0.  1.
         11    1    1    2    0    0 -0.47721231633E+01  0.44711150731E+02 -0.12271252587E+03  0.13069133164E+03  0.00000000000E+00 0. -1.
</event>
<event>
 7    1  0.2693725E-009  0.1583242E+03  0.7561462E-02  0.1190602E+00
         -1   -1    0    0    0  501 -0.00000000000E+00  0.00000000000E+00  0.63170635442E+02  0.63170635442E+02  0.00000000000E+00 0.  1.
          1   -1    0    0  501    0  0.00000000000E+00 -0.00000000000E+00 -0.70882155235E+03  0.70882155235E+03  0.00000000000E+00 0. -1.
         25    2    1    2    0    0  0.72703163875E+02 -0.86508123264E+02 -0.83298774612E+02  0.18803045526E+03  0.12508941133E+03 0.  0.
          5    1    3    3  502    0  0.10278634972E+03 -0.60719070742E+02 -0.87345332484E+02  0.14798148110E+03  0.41800000000E+01 0.  1.
         -5    1    3    3    0  502 -0.30083185849E+02 -0.25789052522E+02  0.40465578727E+01  0.40048974162E+02  0.41800000000E+01 0.  1.
        -11    1    1    2    0    0 -0.22065049328E+02 -0.25922670394E+02 -0.11637621555E+03  0.12125293724E+03  0.00000000000E+00 0.  1.
         11    1    1    2    0    0 -0.50638114547E+02  0.11243079366E+03 -0.44597592674E+03  0.46270879529E+03  0.00000000000E+00 0. -1.
</event>
<event>
 7    1  0.2693725E-009  0.1295569E+03  0.7561462E-02  0.1228115E+00
         -1   -1    0    0    0  501 -0.00000000000E+00  0.00000000000E+00  0.58608281692E+03  0.58608281692E+03  0.00000000000E+00 0.  1.
          1   -1    0    0  501    0  0.00000000000E+00 -0.00000000000E+00 -0.38826442694E+02  0.38826442694E+02  0.00000000000E+00 0. -1.
         25    2    1    2    0    0  0.82027565893E+02 -0.12459227907E+02  0.42209139189E+03  0.44798836209E+03  0.12509466627E+03 0.  0.
          5    1    3    3  502    0  0.47104218543E+02  0.55887457407E+02  0.21054231769E+03  0.22290750377E+03  0.41800000000E+01 0.  1.
         -5    1    3    3    0  502  0.34923347350E+02 -0.68346685314E+02  0.21154907420E+03  0.22508085832E+03  0.41800000000E+01 0.  1.
        -11    1    1    2    0    0 -0.31661954113E+02 -0.29658066945E+02  0.10257149252E+02  0.44579024036E+02  0.00000000000E+00 0. -1.
         11    1    1    2    0    0 -0.50365611780E+02  0.42117294852E+02  0.11490783309E+03  0.13234187349E+03  0.00000000000E+00 0.  1.
</event>
<event>
 7    1  0.2693725E-009  0.1066602E+03  0.7561462E-02  0.1266883E+00
         -1   -1    0    0    0  501 -0.00000000000E+00  0.00000000000E+00  0.57137945964E+02  0.57137945964E+02  0.00000000000E+00 0.  1.
          1   -1    0    0  501    0  0.00000000000E+00 -0.00000000000E+00 -0.41674452734E+03  0.41674452734E+03  0.00000000000E+00 0. -1.
         25    2    1    2    0    0  0.10524553521E+02  0.33468635927E+02 -0.35394295189E+03  0.37703235838E+03  0.12508745044E+03 0.  0.
          5    1    3    3  502    0  0.66603607812E+02  0.85213958968E+01 -0.20940154727E+03  0.21994348174E+03  0.41800000000E+01 0. -1.
         -5    1    3    3    0  502 -0.56079054292E+02  0.24947240031E+02 -0.14454140462E+03  0.15708887664E+03  0.41800000000E+01 0. -1.
        -11    1    1    2    0    0  0.32999211805E+02 -0.21497595799E+02  0.20785170313E+02  0.44532212048E+02  0.00000000000E+00 0.  1.
         11    1    1    2    0    0 -0.43523765326E+02 -0.11971040129E+02 -0.26448799798E+02  0.52317902870E+02  0.00000000000E+00 0. -1.
</event>
<event>
 7    1  0.2693725E-009  0.1498444E+03  0.7561462E-02  0.1200664E+00
          2   -1    0    0  501    0  0.00000000000E+00  0.00000000000E+00  0.56904211329E+02  0.56904211329E+02  0.00000000000E+00 0. -1.
         -2   -1    0    0    0  501 -0.00000000000E+00 -0.00000000000E+00 -0.43342916353E+03  0.43342916353E+03  0.00000000000E+00 0.  1.
         25    2    1    2    0    0  0.10489086042E+03  0.42711811030E+02 -0.16342636054E+03  0.23490730884E+03  0.12508747750E+03 0.  0.
          5    1    3    3  502    0  0.64309972660E+02  0.86210972156E+02 -0.11957528881E+03  0.16088451261E+03  0.41800000000E+01 0. -1.
         -5    1    3    3    0  502  0.40580887757E+02 -0.43499161127E+02 -0.43851071730E+02  0.74022796230E+02  0.41800000000E+01 0. -1.
        -11    1    1    2    0    0 -0.93134075129E+01 -0.35349467543E+02 -0.24931653280E+02  0.44248296581E+02  0.00000000000E+00 0. -1.
         11    1    1    2    0    0 -0.95577452904E+02 -0.73623434870E+01 -0.18816693838E+03  0.21117776944E+03  0.00000000000E+00 0.  1.
</event>
<event>
 7    1  0.2693725E-009  0.1443005E+03  0.7561462E-02  0.1207657E+00
          2   -1    0    0  501    0  0.00000000000E+00  0.00000000000E+00  0.25508070711E+03  0.25508070711E+03  0.00000000000E+00 0.  1.
         -2   -1    0    0    0  501 -0.00000000000E+00 -0.00000000000E+00 -0.96682972775E+02  0.96682972775E+02  0.00000000000E+00 0. -1.
         25    2    1    2    0    0 -0.90164395539E+02 -0.50329039249E+02  0.38112756910E+02  0.16662018344E+03  0.12508826034E+03 0.  0.
          5    1    3    3  502    0 -0.95468820238E+02 -0.84339962939E+02  0.27918243956E+02  0.13047768289E+03  0.41800000000E+01 0.  1.
         -5    1    3    3    0  502  0.53044246987E+01  0.34010923690E+02  0.10194512953E+02  0.36142500549E+02  0.41800000000E+01 0.  1.
        -11    1    1    2    0    0  0.93395891168E+02  0.19421033733E+02  0.48703866224E+02  0.10710758901E+03  0.00000000000E+00 0.  1.
         11    1    1    2    0    0 -0.32314956292E+01  0.30908005517E+02  0.71581111206E+02  0.78035907443E+02  0.00000000000E+00 0. -1.
</event>
<event>
 7    1  0.2693725E-009  0.3372431E+03  0.7561462E-02  0.1067976E+00
         -1   -1    0    0    0  501 -0.00000000000E+00  0.00000000000E+00  0.74417806456E+02  0.74417806456E+02  0.00000000000E+00 0.  1.
          1   -1    0    0  501    0  0.00000000000E+00 -0.00000000000E+00 -0.15755938300E+04  0.15755938300E+04  0.00000000000E+00 0. -1.
         25    2    1    2    0    0 -0.29016927939E+03 -0.14251282059E+03 -0.82782341013E+03  0.89746698199E+03  0.12508905100E+03 0.  0.
          5    1    3    3  502    0 -0.29770369111E+03 -0.12753140726E+03 -0.81126200729E+03  0.87353034544E+03  0.41800000000E+01 0.  1.
         -5    1    3    3    0  502  0.75344117200E+01 -0.14981413334E+02 -0.16561402838E+02  0.23936636552E+02  0.41800000000E+01 0.  1.
        -11    1    1    2    0    0  0.14164578773E+03  0.11456308047E+03 -0.41517625808E+03  0.45338675969E+03  0.00000000000E+00 0. -1.
         11    1    1    2    0    0  0.14852349166E+03  0.27949740123E+02 -0.25817635531E+03  0.29915789475E+03  0.00000000000E+00 0.  1.
</event>
<event>
 7    1  0.2693725E-009  0.2053988E+03  0.7561462E-02  0.1145262E+00
          1   -1    0    0  501    0  0.00000000000E+00  0.00000000000E+00  0.25148608296E+04  0.25148608296E+04  0.00000000000E+00 0. -1.
         -1   -1    0    0    0  501 -0.00000000000E+00 -0.00000000000E+00 -0.26067549944E+02  0.26067549944E+02  0.00000000000E+00 0.  1.
         25    2    1    2    0    0  0.54362142180E+02 -0.17267672692E+03  0.19873471428E+04  0.19994922568E+04  0.12509246447E+03 0.  0.
          5    1    3    3  502    0 -0.11227446372E+01 -0.15973074875E+03  0.15992683473E+04  0.16072311258E+04  0.41800000000E+01 0. -1.
         -5    1    3    3    0  502  0.55484886817E+02 -0.12945978178E+02  0.38807879550E+03  0.39226113105E+03  0.41800000000E+01 0. -1.
        -11    1    1    2    0    0 -0.70722002976E+02  0.12702739892E+03  0.28880240650E+03  0.32333325189E+03  0.00000000000E+00 0. -1.
         11    1    1    2    0    0  0.16359860796E+02  0.45649328000E+02  0.21264373040E+03  0.21810287085E+03  0.00000000000E+00 0.  1.
</event>
<event>
 7    1  0.2693725E-009  0.1106551E+03  0.7561462E-02  0.1259361E+00
         -2   -1    0    0    0  501 -0.00000000000E+00  0.00000000000E+00  0.25314369683E+02  0.25314369683E+02  0.00000000000E+00 0.  1.
          2   -1    0    0  501    0  0.00000000000E+00 -0.00000000000E+00 -0.66800765675E+03  0.66800765675E+03  0.00000000000E+00 0. -1.
         25    2    1    2    0    0 -0.49689509462E+02  0.22791740752E+02 -0.48341272266E+03  0.50231851168E+03  0.12509003136E+03 0.  0.
          5    1    3    3  502    0  0.39298698954E+02  0.25882858112E+02 -0.15707949456E+03  0.16402972320E+03  0.41800000000E+01 0.  1.
         -5    1    3    3    0  502 -0.88988208416E+02 -0.30911173599E+01 -0.32633322810E+03  0.33828878847E+03  0.41800000000E+01 0.  1.
        -11    1    1    2    0    0  0.32061230702E+02  0.20589011940E+02 -0.13070875640E+03  0.13614921567E+03  0.00000000000E+00 0. -1.
         11    1    1    2    0    0  0.17628278761E+02 -0.43380752692E+02 -0.28571808012E+02  0.54854299095E+02  0.00000000000E+00 0.  1.
</event>
<event>
 7    1  0.3129909E-009  0.1002026E+03  0.7561462E-02  0.1279871E+00
          3   -1    0    0  501    0  0.00000000000E+00  0.00000000000E+00  0.37903346387E+03  0.37903346387E+03  0.00000000000E+00 0. -1.
         -3   -1    0    0    0  501 -0.00000000000E+00 -0.00000000000E+00 -0.33813251333E+02  0.33813251333E+02  0.00000000000E+00 0.  1.
         25    2    1    2    0    0  0.11211492768E+02  0.22969607908E+02  0.16176403600E+03  0.20607545860E+03  0.12508473462E+03 0.  0.
          5    1    3    3  502    0  0.49333810716E+02 -0.33223257465E+02  0.74120184308E+02  0.95125621355E+02  0.41800000000E+01 0. -1.
         -5    1    3    3    0  502 -0.38122317948E+02  0.56192865374E+02  0.87643851694E+02  0.11094983724E+03  0.41800000000E+01 0. -1.
        -11    1    1    2    0    0  0.71770342940E+01 -0.44132541781E+02  0.16979640836E+03  0.17558476972E+03  0.00000000000E+00 0. -1.
         11    1    1    2    0    0 -0.18388527062E+02  0.21162933873E+02  0.13659768173E+02  0.31186486884E+02  0.00000000000E+00 0.  1.
</event>
<event>
 7    1  0.2693725E-009  0.4973059E+02  0.7561462E-02  0.1446800E+00
          1   -1    0    0  501    0  0.00000000000E+00  0.00000000000E+00  0.49276771824E+03  0.49276771824E+03  0.00000000000E+00 0. -1.
         -1   -1    0    0    0  501 -0.00000000000E+00 -0.00000000000E+00 -0.24509640566E+02  0.24509640566E+02  0.00000000000E+00 0.  1.
         25    2    1    2    0    0 -0.26507118485E+01 -0.54313603661E+01  0.28032854437E+03  0.30703215901E+03  0.12509247752E+03 0.  0.
          5    1    3    3  502    0  0.35657773100E+01 -0.97311889801E+01 -0.10938199427E+02  0.15637372334E+02  0.41800000000E+01 0. -1.
         -5    1    3    3    0  502 -0.62164891585E+01  0.42998286140E+01  0.29126674379E+03  0.29139478668E+03  0.41800000000E+01 0. -1.
        -11    1    1    2    0    0  0.24115672151E+01 -0.37069105682E+02  0.33323604565E+02  0.49903876339E+02  0.00000000000E+00 0.  1.
         11    1    1    2    0    0  0.23914463338E+00  0.42500466048E+02  0.15460592874E+03  0.16034132345E+03  0.00000000000E+00 0. -1.
</event>
<event>
 7    1  0.2693725E-009  0.8739924E+02  0.7561462E-02  0.1309275E+00
         -2   -1    0    0    0  501 -0.00000000000E+00  0.00000000000E+00  0.92873217437E+02  0.92873217437E+02  0.00000000000E+00 0.  1.
          2   -1    0    0  501    0  0.00000000000E+00 -0.00000000000E+00 -0.12344270148E+03  0.12344270148E+03  0.00000000000E+00 0. -1.
         25    2    1    2    0    0 -0.36478611871E+01 -0.33290607860E+02 -0.31122572745E+02  0.13318226532E+03  0.12508928731E+03 0.  0.
          5    1    3    3  502    0 -0.28030734876E+02 -0.71711444473E+02  0.13546751043E+01  0.77120431215E+02  0.41800000000E+01 0.  1.
         -5    1    3    3    0  502  0.24382873688E+02  0.38420836613E+02 -0.32477247849E+02  0.56061834105E+02  0.41800000000E+01 0.  1.
        -11    1    1    2    0    0 -0.17406797971E+02  0.22156057102E+02  0.32674599932E+02  0.43145300586E+02  0.00000000000E+00 0.  1.
         11    1    1    2    0    0  0.21054659158E+02  0.11134550757E+02 -0.32121511231E+02  0.39988353012E+02  0.00000000000E+00 0. -1.
</event>
<event>
 7    1  0.2693725E-009  0.2320493E+03  0.7561462E-02  0.1125206E+00
         -1   -1    0    0    0  501 -0.00000000000E+00  0.00000000000E+00  0.20235176084E+03  0.20235176084E+03  0.00000000000E+00 0.  1.
          1   -1    0    0  501    0  0.00000000000E+00 -0.00000000000E+00 -0.31521763188E+03  0.31521763188E+03  0.00000000000E+00 0. -1.
         25    2    1    2    0    0 -0.58244573421E+02 -0.21138975652E+03  0.76040172703E+01  0.25255432506E+03  0.12509119288E+03 0.  0.
          5    1    3    3  502    0 -0.19154685607E+02 -0.83298899190E+01  0.37940114572E+02  0.43511076067E+02  0.41800000000E+01 0. -1.
         -5    1    3    3    0  502 -0.39089887814E+02 -0.20305986660E+03 -0.30336097302E+02  0.20904324900E+03  0.41800000000E+01 0. -1.
        -11    1    1    2    0    0 -0.21866582064E+02  0.71420740318E+02 -0.41442020791E+02  0.85419615113E+02  0.00000000000E+00 0.  1.
         11    1    1    2    0    0  0.80111155485E+02  0.13996901620E+03 -0.79027867515E+02  0.17959545254E+03  0.00000000000E+00 0. -1.
</event>
<event>
 7    1  0.2693725E-009  0.2041008E+03  0.7561462E-02  0.1146325E+00
          1   -1    0    0  501    0  0.00000000000E+00  0.00000000000E+00  0.11268528208E+04  0.11268528208E+04  0.00000000000E+00 0. -1.
         -1   -1    0    0    0  501 -0.00000000000E+00 -0.00000000000E+00 -0.39480754824E+02  0.39480754824E+02  0.00000000000E+00 0.  1.
         25    2    1    2    0    0  0.17114632971E+03  0.74457988780E+02  0.61684249129E+03  0.65648832568E+03  0.12508878619E+03 0.  0.
          5    1    3    3  502    0 -0.27559815269E+01 -0.18527029094E+02  0.19238478084E+02  0.27174209836E+02  0.41800000000E+01 0.  1.
         -5    1    3    3    0  502  0.17390231124E+03  0.92985017874E+02  0.59760401320E+03  0.62931411584E+03  0.41800000000E+01 0.  1.
        -11    1    1    2    0    0 -0.42956939401E+02 -0.40766806363E+02  0.98762456496E+02  0.11515751802E+03  0.00000000000E+00 0. -1.
         11    1    1    2    0    0 -0.12818939031E+03 -0.33691182417E+02  0.37176711816E+03  0.39468773189E+03  0.00000000000E+00 0.  1.
</event>
<event>
 7    1  0.2693725E-009  0.1317431E+03  0.7561462E-02  0.1224892E+00
         -1   -1    0    0    0  501 -0.00000000000E+00  0.00000000000E+00  0.12996021625E+03  0.12996021625E+03  0.00000000000E+00 0.  1.
          1   -1    0    0  501    0  0.00000000000E+00 -0.00000000000E+00 -0.14883212186E+03  0.14883212186E+03  0.00000000000E+00 0. -1.
         25    2    1    2    0    0 -0.40429686817E+01 -0.80659236440E+02  0.26233688113E+02  0.15118802144E+03  0.12508938170E+03 0.  0.
          5    1    3    3  502    0 -0.36318351354E+02  0.20824905591E+02  0.35263454168E+01  0.42220929051E+02  0.41800000000E+01 0.  1.
         -5    1    3    3    0  502  0.32275382672E+02 -0.10148414203E+03  0.22707342696E+02  0.10896709238E+03  0.41800000000E+01 0.  1.
        -11    1    1    2    0    0 -0.36639123033E+02  0.57048014733E+02 -0.43468730420E+02  0.80538387406E+02  0.00000000000E+00 0. -1.
         11    1    1    2    0    0  0.40682091715E+02  0.23611221707E+02 -0.16368632975E+01  0.47065929272E+02  0.00000000000E+00 0.  1.
</event>
<event>
 7    1  0.2693725E-009  0.1028533E+03  0.7561462E-02  0.1274408E+00
          2   -1    0    0  501    0  0.00000000000E+00  0.00000000000E+00  0.40339626984E+03  0.40339626984E+03  0.00000000000E+00 0. -1.
         -2   -1    0    0    0  501 -0.00000000000E+00 -0.00000000000E+00 -0.47622330024E+02  0.47622330024E+02  0.00000000000E+00 0.  1.
         25    2    1    2    0    0  0.72029072913E+02 -0.34387544722E+02  0.15068898731E+03  0.21149211409E+03  0.12510416799E+03 0.  0.
          5    1    3    3  502    0  0.77307033000E+02 -0.27597409684E+02  0.17062059211E+03  0.18938546202E+03  0.41800000000E+01 0.  1.
         -5    1    3    3    0  502 -0.52779600876E+01 -0.67901350378E+01 -0.19931604791E+02  0.22106652078E+02  0.41800000000E+01 0.  1.
        -11    1    1    2    0    0 -0.59060973494E+02 -0.16593851758E+02  0.15579247641E+03  0.16743610785E+03  0.00000000000E+00 0. -1.
         11    1    1    2    0    0 -0.12968099418E+02  0.50981396480E+02  0.49292476098E+02  0.72090377925E+02  0.00000000000E+00 0.  1.
</event>
<event>
 7    1  0.2693725E-009  0.1884812E+03  0.7561462E-02  0.1159838E+00
          2   -1    0    0  501    0  0.00000000000E+00  0.00000000000E+00  0.65660642567E+03  0.65660642567E+03  0.00000000000E+00 0.  1.
         -2   -1    0    0    0  501 -0.00000000000E+00 -0.00000000000E+00 -0.10516845378E+03  0.10516845378E+03  0.00000000000E+00 0. -1.
         25    2    1    2    0    0 -0.15635700318E+03 -0.76223963723E+02  0.52070945752E+03  0.56306628817E+03  0.12509076959E+03 0.  0.
          5    1    3    3  502    0 -0.38385749304E+02  0.32135857601E+01  0.28588261838E+03  0.28849633754E+03  0.41800000000E+01 0. -1.
         -5    1    3    3    0  502 -0.11797125387E+03 -0.79437549483E+02  0.23482683915E+03  0.27456995064E+03  0.41800000000E+01 0. -1.
        -11    1    1    2    0    0  0.16741300865E+03  0.63440776572E+02  0.31543568868E+02  0.18178791030E+03  0.00000000000E+00 0. -1.
         11    1    1    2    0    0 -0.11056005467E+02  0.12783187151E+02 -0.81505450306E+00  0.16920680970E+02  0.00000000000E+00 0.  1.
</event>
<event>
 7    1  0.2693725E-009  0.1443132E+03  0.7561462E-02  0.1207640E+00
         -1   -1    0    0    0  501 -0.00000000000E+00  0.00000000000E+00  0.72907172100E+02  0.72907172100E+02  0.00000000000E+00 0.  1.
          1   -1    0    0  501    0  0.00000000000E+00 -0.00000000000E+00 -0.34903965085E+03  0.34903965085E+03  0.00000000000E+00 0. -1.
         25    2    1    2    0    0  0.74994608765E+02  0.89758602979E+02 -0.12987958532E+03  0.21493069979E+03  0.12508277610E+03 0.  0.
          5    1    3    3  502    0  0.10842689683E+03  0.80931565323E+02 -0.93188418252E+02  0.16434069465E+03  0.41800000000E+01 0. -1.
         -5    1    3    3    0  502 -0.33432288067E+02  0.88270376556E+01 -0.36691167070E+02  0.50590005141E+02  0.41800000000E+01 0. -1.
        -11    1    1    2    0    0 -0.57102146690E+02 -0.54717432396E+02 -0.14781275650E+03  0.16764028021E+03  0.00000000000E+00 0. -1.
         11    1    1    2    0    0 -0.17892462075E+02 -0.35041170582E+02  0.15598630722E+01  0.39375842946E+02  0.00000000000E+00 0.  1.
</event>
<event>
 7    1  0.2693725E-009  0.9254845E+02  0.7561462E-02  0.1296795E+00
         -1   -1    0    0    0  501 -0.00000000000E+00  0.00000000000E+00  0.12612088337E+03  0.12612088337E+03  0.00000000000E+00 0.  1.
          1   -1    0    0  501    0  0.00000000000E+00 -0.00000000000E+00 -0.12008191587E+03  0.12008191587E+03  0.00000000000E+00 0. -1.
         25    2    1    2    0    0 -0.23335810475E+02  0.53837901682E+02  0.48154813933E+01  0.13825284366E+03  0.12509028824E+03 0.  0.
          5    1    3    3  502    0  0.15498821211E+02  0.11875767175E+02 -0.53119729735E+02  0.56748791988E+02  0.41800000000E+01 0. -1.
         -5    1    3    3    0  502 -0.38834631686E+02  0.41962134507E+02  0.57935211129E+02  0.81504051673E+02  0.41800000000E+01 0. -1.
        -11    1    1    2    0    0  0.53535980286E+02 -0.98346549108E+01 -0.21440208871E+01  0.54474016265E+02  0.00000000000E+00 0.  1.
         11    1    1    2    0    0 -0.30200169811E+02 -0.44003246772E+02  0.33675069927E+01  0.53475939322E+02  0.00000000000E+00 0. -1.
</event>
<event>
 7    1  0.2693725E-009  0.1791142E+03  0.7561462E-02  0.1168663E+00
         -1   -1    0    0    0  501 -0.00000000000E+00  0.00000000000E+00  0.24329735923E+02  0.24329735923E+02  0.00000000000E+00 0.  1.
          1   -1    0    0  501    0  0.00000000000E+00 -0.00000000000E+00 -0.14074239231E+04  0.14074239231E+04  0.00000000000E+00 0. -1.
         25    2    1    2    0    0  0.41882658051E+02  0.14220881540E+03 -0.80677981120E+03  0.82977002174E+03  0.12508845271E+03 0.  0.
          5    1    3    3  502    0  0.60731287805E+02  0.11639456613E+02 -0.26025942830E+03  0.26753730335E+03  0.41800000000E+01 0. -1.
         -5    1    3    3    0  502 -0.18848629754E+02  0.13056935879E+03 -0.54652038290E+03  0.56223271838E+03  0.41800000000E+01 0. -1.
        -11    1    1    2    0    0  0.73705485271E+01 -0.97391236650E+02 -0.43407933642E+03  0.44493173439E+03  0.00000000000E+00 0. -1.
         11    1    1    2    0    0 -0.49253206579E+02 -0.44817578752E+02 -0.14223503957E+03  0.15705190290E+03  0.00000000000E+00 0.  1.
</event>
<event>
 7    1  0.2693725E-009  0.1431161E+03  0.7561462E-02  0.1209197E+00
         -1   -1    0    0    0  501 -0.00000000000E+00  0.00000000000E+00  0.26478751732E+02  0.26478751732E+02  0.00000000000E+00 0.  1.
          1   -1    0    0  501    0  0.00000000000E+00 -0.00000000000E+00 -0.13270045520E+04  0.13270045520E+04  0.00000000000E+00 0. -1.
         25    2    1    2    0    0 -0.38819328214E+01 -0.10665450432E+03 -0.11105016711E+04  0.11226089434E+04  0.12508647221E+03 0.  0.
          5    1    3    3  502    0  0.10066163618E+02  0.25643110490E+02 -0.11926638330E+03  0.12247791373E+03  0.41800000000E+01 0.  1.
         -5    1    3    3    0  502 -0.13948096440E+02 -0.13229761481E+03 -0.99123528785E+03  0.10001310297E+04  0.41800000000E+01 0.  1.
        -11    1    1    2    0    0  0.31733274538E+02  0.29820520159E+02 -0.10120808963E+03  0.11017868007E+03  0.00000000000E+00 0. -1.
         11    1    1    2    0    0 -0.27851341717E+02  0.76833984160E+02 -0.88816039476E+02  0.12069568023E+03  0.00000000000E+00 0.  1.
</event>
<event>
 7    1  0.2693725E-009  0.1270596E+03  0.7561462E-02  0.1231885E+00
         -2   -1    0    0    0  501 -0.00000000000E+00  0.00000000000E+00  0.92279525498E+02  0.92279525498E+02  0.00000000000E+00 0.  1.
          2   -1    0    0  501    0  0.00000000000E+00 -0.00000000000E+00 -0.22914920433E+03  0.22914920433E+03  0.00000000000E+00 0. -1.
         25    2    1    2    0    0 -0.30856824198E+02 -0.82756534016E+02 -0.32871397103E+02  0.15662514917E+03  0.12510044397E+03 0.  0.
          5    1    3    3  502    0 -0.34613419813E+02 -0.10774607809E+03 -0.52041762355E+02  0.12463195258E+03  0.41800000000E+01 0. -1.
         -5    1    3    3    0  502  0.37565956152E+01  0.24989544076E+02  0.19170365252E+02  0.31993196584E+02  0.41800000000E+01 0. -1.
        -11    1    1    2    0    0  0.23748416844E+02 -0.73597361016E+01  0.26447802118E+01  0.25002957434E+02  0.00000000000E+00 0.  1.
         11    1    1    2    0    0  0.71084073540E+01  0.90116270118E+02 -0.10664306194E+03  0.13980062323E+03  0.00000000000E+00 0. -1.
</event>
<event>
 7    1  0.2693725E-009  0.1807544E+03  0.7561462E-02  0.1167075E+00
         -1   -1    0    0    0  501 -0.00000000000E+00  0.00000000000E+00  0.21242322182E+02  0.21242322182E+02  0.00000000000E+00 0.  1.
          1   -1    0    0  501    0  0.00000000000E+00 -0.00000000000E+00 -0.22518128017E+04  0.22518128017E+04  0.00000000000E+00 0. -1.
         25    2    1    2    0    0  0.10543794995E+03  0.11403879645E+03 -0.17431579789E+04  0.17545283241E+04  0.12509153591E+03 0.  0.
          5    1    3    3  502    0  0.12410213195E+03  0.64570828223E+02 -0.14380832444E+04  0.14448777184E+04  0.41800000000E+01 0.  1.
         -5    1    3    3    0  502 -0.18664182003E+02  0.49467968222E+02 -0.30507473446E+03  0.30965060564E+03  0.41800000000E+01 0.  1.
        -11    1    1    2    0    0 -0.10033455154E+02 -0.55894375784E+02 -0.96577716747E+02  0.11203618540E+03  0.00000000000E+00 0.  1.
         11    1    1    2    0    0 -0.95404494797E+02 -0.58144420662E+02 -0.39083478388E+03  0.40649061437E+03  0.00000000000E+00 0. -1.
</event>
<event>
 7    1  0.2693725E-009  0.9603060E+02  0.7561462E-02  0.1288872E+00
          2   -1    0    0  501    0  0.00000000000E+00  0.00000000000E+00  0.61316321514E+03  0.61316321514E+03  0.00000000000E+00 0. -1.
         -2   -1    0    0    0  501 -0.00000000000E+00 -0.00000000000E+00 -0.33514761921E+02  0.33514761921E+02  0.00000000000E+00 0.  1.
         25    2    1    2    0    0  0.57873036922E+02 -0.70793572358E+02  0.35955886849E+03  0.39152502142E+03  0.12509294221E+03 0.  0.
          5    1    3    3  502    0  0.20989115308E+01 -0.31625329344E+02  0.29763236838E+03  0.29934439362E+03  0.41800000000E+01 0.  1.
         -5    1    3    3    0  502  0.55774125392E+02 -0.39168243015E+02  0.61926500116E+02  0.92180627795E+02  0.41800000000E+01 0.  1.
        -11    1    1    2    0    0 -0.10467753992E+02  0.18277739865E+02 -0.28520709868E+01  0.21255210117E+02  0.00000000000E+00 0.  1.
         11    1    1    2    0    0 -0.47405282931E+02  0.52515832493E+02  0.22294165572E+03  0.23389774553E+03  0.00000000000E+00 0. -1.
</event>
<event>
 7    1  0.2693725E-009  0.1172667E+03  0.7561462E-02  0.1247676E+00
          4   -1    0    0  501    0  0.00000000000E+00  0.00000000000E+00  0.37187367304E+03  0.37187367304E+03  0.00000000000E+00 0. -1.
         -4   -1    0    0    0  501 -0.00000000000E+00 -0.00000000000E+00 -0.43898744007E+02  0.43898744007E+02  0.00000000000E+00 0.  1.
         25    2    1    2    0    0 -0.39428977941E+02 -0.50843576144E+02  0.21142521196E+03  0.25394209287E+03  0.12508498208E+03 0.  0.
          5    1    3    3  502    0 -0.11557479504E+02 -0.86136828938E+02  0.93789328193E+02  0.12793372939E+03  0.41800000000E+01 0.  1.
         -5    1    3    3    0  502 -0.27871498437E+02  0.35293252794E+02  0.11763588377E+03  0.12600836348E+03  0.41800000000E+01 0.  1.
        -11    1    1    2    0    0  0.33945524541E+02 -0.14408411512E+02  0.12590464115E+02  0.38966918602E+02  0.00000000000E+00 0.  1.
         11    1    1    2    0    0  0.54834533994E+01  0.65251987656E+02  0.10395925296E+03  0.12286340558E+03  0.00000000000E+00 0. -1.
</event>
<event>
 7    1  0.2693725E-009  0.9852374E+02  0.7561462E-02  0.1283431E+00
          1   -1    0    0  501    0  0.00000000000E+00  0.00000000000E+00  0.48895616297E+03  0.48895616297E+03  0.00000000000E+00 0. -1.
         -1   -1    0    0    0  501 -0.00000000000E+00 -0.00000000000E+00 -0.31677626996E+02  0.31677626996E+02  0.00000000000E+00 0.  1.
         25    2    1    2    0    0 -0.13862391583E+02  0.51860561321E+02  0.19937163842E+03  0.24141080748E+03  0.12509374101E+03 0.  0.
          5    1    3    3  502    0 -0.54895732265E+02 -0.13246250988E+02  0.10741650501E+03  0.12142809615E+03  0.41800000000E+01 0.  1.
         -5    1    3    3    0  502  0.41033340682E+02  0.65106812309E+02  0.91955133417E+02  0.11998271133E+03  0.41800000000E+01 0.  1.
        -11    1    1    2    0    0  0.12510115580E+02 -0.10860976210E+01 -0.34129008148E+01  0.13012705016E+02  0.00000000000E+00 0.  1.
         11    1    1    2    0    0  0.13522760038E+01 -0.50774463700E+02  0.26131979837E+03  0.26621027748E+03  0.00000000000E+00 0. -1.
</event>
<event>
 7    1  0.2693725E-009  0.1137329E+03  0.7561462E-02  0.1253809E+00
         -2   -1    0    0    0  501 -0.00000000000E+00  0.00000000000E+00  0.14547123796E+03  0.14547123796E+03  0.00000000000E+00 0. -1.
          2   -1    0    0  501    0  0.00000000000E+00 -0.00000000000E+00 -0.11666036429E+03  0.11666036429E+03  0.00000000000E+00 0.  1.
         25    2    1    2    0    0  0.30170424047E+02 -0.46656463422E+02 -0.30014190806E+02  0.14012686128E+03  0.12509038946E+03 0.  0.
          5    1    3    3  502    0  0.71201232391E+02  0.44391831002E+00 -0.15186093670E+01  0.71341370409E+02  0.41800000000E+01 0.  1.
         -5    1    3    3    0  502 -0.41030808344E+02 -0.47100381732E+02 -0.28495581439E+02  0.68785490870E+02  0.41800000000E+01 0.  1.
        -11    1    1    2    0    0  0.21592693805E+02 -0.30060758594E+01 -0.87150215506E+01  0.23478341476E+02  0.00000000000E+00 0.  1.
         11    1    1    2    0    0 -0.51763117852E+02  0.49662539281E+02  0.67540086021E+02  0.98526399494E+02  0.00000000000E+00 0. -1.
</event>
<event>
 7    1  0.2693725E-009  0.1285696E+03  0.7561462E-02  0.1229594E+00
         -2   -1    0    0    0  501 -0.00000000000E+00  0.00000000000E+00  0.17357831802E+03  0.17357831802E+03  0.00000000000E+00 0.  1.
          2   -1    0    0  501    0  0.00000000000E+00 -0.00000000000E+00 -0.18406479998E+03  0.18406479998E+03  0.00000000000E+00 0. -1.
         25    2    1    2    0    0 -0.39043373753E+02 -0.12007766166E+03 -0.69028063043E+02  0.19067184037E+03  0.12509135606E+03 0.  0.
          5    1    3    3  502    0 -0.44715871081E+02 -0.10154887701E+03  0.78165528414E+01  0.11131151983E+03  0.41800000000E+01 0. -1.
         -5    1    3    3    0  502  0.56724973281E+01 -0.18528784653E+02 -0.76844615884E+02  0.79360320545E+02  0.41800000000E+01 0. -1.
        -11    1    1    2    0    0  0.10317912805E+02  0.34409755648E+02  0.67202506499E+02  0.76201492690E+02  0.00000000000E+00 0.  1.
         11    1    1    2    0    0  0.28725460948E+02  0.85667906012E+02 -0.86609254140E+01  0.90769784930E+02  0.00000000000E+00 0. -1.
</event>
<event>
 7    1  0.2693725E-009  0.8844528E+02  0.7561462E-02  0.1306661E+00
         -1   -1    0    0    0  501 -0.00000000000E+00  0.00000000000E+00  0.29227061008E+03  0.29227061008E+03  0.00000000000E+00 0.  1.
          1   -1    0    0  501    0  0.00000000000E+00 -0.00000000000E+00 -0.40842423959E+02  0.40842423959E+02  0.00000000000E+00 0. -1.
         25    2    1    2    0    0 -0.78371220665E+01 -0.11900927003E+02  0.14403047911E+03  0.19128853507E+03  0.12507386693E+03 0.  0.
          5    1    3    3  502    0  0.36227135592E+02 -0.16399345011E+02  0.14115117203E+03  0.14670538380E+03  0.41800000000E+01 0.  1.
         -5    1    3    3    0  502 -0.44064257659E+02  0.44984180081E+01  0.28793070793E+01  0.44583151267E+02  0.41800000000E+01 0.  1.
        -11    1    1    2    0    0  0.78365388005E+01 -0.39875811886E+02  0.42489960182E+02  0.58795309594E+02  0.00000000000E+00 0.  1.
         11    1    1    2    0    0  0.58326596581E-03  0.51776738890E+02  0.64907746824E+02  0.83029189375E+02  0.00000000000E+00 0. -1.
</event>
<event>
 7    1  0.2693725E-009  0.1372464E+03  0.7561462E-02  0.1217083E+00
          1   -1    0    0  501    0  0.00000000000E+00  0.00000000000E+00  0.15164482252E+04  0.15164482252E+04  0.00000000000E+00 0. -1.
         -1   -1    0    0    0  501 -0.00000000000E+00 -0.00000000000E+00 -0.16496317667E+02  0.16496317667E+02  0.00000000000E+00 0.  1.
         25    2    1    2    0    0  0.60872694648E+02 -0.67862759871E+02  0.11436530472E+04  0.11540803495E+04  0.12509325136E+03 0.  0.
          5    1    3    3  502    0  0.23650969458E+02  0.31637542564E+02  0.51236355271E+03  0.51390094862E+03  0.41800000000E+01 0. -1.
         -5    1    3    3    0  502  0.37221725190E+02 -0.99500302435E+02  0.63128949450E+03  0.64017940085E+03  0.41800000000E+01 0. -1.
        -11    1    1    2    0    0  0.22881583555E+02  0.26601630255E+02  0.11009865469E+03  0.11555486733E+03  0.00000000000E+00 0.  1.
         11    1    1    2    0    0 -0.83754278203E+02  0.41261129615E+02  0.24620020559E+03  0.26330932601E+03  0.00000000000E+00 0. -1.
</event>
<event>
 7    1  0.2693725E-009  0.9586869E+02  0.7561462E-02  0.1289231E+00
          4   -1    0    0  501    0  0.00000000000E+00  0.00000000000E+00  0.16711553514E+03  0.16711553514E+03  0.00000000000E+00 0.  1.
         -4   -1    0    0    0  501 -0.00000000000E+00 -0.00000000000E+00 -0.78084821101E+02  0.78084821101E+02  0.00000000000E+00 0. -1.
         25    2    1    2    0    0  0.21022509781E+02 -0.23074563970E+02  0.21362768288E+02  0.13069020621E+03  0.12509668545E+03 0.  0.
          5    1    3    3  502    0  0.70788035268E+01 -0.73438318157E+02 -0.47496098933E+00  0.73898538693E+02  0.41800000000E+01 0.  1.
         -5    1    3    3    0  502  0.13943706254E+02  0.50363754186E+02  0.21837729277E+02  0.56791667521E+02  0.41800000000E+01 0.  1.
        -11    1    1    2    0    0 -0.20833616066E+02  0.41791847881E+02  0.79618549657E+02  0.92302283597E+02  0.00000000000E+00 0.  1.
         11    1    1    2    0    0 -0.18889371505E+00 -0.18717283911E+02 -0.11950603904E+02  0.22207866433E+02  0.00000000000E+00 0. -1.
</event>
<event>
 7    1  0.4524228E-009  0.9760674E+02  0.7561462E-02  0.1285411E+00
          1   -1    0    0  501    0  0.00000000000E+00  0.00000000000E+00  0.23652690030E+03  0.23652690030E+03  0.00000000000E+00 0. -1.
         -1   -1    0    0    0  501 -0.00000000000E+00 -0.00000000000E+00 -0.69748037171E+02  0.69748037171E+02  0.00000000000E+00 0.  1.
         25    2    1    2    0    0  0.60772100783E+02  0.15311464049E+01  0.53639836308E+02  0.14906698195E+03  0.12509252745E+03 0.  0.
          5    1    3    3  502    0  0.16997345588E+01 -0.52948859637E+02  0.42056940209E+02  0.67769679461E+02  0.41800000000E+01 0. -1.
         -5    1    3    3    0  502  0.59072366224E+02  0.54480006042E+02  0.11582896098E+02  0.81297302487E+02  0.41800000000E+01 0. -1.
        -11    1    1    2    0    0 -0.31933816049E+02  0.41805476943E+01 -0.74753680265E+01  0.33062466841E+02  0.00000000000E+00 0.  1.
         11    1    1    2    0    0 -0.28838284734E+02 -0.57116940992E+01  0.12061439485E+03  0.12414548868E+03  0.00000000000E+00 0. -1.
</event>
<event>
 7    1  0.2693725E-009  0.8115988E+02  0.7561462E-02  0.1325792E+00
          2   -1    0    0  501    0  0.00000000000E+00  0.00000000000E+00  0.65087365081E+03  0.65087365081E+03  0.00000000000E+00 0. -1.
         -2   -1    0    0    0  501 -0.00000000000E+00 -0.00000000000E+00 -0.32882314908E+02  0.32882314908E+02  0.00000000000E+00 0.  1.
         25    2    1    2    0    0 -0.34494490177E+02  0.42816306902E+02  0.14714635185E+03  0.20080470211E+03  0.12508946213E+03 0.  0.
          5    1    3    3  502    0 -0.82798638103E+01 -0.20612695195E+01 -0.21914673876E+02  0.23885776266E+02  0.41800000000E+01 0. -1.
         -5    1    3    3    0  502 -0.26214626366E+02  0.44877576422E+02  0.16906102573E+03  0.17691892584E+03  0.41800000000E+01 0. -1.
        -11    1    1    2    0    0  0.18788456183E+02 -0.68247875766E+02  0.39742728447E+03  0.40368208416E+03  0.00000000000E+00 0.  1.
         11    1    1    2    0    0  0.15706033994E+02  0.25431568864E+02  0.73417699583E+02  0.79269179451E+02  0.00000000000E+00 0. -1.
</event>
<event>
 7    1  0.2693725E-009  0.1034270E+03  0.7561462E-02  0.1273250E+00
         -4   -1    0    0    0  501 -0.00000000000E+00  0.00000000000E+00  0.77989831751E+02  0.77989831751E+02  0.00000000000E+00 0.  1.
          4   -1    0    0  501    0  0.00000000000E+00 -0.00000000000E+00 -0.18929298231E+03  0.18929298231E+03  0.00000000000E+00 0. -1.
         25    2    1    2    0    0  0.29561081461E+02 -0.22144717637E+02 -0.16461587622E+02  0.13146582081E+03  0.12509209455E+03 0.  0.
          5    1    3    3  502    0 -0.41857628194E+02 -0.13751003372E+02 -0.35755070360E+02  0.56895066466E+02  0.41800000000E+01 0.  1.
         -5    1    3    3    0  502  0.71418709655E+02 -0.83937142655E+01  0.19293482738E+02  0.74570754349E+02  0.41800000000E+01 0.  1.
        -11    1    1    2    0    0 -0.22721398557E+02  0.53683598597E+02 -0.35458299582E+02  0.68231090567E+02  0.00000000000E+00 0.  1.
         11    1    1    2    0    0 -0.68396829043E+01 -0.31538880959E+02 -0.59383263359E+02  0.67585902683E+02  0.00000000000E+00 0. -1.
</event>
<event>
 7    1  0.2693725E-009  0.2616226E+03  0.7561462E-02  0.1106172E+00
         -1   -1    0    0    0  501 -0.00000000000E+00  0.00000000000E+00  0.11047644168E+03  0.11047644168E+03  0.00000000000E+00 0.  1.
          1   -1    0    0  501    0  0.00000000000E+00 -0.00000000000E+00 -0.69758907487E+03  0.69758907487E+03  0.00000000000E+00 0. -1.
         25    2    1    2    0    0 -0.16915301026E+03 -0.17943398438E+03 -0.20174369347E+03  0.34228353359E+03  0.12509278111E+03 0.  0.
          5    1    3    3  502    0 -0.19726827779E+02  0.18557720166E+02 -0.11816353807E+02  0.29843514024E+02  0.41800000000E+01 0. -1.
         -5    1    3    3    0  502 -0.14942618248E+03 -0.19799170455E+03 -0.18992733966E+03  0.31244001957E+03  0.41800000000E+01 0. -1.
        -11    1    1    2    0    0  0.15010887363E+03  0.14672994820E+03 -0.25635030635E+03  0.33132737769E+03  0.00000000000E+00 0.  1.
         11    1    1    2    0    0  0.19044136630E+02  0.32704036179E+02 -0.12901863337E+03  0.13445460527E+03  0.00000000000E+00 0. -1.
</event>
<event>
 7    1  0.2693725E-009  0.1889831E+03  0.7561462E-02  0.1159382E+00
         -2   -1    0    0    0  501 -0.00000000000E+00  0.00000000000E+00  0.42266383599E+03  0.42266383599E+03  0.00000000000E+00 0.  1.
          2   -1    0    0  501    0  0.00000000000E+00 -0.00000000000E+00 -0.95367279825E+02  0.95367279825E+02  0.00000000000E+00 0. -1.
         25    2    1    2    0    0  0.77293609051E+02  0.15020612193E+03  0.21350642933E+03  0.29961626457E+03  0.12509488225E+03 0.  0.
          5    1    3    3  502    0  0.57615207767E+02  0.18686306351E+02  0.12741976631E+03  0.14114517157E+03  0.41800000000E+01 0. -1.
         -5    1    3    3    0  502  0.19678401284E+02  0.13151981558E+03  0.86086663019E+02  0.15847109300E+03  0.41800000000E+01 0. -1.
        -11    1    1    2    0    0 -0.22834791111E+01 -0.84363137738E+02  0.69026027999E+02  0.10902727103E+03  0.00000000000E+00 0. -1.
         11    1    1    2    0    0 -0.75010129940E+02 -0.65842984195E+02  0.44764098838E+02  0.10938758022E+03  0.00000000000E+00 0.  1.
</event>
<event>
 7    1  0.3374829E-009  0.4667115E+02  0.7561462E-02  0.1464171E+00
          2   -1    0    0  501    0  0.00000000000E+00  0.00000000000E+00  0.32986582587E+03  0.32986582587E+03  0.00000000000E+00 0. -1.
         -2   -1    0    0    0  501 -0.00000000000E+00 -0.00000000000E+00 -0.40718677609E+02  0.40718677609E+02  0.00000000000E+00 0.  1.
         25    2    1    2    0    0  0.99427306224E+01  0.23282198059E+02  0.11406234828E+03  0.17116790101E+03  0.12508921777E+03 0.  0.
          5    1    3    3  502    0  0.49277692155E+01 -0.72251879274E+00  0.13710495478E+03  0.13725904695E+03  0.41800000000E+01 0.  1.
         -5    1    3    3    0  502  0.50149614069E+01  0.24004716851E+02 -0.23042606508E+02  0.33908854061E+02  0.41800000000E+01 0.  1.
        -11    1    1    2    0    0  0.19941887658E+02  0.52755385854E+01  0.11744139196E+01  0.20661302930E+02  0.00000000000E+00 0.  1.
         11    1    1    2    0    0 -0.29884618280E+02 -0.28557736644E+02  0.17391038607E+03  0.17875529954E+03  0.00000000000E+00 0. -1.
</event>
<event>
 7    1  0.2693725E-009  0.9893404E+02  0.7561462E-02  0.1282554E+00
          2   -1    0    0  501    0  0.00000000000E+00  0.00000000000E+00  0.24138169571E+03  0.24138169571E+03  0.00000000000E+00 0. -1.
         -2   -1    0    0    0  501 -0.00000000000E+00 -0.00000000000E+00 -0.51959857728E+02  0.51959857728E+02  0.00000000000E+00 0.  1.
         25    2    1    2    0    0  0.87286494207E+01  0.19958928541E+02  0.13610425337E+03  0.18613466772E+03  0.12508876286E+03 0.  0.
          5    1    3    3  502    0  0.17156213491E+02 -0.50084869799E+02  0.38335775266E+02  0.65497587050E+02  0.41800000000E+01 0. -1.
         -5    1    3    3    0  502 -0.84275640704E+01  0.70043798340E+02  0.97768478104E+02  0.12063708067E+03  0.41800000000E+01 0. -1.
        -11    1    1    2    0    0  0.25455865312E+02 -0.29140016874E+02  0.59796041228E+02  0.71222947207E+02  0.00000000000E+00 0. -1.
         11    1    1    2    0    0 -0.34184514733E+02  0.91810883325E+01 -0.64784566184E+01  0.35983938509E+02  0.00000000000E+00 0.  1.
</event>
<event>
 7    1  0.2693725E-009  0.1193863E+03  0.7561462E-02  0.1244113E+00
          2   -1    0    0  501    0  0.00000000000E+00  0.00000000000E+00  0.46057663940E+03  0.46057663940E+03  0.00000000000E+00 0. -1.
         -2   -1    0    0    0  501 -0.00000000000E+00 -0.00000000000E+00 -0.40721212766E+02  0.40721212766E+02  0.00000000000E+00 0.  1.
         25    2    1    2    0    0 -0.38031367270E+02 -0.53071752470E+02  0.13601071164E+03  0.19598260049E+03  0.12508904911E+03 0.  0.
          5    1    3    3  502    0  0.40698711895E+02 -0.61378223042E+01  0.14751818586E+02  0.43922051001E+02  0.41800000000E+01 0.  1.
         -5    1    3    3    0  502 -0.78730079165E+02 -0.46933930166E+02  0.12125889305E+03  0.15206054949E+03  0.41800000000E+01 0.  1.
        -11    1    1    2    0    0  0.33114679331E+02  0.75629305982E+02  0.16798043706E+03  0.18717318490E+03  0.00000000000E+00 0.  1.
         11    1    1    2    0    0  0.49166879393E+01 -0.22557553512E+02  0.11586427794E+03  0.11814206678E+03  0.00000000000E+00 0. -1.
</event>
<event>
 7    1  0.2693725E-009  0.2047553E+03  0.7561462E-02  0.1145788E+00
         -1   -1    0    0    0  501 -0.00000000000E+00  0.00000000000E+00  0.94667921344E+02  0.94667921344E+02  0.00000000000E+00 0.  1.
          1   -1    0    0  501    0  0.00000000000E+00 -0.00000000000E+00 -0.75194143925E+03  0.75194143925E+03  0.00000000000E+00 0. -1.
         25    2    1    2    0    0 -0.17531060727E+03  0.29466297126E+02 -0.72978559440E+02  0.22929315803E+03  0.12508960986E+03 0.  0.
          5    1    3    3  502    0 -0.61520351162E+02 -0.47742788942E+02 -0.40766392882E+02  0.87997151611E+02  0.41800000000E+01 0.  1.
         -5    1    3    3    0  502 -0.11379025610E+03  0.77209086068E+02 -0.32212166559E+02  0.14129600642E+03  0.41800000000E+01 0.  1.
        -11    1    1    2    0    0  0.14259691763E+03  0.96916573649E+01 -0.48580868528E+03  0.50639696665E+03  0.00000000000E+00 0. -1.
         11    1    1    2    0    0  0.32713689631E+02 -0.39157954491E+02 -0.98486273186E+02  0.11091923591E+03  0.00000000000E+00 0.  1.
</event>
<event>
 7    1  0.2693725E-009  0.1040988E+03  0.7561462E-02  0.1271905E+00
         -1   -1    0    0    0  501 -0.00000000000E+00  0.00000000000E+00  0.18436582882E+02  0.18436582882E+02  0.00000000000E+00 0.  1.
          1   -1    0    0  501    0  0.00000000000E+00 -0.00000000000E+00 -0.10312611611E+04  0.10312611611E+04  0.00000000000E+00 0. -1.
         25    2    1    2    0    0  0.11165643294E+02 -0.82886146411E+02 -0.46623436482E+03  0.48991543559E+03  0.12509143152E+03 0.  0.
          5    1    3    3  502    0  0.14318958763E+02 -0.83117525476E+02 -0.13901165797E+03  0.16265075799E+03  0.41800000000E+01 0. -1.
         -5    1    3    3    0  502 -0.31533154692E+01  0.23137906484E+00 -0.32722270684E+03  0.32726467761E+03  0.41800000000E+01 0. -1.
        -11    1    1    2    0    0 -0.46481002381E+02  0.31460577580E+02 -0.31369459610E+03  0.31867624817E+03  0.00000000000E+00 0.  1.
         11    1    1    2    0    0  0.35315359087E+02  0.51425568831E+02 -0.23289561731E+03  0.24110606023E+03  0.00000000000E+00 0. -1.
</event>
<event>
 7    1  0.2693725E-009  0.1214446E+03  0.7561462E-02  0.1240733E+00
         -1   -1    0    0    0  501 -0.00000000000E+00  0.00000000000E+00  0.75046445311E+03  0.75046445311E+03  0.00000000000E+00 0.  1.
          1   -1    0    0  501    0  0.00000000000E+00 -0.00000000000E+00 -0.23176383104E+02  0.23176383104E+02  0.00000000000E+00 0. -1.
         25    2    1    2    0    0  0.39278773075E+02 -0.10587793923E+02  0.30700569095E+03  0.33399904019E+03  0.12509173104E+03 0.  0.
          5    1    3    3  502    0 -0.35215252524E+02  0.25843944152E+02  0.67500493006E+02  0.80509703861E+02  0.41800000000E+01 0.  1.
         -5    1    3    3    0  502  0.74494025599E+02 -0.36431738075E+02  0.23950519795E+03  0.25348933633E+03  0.41800000000E+01 0.  1.
        -11    1    1    2    0    0 -0.93648211998E+01  0.58635742923E+02  0.11790626048E+03  0.13201415259E+03  0.00000000000E+00 0. -1.
         11    1    1    2    0    0 -0.29913951875E+02 -0.48047949000E+02  0.30237611858E+03  0.30762764344E+03  0.00000000000E+00 0.  1.
</event>
<event>
 7    1  0.2693725E-009  0.8968141E+02  0.7561462E-02  0.1303625E+00
         -1   -1    0    0    0  501 -0.00000000000E+00  0.00000000000E+00  0.37018714202E+02  0.37018714202E+02  0.00000000000E+00 0.  1.
          1   -1    0    0  501    0  0.00000000000E+00 -0.00000000000E+00 -0.34224524133E+03  0.34224524133E+03  0.00000000000E+00 0. -1.
         25    2    1    2    0    0 -0.26452931643E+02  0.22671534180E+02 -0.12625565379E+03  0.18111103551E+03  0.12508781321E+03 0.  0.
          5    1    3    3  502    0 -0.52972911281E+02  0.37096773954E+02 -0.13470585259E+03  0.14948390914E+03  0.41800000000E+01 0.  1.
         -5    1    3    3    0  502  0.26519979638E+02 -0.14425239775E+02  0.84501988019E+01  0.31627126369E+02  0.41800000000E+01 0.  1.
        -11    1    1    2    0    0  0.66923502329E+01  0.28473877079E+02 -0.48627346119E+02  0.56746524282E+02  0.00000000000E+00 0.  1.
         11    1    1    2    0    0  0.19760581410E+02 -0.51145411259E+02 -0.13034352722E+03  0.14140639575E+03  0.00000000000E+00 0. -1.
</event>
<event>
 7    1  0.2693725E-009  0.1691091E+03  0.7561462E-02  0.1178780E+00
          1   -1    0    0  501    0  0.00000000000E+00  0.00000000000E+00  0.15370499363E+04  0.15370499363E+04  0.00000000000E+00 0. -1.
         -1   -1    0    0    0  501 -0.00000000000E+00 -0.00000000000E+00 -0.20552985461E+02  0.20552985461E+02  0.00000000000E+00 0.  1.
         25    2    1    2    0    0 -0.13600040019E+03 -0.25106935127E+02  0.67793741397E+03  0.70311679811E+03  0.12509047718E+03 0.  0.
          5    1    3    3  502    0 -0.91623124098E+02 -0.66459554591E+02  0.54900287802E+03  0.56056516279E+03  0.41800000000E+01 0. -1.
         -5    1    3    3    0  502 -0.44377276094E+02  0.41352619464E+02  0.12893453595E+03  0.14255163531E+03  0.41800000000E+01 0. -1.
        -11    1    1    2    0    0  0.11036279392E+03  0.56202145016E+02  0.64230178847E+03  0.65413317823E+03  0.00000000000E+00 0.  1.
         11    1    1    2    0    0  0.25637606272E+02 -0.31095209890E+02  0.19625774840E+03  0.20035294542E+03  0.00000000000E+00 0. -1.
</event>
<event>
 7    1  0.2693725E-009  0.1821185E+03  0.7561462E-02  0.1165768E+00
          2   -1    0    0  501    0  0.00000000000E+00  0.00000000000E+00  0.71198695383E+03  0.71198695383E+03  0.00000000000E+00 0. -1.
         -2   -1    0    0    0  501 -0.00000000000E+00 -0.00000000000E+00 -0.82219672589E+02  0.82219672589E+02  0.00000000000E+00 0.  1.
         25    2    1    2    0    0 -0.20108877220E+02 -0.15204439691E+03  0.57407184544E+03  0.60722968333E+03  0.12509012357E+03 0.  0.
          5    1    3    3  502    0 -0.70732946683E+02 -0.10693218320E+03  0.41160064240E+03  0.43112666675E+03  0.41800000000E+01 0.  1.
         -5    1    3    3    0  502  0.50624069463E+02 -0.45112213707E+02  0.16247120304E+03  0.17610301659E+03  0.41800000000E+01 0.  1.
        -11    1    1    2    0    0  0.45603573959E+02  0.10595164671E+03  0.75186041885E+01  0.11559397393E+03  0.00000000000E+00 0.  1.
         11    1    1    2    0    0 -0.25494696739E+02  0.46092750196E+02  0.48176831615E+02  0.71382969166E+02  0.00000000000E+00 0. -1.
</event>
<event>
 7    1  0.2693725E-009  0.6472558E+02  0.7561462E-02  0.1379007E+00
          1   -1    0    0  501    0  0.00000000000E+00  0.00000000000E+00  0.76261621347E+02  0.76261621347E+02  0.00000000000E+00 0. -1.
         -1   -1    0    0    0  501 -0.00000000000E+00 -0.00000000000E+00 -0.17255313291E+03  0.17255313291E+03  0.00000000000E+00 0.  1.
         25    2    1    2    0    0  0.13412206371E+02 -0.42924800244E+02 -0.59291588366E+02  0.14555435217E+03  0.12509257064E+03 0.  0.
          5    1    3    3  502    0  0.77951613581E+01 -0.43695924530E+02  0.31437843442E+02  0.54551890539E+02  0.41800000000E+01 0. -1.
         -5    1    3    3    0  502  0.56170450125E+01  0.77112428612E+00 -0.90729431808E+02  0.91002461635E+02  0.41800000000E+01 0. -1.
        -11    1    1    2    0    0  0.25745733469E+02  0.16264544061E+02 -0.45876470688E+02  0.55063860636E+02  0.00000000000E+00 0.  1.
         11    1    1    2    0    0 -0.39157939840E+02  0.26660256183E+02  0.88765474894E+01  0.48196541448E+02  0.00000000000E+00 0. -1.
</event>
<event>
 7    1  0.2693725E-009  0.9607215E+02  0.7561462E-02  0.1288779E+00
         -3   -1    0    0    0  501 -0.00000000000E+00  0.00000000000E+00  0.92996514689E+02  0.92996514689E+02  0.00000000000E+00 0.  1.
          3   -1    0    0  501    0  0.00000000000E+00 -0.00000000000E+00 -0.18229194659E+03  0.18229194659E+03  0.00000000000E+00 0. -1.
         25    2    1    2    0    0  0.26964697158E+02 -0.75634410926E+02 -0.42360174258E+02  0.15456889370E+03  0.12509795972E+03 0.  0.
          5    1    3    3  502    0  0.39398359416E+02 -0.73866647977E+02  0.23770626123E+02  0.87126502709E+02  0.41800000000E+01 0.  1.
         -5    1    3    3    0  502 -0.12433662258E+02 -0.17677629487E+01 -0.66130800381E+02  0.67442390987E+02  0.41800000000E+01 0.  1.
        -11    1    1    2    0    0 -0.41194145911E+02  0.66345657469E+02 -0.60652631102E+02  0.98880966732E+02  0.00000000000E+00 0. -1.
         11    1    1    2    0    0  0.14229448753E+02  0.92887534573E+01  0.13717373457E+02  0.21838600852E+02  0.00000000000E+00 0.  1.
</event>
<event>
 7    1  0.2693725E-009  0.1138718E+03  0.7561462E-02  0.1253563E+00
         -2   -1    0    0    0  501 -0.00000000000E+00  0.00000000000E+00  0.41789113696E+02  0.41789113696E+02  0.00000000000E+00 0. -1.
          2   -1    0    0  501    0  0.00000000000E+00 -0.00000000000E+00 -0.41739777291E+03  0.41739777291E+03  0.00000000000E+00 0.  1.
         25    2    1    2    0    0 -0.49032729316E+02  0.55633408072E+01 -0.15708401600E+03  0.20677834112E+03  0.12508690966E+03 0.  0.
          5    1    3    3  502    0 -0.14778569936E+02  0.46731492772E+02 -0.10006649420E+02  0.50198047558E+02  0.41800000000E+01 0.  1.
         -5    1    3    3    0  502 -0.34254159380E+02 -0.41168151965E+02 -0.14707736658E+03  0.15658029356E+03  0.41800000000E+01 0.  1.
        -11    1    1    2    0    0 -0.35120424417E+02 -0.18497058070E+02 -0.52404137971E+02  0.65740239161E+02  0.00000000000E+00 0.  1.
         11    1    1    2    0    0  0.84153153732E+02  0.12933717263E+02 -0.16612050525E+03  0.18666830633E+03  0.00000000000E+00 0. -1.
</event>
<event>
 7    1  0.2693725E-009  0.1142279E+03  0.7561462E-02  0.1252935E+00
         -2   -1    0    0    0  501 -0.00000000000E+00  0.00000000000E+00  0.22144196900E+03  0.22144196900E+03  0.00000000000E+00 0.  1.
          2   -1    0    0  501    0  0.00000000000E+00 -0.00000000000E+00 -0.10012919955E+03  0.10012919955E+03  0.00000000000E+00 0. -1.
         25    2    1    2    0    0  0.89085801294E+02  0.47302381465E+02  0.45265297658E+02  0.16694478369E+03  0.12509124008E+03 0.  0.
          5    1    3    3  502    0  0.68253065832E+02  0.24518232533E+02 -0.35153438561E+02  0.80702300863E+02  0.41800000000E+01 0. -1.
         -5    1    3    3    0  502  0.20832735462E+02  0.22784148932E+02  0.80418736219E+02  0.86242482828E+02  0.41800000000E+01 0. -1.
        -11    1    1    2    0    0 -0.47929413242E+02 -0.64242072012E+02  0.75508037957E+02  0.11011692089E+03  0.00000000000E+00 0.  1.
         11    1    1    2    0    0 -0.41156388052E+02  0.16939690547E+02  0.53943383274E+00  0.44509463962E+02  0.00000000000E+00 0. -1.
</event>
<event>
 7    1  0.2693725E-009  0.1087347E+03  0.7561462E-02  0.1262931E+00
         -4   -1    0    0    0  501 -0.00000000000E+00  0.00000000000E+00  0.22220947529E+03  0.22220947529E+03  0.00000000000E+00 0. -1.
          4   -1    0    0  501    0  0.00000000000E+00 -0.00000000000E+00 -0.91946084304E+02  0.91946084304E+02  0.00000000000E+00 0.  1.
         25    2    1    2    0    0  0.57011820516E+02 -0.33655676501E+02 -0.97725611899E+00  0.14153518616E+03  0.12509277218E+03 0.  0.
          5    1    3    3  502    0  0.85180030168E+02 -0.52670574150E+01  0.30231049502E+02  0.90635358372E+02  0.41800000000E+01 0. -1.
         -5    1    3    3    0  502 -0.28168209652E+02 -0.28388619086E+02 -0.31208305621E+02  0.50899827783E+02  0.41800000000E+01 0. -1.
        -11    1    1    2    0    0 -0.19347354044E+02 -0.18972242645E+02  0.91750008487E+00  0.27112873434E+02  0.00000000000E+00 0.  1.
         11    1    1    2    0    0 -0.37664466472E+02  0.52627919146E+02  0.13032314702E+03  0.14550750000E+03  0.00000000000E+00 0. -1.
</event>
<event>
 7    1  0.2693725E-009  0.1366943E+03  0.7561462E-02  0.1217847E+00
          1   -1    0    0  501    0  0.00000000000E+00  0.00000000000E+00  0.81936224561E+02  0.81936224561E+02  0.00000000000E+00 0. -1.
         -1   -1    0    0    0  501 -0.00000000000E+00 -0.00000000000E+00 -0.30078314339E+03  0.30078314339E+03  0.00000000000E+00 0.  1.
         25    2    1    2    0    0  0.10044708575E+03  0.41685045178E+02 -0.15318461677E+03  0.22569987513E+03  0.12509055435E+03 0.  0.
          5    1    3    3  502    0  0.77467912920E+02  0.84746739398E+02 -0.12222444517E+03  0.16774854625E+03  0.41800000000E+01 0. -1.
         -5    1    3    3    0  502  0.22979172832E+02 -0.43061694220E+02 -0.30960171603E+02  0.57951328879E+02  0.41800000000E+01 0. -1.
        -11    1    1    2    0    0 -0.39159338216E+02 -0.23088457292E+02 -0.79421470524E+02  0.91511204832E+02  0.00000000000E+00 0.  1.
         11    1    1    2    0    0 -0.61287747536E+02 -0.18596587887E+02  0.13759168467E+02  0.65508287994E+02  0.00000000000E+00 0. -1.
</event>
<event>
 7    1  0.2693725E-009  0.9984344E+02  0.7561462E-02  0.1280626E+00
          1   -1    0    0  501    0  0.00000000000E+00  0.00000000000E+00  0.99600575119E+02  0.99600575119E+02  0.00000000000E+00 0. -1.
         -1   -1    0    0    0  501 -0.00000000000E+00 -0.00000000000E+00 -0.14401492562E+03  0.14401492562E+03  0.00000000000E+00 0.  1.
         25    2    1    2    0    0 -0.21277336736E+02 -0.47562198968E+02 -0.31963430566E+02  0.13923031410E+03  0.12509409115E+03 0.  0.
          5    1    3    3  502    0 -0.34184118359E+02 -0.71787577352E+02  0.18400917713E+02  0.81719498180E+02  0.41800000000E+01 0.  1.
         -5    1    3    3    0  502  0.12906781623E+02  0.24225378384E+02 -0.50364348279E+02  0.57510815916E+02  0.41800000000E+01 0.  1.
        -11    1    1    2    0    0 -0.13026379389E+02 -0.15661061076E+02  0.17124637585E+02  0.26612189057E+02  0.00000000000E+00 0. -1.
         11    1    1    2    0    0  0.34303716125E+02  0.63223260044E+02 -0.29575557515E+02  0.77772997582E+02  0.00000000000E+00 0.  1.
</event>
<event>
 7    1  0.2693725E-009  0.1289044E+03  0.7561462E-02  0.1229091E+00
          1   -1    0    0  501    0  0.00000000000E+00  0.00000000000E+00  0.12974067334E+03  0.12974067334E+03  0.00000000000E+00 0. -1.
         -1   -1    0    0    0  501 -0.00000000000E+00 -0.00000000000E+00 -0.14617371236E+03  0.14617371236E+03  0.00000000000E+00 0.  1.
         25    2    1    2    0    0  0.82885297862E+02 -0.52186057295E+01  0.80004113664E+01  0.15035684018E+03  0.12508383732E+03 0.  0.
          5    1    3    3  502    0  0.96818186247E+02  0.37870758791E+02 -0.73048628140E+00  0.10404788114E+03  0.41800000000E+01 0. -1.
         -5    1    3    3    0  502 -0.13932888384E+02 -0.43089364521E+02  0.87308976478E+01  0.46308959039E+02  0.41800000000E+01 0. -1.
        -11    1    1    2    0    0 -0.66070341936E+02 -0.27447796522E+02 -0.43939484523E+02  0.83960406845E+02  0.00000000000E+00 0.  1.
         11    1    1    2    0    0 -0.16814955927E+02  0.32666402251E+02  0.19506034133E+02  0.41597138681E+02  0.00000000000E+00 0. -1.
</event>
<event>
 7    1  0.2693725E-009  0.1117714E+03  0.7561462E-02  0.1257324E+00
          1   -1    0    0  501    0  0.00000000000E+00  0.00000000000E+00  0.23082151821E+02  0.23082151821E+02  0.00000000000E+00 0. -1.
         -1   -1    0    0    0  501 -0.00000000000E+00 -0.00000000000E+00 -0.86385544720E+03  0.86385544720E+03  0.00000000000E+00 0.  1.
         25    2    1    2    0    0 -0.94382563920E-01 -0.70185357055E+02 -0.64206484129E+03  0.65789129937E+03  0.12509079945E+03 0.  0.
          5    1    3    3  502    0  0.39254421946E+02 -0.83400051393E+02 -0.53659161904E+03  0.54446718564E+03  0.41800000000E+01 0. -1.
         -5    1    3    3    0  502 -0.39348804510E+02  0.13214694337E+02 -0.10547322225E+03  0.11342411372E+03  0.41800000000E+01 0. -1.
        -11    1    1    2    0    0 -0.21520073166E+02  0.63316454410E+02 -0.64415537392E+02  0.92851754995E+02  0.00000000000E+00 0. -1.
         11    1    1    2    0    0  0.21614455730E+02  0.68689026449E+01 -0.13429291669E+03  0.13619454466E+03  0.00000000000E+00 0.  1.
</event>
<event>
 7    1  0.2693725E-009  0.1424279E+03  0.7561462E-02  0.1210099E+00
         -2   -1    0    0    0  501 -0.00000000000E+00  0.00000000000E+00  0.94714116954E+02  0.94714116954E+02  0.00000000000E+00 0.  1.
          2   -1    0    0  501    0  0.00000000000E+00 -0.00000000000E+00 -0.25149155948E+03  0.25149155948E+03  0.00000000000E+00 0. -1.
         25    2    1    2    0    0 -0.29451366406E+02 -0.99761167808E+02 -0.12296047846E+03  0.20392101641E+03  0.12507928719E+03 0.  0.
          5    1    3    3  502    0 -0.45220276750E+02 -0.11846124680E+03 -0.68744606198E+02  0.14429564687E+03  0.41800000000E+01 0.  1.
         -5    1    3    3    0  502  0.15768910344E+02  0.18700078994E+02 -0.54215872264E+02  0.59625369543E+02  0.41800000000E+01 0.  1.
        -11    1    1    2    0    0 -0.19684541417E+02  0.76159140230E+02 -0.38490772669E+02  0.87574170804E+02  0.00000000000E+00 0. -1.
         11    1    1    2    0    0  0.49135907823E+02  0.23602027578E+02  0.46738086083E+01  0.54710489217E+02  0.00000000000E+00 0.  1.
</event>
<event>
 7    1  0.2693725E-009  0.9352319E+02  0.7561462E-02  0.1294537E+00
          2   -1    0    0  501    0  0.00000000000E+00  0.00000000000E+00  0.56817603341E+03  0.56817603341E+03  0.00000000000E+00 0. -1.
         -2   -1    0    0    0  501 -0.00000000000E+00 -0.00000000000E+00 -0.26388969579E+02  0.26388969579E+02  0.00000000000E+00 0.  1.
         25    2    1    2    0    0  0.18293811916E+02  0.52753254865E+02  0.33561202985E+03  0.36249153546E+03  0.12508840572E+03 0.  0.
          5    1    3    3  502    0 -0.35907271410E+02  0.50713658062E+02  0.81227128479E+02  0.10235490245E+03  0.41800000000E+01 0. -1.
         -5    1    3    3    0  502  0.54201083326E+02  0.20395968038E+01  0.25438490137E+03  0.26013663301E+03  0.41800000000E+01 0. -1.
        -11    1    1    2    0    0  0.10584907852E+02 -0.34773128541E+02  0.17473954703E+02  0.40330507507E+02  0.00000000000E+00 0.  1.
         11    1    1    2    0    0 -0.28878719769E+02 -0.17980126324E+02  0.18870107928E+03  0.19174296002E+03  0.00000000000E+00 0. -1.
</event>
<event>
 7    1  0.2693725E-009  0.2811607E+03  0.7561462E-02  0.1095057E+00
         -1   -1    0    0    0  501 -0.00000000000E+00  0.00000000000E+00  0.17664077107E+03  0.17664077107E+03  0.00000000000E+00 0.  1.
          1   -1    0    0  501    0  0.00000000000E+00 -0.00000000000E+00 -0.54948616491E+03  0.54948616491E+03  0.00000000000E+00 0. -1.
         25    2    1    2    0    0 -0.21035781289E+03 -0.17495743821E+03 -0.72658592551E+02  0.30950129259E+03  0.12510501356E+03 0.  0.
          5    1    3    3  502    0 -0.14913217850E+03 -0.12144210665E+03 -0.10814053205E+03  0.22068175956E+03  0.41800000000E+01 0.  1.
         -5    1    3    3    0  502 -0.61225634388E+02 -0.53515331557E+02  0.35481939495E+02  0.88819533033E+02  0.41800000000E+01 0.  1.
        -11    1    1    2    0    0  0.18736341454E+03  0.10476470419E+03 -0.23241966653E+03  0.31638519836E+03  0.00000000000E+00 0.  1.
         11    1    1    2    0    0  0.22994398351E+02  0.70192734022E+02 -0.67767134761E+02  0.10024044502E+03  0.00000000000E+00 0. -1.
</event>
<event>
 7    1  0.2693725E-009  0.1429249E+03  0.7561462E-02  0.1209447E+00
          2   -1    0    0  501    0  0.00000000000E+00  0.00000000000E+00  0.25593707211E+03  0.25593707211E+03  0.00000000000E+00 0. -1.
         -2   -1    0    0    0  501 -0.00000000000E+00 -0.00000000000E+00 -0.24625968401E+03  0.24625968401E+03  0.00000000000E+00 0.  1.
         25    2    1    2    0    0 -0.11220566168E+03  0.23527789864E+02  0.20011664647E+03  0.26236999290E+03  0.12509066141E+03 0.  0.
          5    1    3    3  502    0  0.41160119083E+01  0.22941669286E+02  0.11692487023E+03  0.11929861450E+03  0.41800000000E+01 0. -1.
         -5    1    3    3    0  502 -0.11632167359E+03  0.58612057892E+00  0.83191776240E+02  0.14307137841E+03  0.41800000000E+01 0. -1.
        -11    1    1    2    0    0  0.32731176926E+02  0.34356453765E+02 -0.61541950084E+02  0.77711694606E+02  0.00000000000E+00 0.  1.
         11    1    1    2    0    0  0.79474484759E+02 -0.57884243630E+02 -0.12889730828E+03  0.16211506861E+03  0.00000000000E+00 0. -1.
</event>
<event>
 7    1  0.2693725E-009  0.1162416E+03  0.7561462E-02  0.1249429E+00
          2   -1    0    0  501    0  0.00000000000E+00  0.00000000000E+00  0.96451095957E+02  0.96451095957E+02  0.00000000000E+00 0. -1.
         -2   -1    0    0    0  501 -0.00000000000E+00 -0.00000000000E+00 -0.19744173320E+03  0.19744173320E+03  0.00000000000E+00 0.  1.
         25    2    1    2    0    0  0.89082261366E+01  0.50040787258E+02 -0.12571381960E+03  0.18448574862E+03  0.12509032786E+03 0.  0.
          5    1    3    3  502    0  0.59434994898E+02  0.49535646383E+02 -0.46289783310E+02  0.90258048506E+02  0.41800000000E+01 0.  1.
         -5    1    3    3    0  502 -0.50526768761E+02  0.50514087422E+00 -0.79424036286E+02  0.94227700114E+02  0.41800000000E+01 0.  1.
        -11    1    1    2    0    0 -0.33157115968E+02 -0.66966503855E+02  0.27680950397E+02  0.79687778189E+02  0.00000000000E+00 0. -1.
         11    1    1    2    0    0  0.24248889832E+02  0.16925716597E+02 -0.29577680456E+01  0.29719302350E+02  0.00000000000E+00 0.  1.
</event>
<event>
 7    1  0.2693725E-009  0.9023540E+02  0.7561462E-02  0.1302283E+00
          2   -1    0    0  501    0  0.00000000000E+00  0.00000000000E+00  0.34982142429E+02  0.34982142429E+02  0.00000000000E+00 0. -1.
         -2   -1    0    0    0  501 -0.00000000000E+00 -0.00000000000E+00 -0.41510189156E+03  0.41510189156E+03  0.00000000000E+00 0.  1.
         25    2    1    2    0    0  0.50850193709E+02 -0.97168208713E+01 -0.22799745787E+03  0.26516105579E+03  0.12508951156E+03 0.  0.
          5    1    3    3  502    0  0.53471350291E+02  0.11906604093E+02 -0.23544096981E+03  0.24176615807E+03  0.41800000000E+01 0. -1.
         -5    1    3    3    0  502 -0.26211565824E+01 -0.21623424964E+02  0.74435119425E+01  0.23394897714E+02  0.41800000000E+01 0. -1.
        -11    1    1    2    0    0 -0.69908717980E+02 -0.15634097692E+02 -0.12017528926E+03  0.13990623292E+03  0.00000000000E+00 0.  1.
         11    1    1    2    0    0  0.19058524271E+02  0.25350918563E+02 -0.31947002006E+02  0.45016745290E+02  0.00000000000E+00 0. -1.
</event>
<event>
 7    1  0.2693725E-009  0.1505159E+03  0.7561462E-02  0.1199840E+00
         -2   -1    0    0    0  501 -0.00000000000E+00  0.00000000000E+00  0.34504859045E+03  0.34504859045E+03  0.00000000000E+00 0.  1.
          2   -1    0    0  501    0  0.00000000000E+00 -0.00000000000E+00 -0.90235536067E+02  0.90235536067E+02  0.00000000000E+00 0. -1.
         25    2    1    2    0    0  0.72315263981E+02  0.11012713628E+03  0.16114543283E+03  0.24284271728E+03  0.12508897340E+03 0.  0.
          5    1    3    3  502    0  0.74957101992E+02  0.49338798523E+02  0.24364423971E+02  0.93080512107E+02  0.41800000000E+01 0.  1.
         -5    1    3    3    0  502 -0.26418380106E+01  0.60788337753E+02  0.13678100886E+03  0.14976220518E+03  0.41800000000E+01 0.  1.
        -11    1    1    2    0    0 -0.79060208974E+02 -0.59028047010E+02  0.17091287544E+02  0.10013460484E+03  0.00000000000E+00 0. -1.
         11    1    1    2    0    0  0.67449449922E+01 -0.51099089266E+02  0.76576334011E+02  0.92306804394E+02  0.00000000000E+00 0.  1.
</event>
<event>
 7    1  0.2693725E-009  0.1573271E+03  0.7561462E-02  0.1191748E+00
         -2   -1    0    0    0  501 -0.00000000000E+00  0.00000000000E+00  0.40652187476E+03  0.40652187476E+03  0.00000000000E+00 0. -1.
          2   -1    0    0  501    0  0.00000000000E+00 -0.00000000000E+00 -0.92150307333E+02  0.92150307333E+02  0.00000000000E+00 0.  1.
         25    2    1    2    0    0  0.13931093613E+03  0.63136490972E+02  0.23353224271E+03  0.30590494273E+03  0.12508705843E+03 0.  0.
          5    1    3    3  502    0  0.13855493140E+03  0.54703453651E+02  0.11825344341E+03  0.19024007500E+03  0.41800000000E+01 0. -1.
         -5    1    3    3    0  502  0.75600473543E+00  0.84330373209E+01  0.11527879930E+03  0.11566486774E+03  0.41800000000E+01 0. -1.
        -11    1    1    2    0    0 -0.81482132255E+02 -0.53727176683E+02  0.90836399375E+02  0.13333116231E+03  0.00000000000E+00 0. -1.
         11    1    1    2    0    0 -0.57828803877E+02 -0.94093142884E+01 -0.99970746594E+01  0.59436077049E+02  0.00000000000E+00 0.  1.
</event>
<event>
 7    1  0.2693725E-009  0.2221949E+03  0.7561462E-02  0.1132257E+00
         -1   -1    0    0    0  501 -0.00000000000E+00  0.00000000000E+00  0.21117472348E+03  0.21117472348E+03  0.00000000000E+00 0.  1.
          1   -1    0    0  501    0  0.00000000000E+00 -0.00000000000E+00 -0.26981621917E+03  0.26981621917E+03  0.00000000000E+00 0. -1.
         25    2    1    2    0    0  0.14641949896E+03  0.15119338700E+03 -0.59897443099E+02  0.25205880560E+03  0.12509127804E+03 0.  0.
          5    1    3    3  502    0  0.80051879491E+02  0.49111322791E+02 -0.86057672451E+02  0.12745046420E+03  0.41800000000E+01 0. -1.
         -5    1    3    3    0  502  0.66367619468E+02  0.10208206421E+03  0.26160229351E+02  0.12460834140E+03  0.41800000000E+01 0. -1.
        -11    1    1    2    0    0 -0.99997380954E+02 -0.15220650907E+03  0.63048973352E+01  0.18222527084E+03  0.00000000000E+00 0.  1.
         11    1    1    2    0    0 -0.46422118004E+02  0.10131220680E+01 -0.50489499213E+01  0.46706866215E+02  0.00000000000E+00 0. -1.
</event>
<event>
 7    1  0.2693725E-009  0.1333990E+03  0.7561462E-02  0.1222498E+00
          2   -1    0    0  501    0  0.00000000000E+00  0.00000000000E+00  0.13753599717E+04  0.13753599717E+04  0.00000000000E+00 0. -1.
         -2   -1    0    0    0  501 -0.00000000000E+00 -0.00000000000E+00 -0.15853966990E+02  0.15853966990E+02  0.00000000000E+00 0.  1.
         25    2    1    2    0    0  0.73346375214E+02 -0.45917809284E+02  0.96051601751E+03  0.97248479629E+03  0.12509006014E+03 0.  0.
          5    1    3    3  502    0  0.37110084730E+02 -0.81671302421E+02  0.41624697359E+03  0.42582434812E+03  0.41800000000E+01 0.  1.
         -5    1    3    3    0  502  0.36236290484E+02  0.35753493136E+02  0.54426904392E+03  0.54666044816E+03  0.41800000000E+01 0.  1.
        -11    1    1    2    0    0 -0.49268247815E+02  0.74015302688E+02  0.25484100395E+03  0.26990658119E+03  0.00000000000E+00 0. -1.
         11    1    1    2    0    0 -0.24078127400E+02 -0.28097493403E+02  0.14414898320E+03  0.14882256116E+03  0.00000000000E+00 0.  1.
</event>
<event>
 7    1  0.2693725E-009  0.1661271E+03  0.7561462E-02  0.1181948E+00
          1   -1    0    0  501    0  0.00000000000E+00  0.00000000000E+00  0.95221795007E+03  0.95221795007E+03  0.00000000000E+00 0. -1.
         -1   -1    0    0    0  501 -0.00000000000E+00 -0.00000000000E+00 -0.60913162792E+02  0.60913162792E+02  0.00000000000E+00 0.  1.
         25    2    1    2    0    0  0.65535371384E+02 -0.14261455840E+03  0.77156139325E+03  0.79723678620E+03  0.12508282276E+03 0.  0.
          5    1    3    3  502    0  0.30287359814E+02 -0.72911699946E+02  0.13944485694E+03  0.16029903518E+03  0.41800000000E+01 0. -1.
         -5    1    3    3    0  502  0.35248011570E+02 -0.69702858459E+02  0.63211653631E+03  0.63693775102E+03  0.41800000000E+01 0. -1.
        -11    1    1    2    0    0  0.15112974291E+02  0.49654619349E+02  0.59229073050E+02  0.78753198722E+02  0.00000000000E+00 0. -1.
         11    1    1    2    0    0 -0.80648345675E+02  0.92959939055E+02  0.60514320983E+02  0.13714112794E+03  0.00000000000E+00 0.  1.
</event>
<event>
 7    1  0.2693725E-009  0.2171554E+03  0.7561462E-02  0.1136022E+00
         -1   -1    0    0    0  501 -0.00000000000E+00  0.00000000000E+00  0.55010834416E+02  0.55010834416E+02  0.00000000000E+00 0.  1.
          1   -1    0    0  501    0  0.00000000000E+00 -0.00000000000E+00 -0.10004410748E+04  0.10004410748E+04  0.00000000000E+00 0. -1.
         25    2    1    2    0    0  0.19844352106E+03  0.44299686572E+02 -0.65051593068E+03  0.69293817698E+03  0.12510015095E+03 0.  0.
          5    1    3    3  502    0  0.16806372358E+03  0.78067110026E+02 -0.58049837956E+03  0.60937322711E+03  0.41800000000E+01 0. -1.
         -5    1    3    3    0  502  0.30379797479E+02 -0.33767423454E+02 -0.70017551126E+02  0.83564949873E+02  0.41800000000E+01 0. -1.
        -11    1    1    2    0    0 -0.16100090112E+03 -0.36797404057E+02 -0.19493378993E+03  0.25548878950E+03  0.00000000000E+00 0. -1.
         11    1    1    2    0    0 -0.37442619940E+02 -0.75022825157E+01 -0.99980519768E+02  0.10702494272E+03  0.00000000000E+00 0.  1.
</event>
<event>
 7    1  0.2693725E-009  0.1037929E+03  0.7561462E-02  0.1272516E+00
         -2   -1    0    0    0  501 -0.00000000000E+00  0.00000000000E+00  0.49019317688E+02  0.49019317688E+02  0.00000000000E+00 0.  1.
          2   -1    0    0  501    0  0.00000000000E+00 -0.00000000000E+00 -0.35619318329E+03  0.35619318329E+03  0.00000000000E+00 0. -1.
         25    2    1    2    0    0  0.68911520796E+02 -0.31431839472E+02 -0.15074660543E+03  0.21002236132E+03  0.12509234579E+03 0.  0.
          5    1    3    3  502    0  0.51220853549E+02 -0.46121802354E+02 -0.12948334641E+02  0.70256161728E+02  0.41800000000E+01 0. -1.
         -5    1    3    3    0  502  0.17690667247E+02  0.14689962882E+02 -0.13779827079E+03  0.13976619959E+03  0.41800000000E+01 0. -1.
        -11    1    1    2    0    0 -0.63389364458E+02 -0.17625815920E+02 -0.73203495215E+02  0.98425772158E+02  0.00000000000E+00 0.  1.
         11    1    1    2    0    0 -0.55221563385E+01  0.49057655392E+02 -0.83223764958E+02  0.96764367496E+02  0.00000000000E+00 0. -1.
</event>
<event>
 7    1  0.2693725E-009  0.1068010E+03  0.7561462E-02  0.1266611E+00
         -2   -1    0    0    0  501 -0.00000000000E+00  0.00000000000E+00  0.11796051165E+03  0.11796051165E+03  0.00000000000E+00 0.  1.
          2   -1    0    0  501    0  0.00000000000E+00 -0.00000000000E+00 -0.14773861884E+03  0.14773861884E+03  0.00000000000E+00 0. -1.
         25    2    1    2    0    0 -0.57386979563E+02  0.11959810370E+01 -0.50342613502E+01  0.13772129089E+03  0.12508842625E+03 0.  0.
          5    1    3    3  502    0 -0.25816904982E+02 -0.51559633758E+02 -0.36660600029E+02  0.68457142875E+02  0.41800000000E+01 0. -1.
         -5    1    3    3    0  502 -0.31570074581E+02  0.52755614795E+02  0.31626338678E+02  0.69264148011E+02  0.41800000000E+01 0. -1.
        -11    1    1    2    0    0  0.59988911817E+02  0.27046615272E+02 -0.55541069650E+02  0.86110390526E+02  0.00000000000E+00 0. -1.
         11    1    1    2    0    0 -0.26019322542E+01 -0.28242596309E+02  0.30797223814E+02  0.41867449079E+02  0.00000000000E+00 0.  1.
</event>
<event>
 7    1  0.3104417E-009  0.5749374E+02  0.7561462E-02  0.1408661E+00
          2   -1    0    0  501    0  0.00000000000E+00  0.00000000000E+00  0.62848040358E+03  0.62848040358E+03  0.00000000000E+00 0. -1.
         -2   -1    0    0    0  501 -0.00000000000E+00 -0.00000000000E+00 -0.23189144754E+02  0.23189144754E+02  0.00000000000E+00 0.  1.
         25    2    1    2    0    0  0.36057633427E+02  0.40188527828E+02  0.33355105521E+03  0.36030403757E+03  0.12508965729E+03 0.  0.
          5    1    3    3  502    0  0.13479262907E+02  0.19470677503E+02 -0.12479608659E+01  0.24079609990E+02  0.41800000000E+01 0. -1.
         -5    1    3    3    0  502  0.22578370520E+02  0.20717850325E+02  0.33479901607E+03  0.33622442758E+03  0.41800000000E+01 0. -1.
        -11    1    1    2    0    0 -0.39047907549E+02 -0.29567894359E+02  0.27541479556E+03  0.27973614188E+03  0.00000000000E+00 0. -1.
         11    1    1    2    0    0  0.29902741222E+01 -0.10620633470E+02 -0.36745919438E+01  0.11629368881E+02  0.00000000000E+00 0.  1.
</event>
<event>
 7    1  0.2693725E-009  0.4986663E+02  0.7561462E-02  0.1446062E+00
         -2   -1    0    0    0  501 -0.00000000000E+00  0.00000000000E+00  0.83341551410E+02  0.83341551410E+02  0.00000000000E+00 0.  1.
          2   -1    0    0  501    0  0.00000000000E+00 -0.00000000000E+00 -0.13842965620E+03  0.13842965620E+03  0.00000000000E+00 0. -1.
         25    2    1    2    0    0 -0.24664233065E+02 -0.14989897974E+02 -0.56564353806E+02  0.14028151016E+03  0.12508538899E+03 0.  0.
          5    1    3    3  502    0 -0.92894009006E+01 -0.13508142874E+01 -0.95502714197E+02  0.96053935304E+02  0.41800000000E+01 0. -1.
         -5    1    3    3    0  502 -0.15374832164E+02 -0.13639083687E+02  0.38938360392E+02  0.44227574859E+02  0.41800000000E+01 0. -1.
        -11    1    1    2    0    0  0.17303677379E+02  0.39376608914E+02  0.22427708928E+02  0.48507078949E+02  0.00000000000E+00 0.  1.
         11    1    1    2    0    0  0.73605556851E+01 -0.24386710940E+02 -0.20951459907E+02  0.32982618494E+02  0.00000000000E+00 0. -1.
</event>
<event>
 7    1  0.2693725E-009  0.2212965E+03  0.7561462E-02  0.1132920E+00
          4   -1    0    0  501    0  0.00000000000E+00  0.00000000000E+00  0.64795018018E+03  0.64795018018E+03  0.00000000000E+00 0. -1.
         -4   -1    0    0    0  501 -0.00000000000E+00 -0.00000000000E+00 -0.89515983041E+02  0.89515983041E+02  0.00000000000E+00 0.  1.
         25    2    1    2    0    0 -0.18377555232E+03 -0.87259798856E+02  0.39513770033E+03  0.46170252136E+03  0.12509072660E+03 0.  0.
          5    1    3    3  502    0 -0.85049034262E+02  0.25468496256E+02  0.14326070031E+03  0.16859146830E+03  0.41800000000E+01 0.  1.
         -5    1    3    3    0  502 -0.98726518062E+02 -0.11272829511E+03  0.25187700001E+03  0.29311105305E+03  0.41800000000E+01 0.  1.
        -11    1    1    2    0    0  0.77376440295E+02  0.43454612095E+02  0.18216702567E+02  0.90593957180E+02  0.00000000000E+00 0.  1.
         11    1    1    2    0    0  0.10639911203E+03  0.43805186761E+02  0.14507979425E+03  0.18516968469E+03  0.00000000000E+00 0. -1.
</event>
<event>
 7    1  0.2693725E-009  0.2095861E+03  0.7561462E-02  0.1141894E+00
         -2   -1    0    0    0  501 -0.00000000000E+00  0.00000000000E+00  0.17847930213E+03  0.17847930213E+03  0.00000000000E+00 0.  1.
          2   -1    0    0  501    0  0.00000000000E+00 -0.00000000000E+00 -0.42403046680E+03  0.42403046680E+03  0.00000000000E+00 0. -1.
         25    2    1    2    0    0 -0.16787423589E+03 -0.99853772998E+02 -0.30130287418E+03  0.38024187583E+03  0.12509167472E+03 0.  0.
          5    1    3    3  502    0  0.58976819005E+01  0.71516877787E+00 -0.84159941293E+02  0.84472849109E+02  0.41800000000E+01 0.  1.
         -5    1    3    3    0  502 -0.17377191779E+03 -0.10056894178E+03 -0.21714293289E+03  0.29576902672E+03  0.41800000000E+01 0.  1.
        -11    1    1    2    0    0  0.96200947039E+02  0.10844899762E+02  0.47106155321E+02  0.10766254656E+03  0.00000000000E+00 0.  1.
         11    1    1    2    0    0  0.71673288846E+02  0.89008873236E+02  0.86455541976E+01  0.11460534654E+03  0.00000000000E+00 0. -1.
</event>
<event>
 7    1  0.2693725E-009  0.8639127E+02  0.7561462E-02  0.1311834E+00
         -1   -1    0    0    0  501 -0.00000000000E+00  0.00000000000E+00  0.11087236345E+03  0.11087236345E+03  0.00000000000E+00 0.  1.
          1   -1    0    0  501    0  0.00000000000E+00 -0.00000000000E+00 -0.12357231143E+03  0.12357231143E+03  0.00000000000E+00 0. -1.
         25    2    1    2    0    0  0.38034452528E+02  0.87804446380E+00 -0.26712592867E+02  0.13345319409E+03  0.12509517118E+03 0.  0.
          5    1    3    3  502    0 -0.38114809539E+02  0.12074942354E+02  0.18324203760E+02  0.44179087615E+02  0.41800000000E+01 0. -1.
         -5    1    3    3    0  502  0.76149262067E+02 -0.11196897890E+02 -0.45036796627E+02  0.89274106471E+02  0.41800000000E+01 0. -1.
        -11    1    1    2    0    0 -0.58300679702E+01  0.17483713625E+02  0.47552735547E+02  0.50999339140E+02  0.00000000000E+00 0.  1.
         11    1    1    2    0    0 -0.32204384558E+02 -0.18361758089E+02 -0.33540090662E+02  0.49992141647E+02  0.00000000000E+00 0. -1.
</event>
<event>
 7    1  0.2693725E-009  0.9536235E+02  0.7561462E-02  0.1290362E+00
         -2   -1    0    0    0  501 -0.00000000000E+00  0.00000000000E+00  0.14375927940E+02  0.14375927940E+02  0.00000000000E+00 0.  1.
          2   -1    0    0  501    0  0.00000000000E+00 -0.00000000000E+00 -0.21983496065E+04  0.21983496065E+04  0.00000000000E+00 0. -1.
         25    2    1    2    0    0 -0.14826302617E+01  0.56365993510E+02 -0.19665755281E+04  0.19713570329E+04  0.12509963996E+03 0.  0.
          5    1    3    3  502    0 -0.51395825394E+02  0.47463312931E+02 -0.64376819782E+03  0.64757181985E+03  0.41800000000E+01 0. -1.
         -5    1    3    3    0  502  0.49913195132E+02  0.89026805790E+01 -0.13228073303E+04  0.13237852130E+04  0.41800000000E+01 0. -1.
        -11    1    1    2    0    0  0.20659615679E+02 -0.37791981490E+02 -0.20898466223E+03  0.21337676216E+03  0.00000000000E+00 0. -1.
         11    1    1    2    0    0 -0.19176985417E+02 -0.18574012020E+02 -0.84134882744E+01  0.27991739445E+02  0.00000000000E+00 0.  1.
</event>
<event>
 7    1  0.2693725E-009  0.1291202E+03  0.7561462E-02  0.1228767E+00
         -1   -1    0    0    0  501 -0.00000000000E+00  0.00000000000E+00  0.39909937323E+03  0.39909937323E+03  0.00000000000E+00 0.  1.
          1   -1    0    0  501    0  0.00000000000E+00 -0.00000000000E+00 -0.53814588428E+02  0.53814588428E+02  0.00000000000E+00 0. -1.
         25    2    1    2    0    0 -0.94877708251E+02  0.24267055522E+02  0.15742786881E+03  0.22365425899E+03  0.12508806570E+03 0.  0.
          5    1    3    3  502    0  0.45552242957E+01 -0.18069731291E+02  0.98809856051E+02  0.10063858758E+03  0.41800000000E+01 0.  1.
         -5    1    3    3    0  502 -0.99432932546E+02  0.42336786813E+02  0.58618012754E+02  0.12301567141E+03  0.41800000000E+01 0.  1.
        -11    1    1    2    0    0  0.73742510946E+02  0.24609230017E+02  0.10233759039E+03  0.12851674805E+03  0.00000000000E+00 0. -1.
         11    1    1    2    0    0  0.21135197305E+02 -0.48876285539E+02  0.85519325608E+02  0.10074295462E+03  0.00000000000E+00 0.  1.
</event>
<event>
 7    1  0.2693725E-009  0.1364643E+03  0.7561462E-02  0.1218167E+00
         -1   -1    0    0    0  501 -0.00000000000E+00  0.00000000000E+00  0.64343323511E+02  0.64343323511E+02  0.00000000000E+00 0.  1.
          1   -1    0    0  501    0  0.00000000000E+00 -0.00000000000E+00 -0.33805783586E+03  0.33805783586E+03  0.00000000000E+00 0. -1.
         25    2    1    2    0    0 -0.94175705001E+02 -0.28305493277E+02 -0.15910619450E+03  0.22501856626E+03  0.12509320393E+03 0.  0.
          5    1    3    3  502    0 -0.96158337370E+02  0.12088613576E+02 -0.51160360546E+02  0.10966957333E+03  0.41800000000E+01 0.  1.
         -5    1    3    3    0  502  0.19826323694E+01 -0.40394106853E+02 -0.10794583396E+03  0.11534899292E+03  0.41800000000E+01 0.  1.
        -11    1    1    2    0    0  0.11586981671E+02  0.48812211982E+02 -0.46161415344E+02  0.68174529330E+02  0.00000000000E+00 0.  1.
         11    1    1    2    0    0  0.82588723330E+02 -0.20506718706E+02 -0.68446902500E+02  0.10920806378E+03  0.00000000000E+00 0. -1.
</event>
<event>
 7    1  0.2693725E-009  0.9234127E+02  0.7561462E-02  0.1297279E+00
          1   -1    0    0  501    0  0.00000000000E+00  0.00000000000E+00  0.28157781832E+03  0.28157781832E+03  0.00000000000E+00 0. -1.
         -1   -1    0    0    0  501 -0.00000000000E+00 -0.00000000000E+00 -0.41967526241E+02  0.41967526241E+02  0.00000000000E+00 0.  1.
         25    2    1    2    0    0  0.10365577895E+02  0.15081659663E+02  0.14659237109E+03  0.19357672492E+03  0.12509086099E+03 0.  0.
          5    1    3    3  502    0 -0.46455491091E+02  0.47713428699E+01  0.14060810149E+02  0.48949536743E+02  0.41800000000E+01 0. -1.
         -5    1    3    3    0  502  0.56821068986E+02  0.10310316793E+02  0.13253156094E+03  0.14462718817E+03  0.41800000000E+01 0. -1.
        -11    1    1    2    0    0  0.20969556139E+02 -0.36391947545E+02  0.17548940900E+02  0.45519901774E+02  0.00000000000E+00 0.  1.
         11    1    1    2    0    0 -0.31335134033E+02  0.21310287883E+02  0.75468980088E+02  0.84448717871E+02  0.00000000000E+00 0. -1.
</event>
<event>
 7    1  0.2693725E-009  0.1867506E+03  0.7561462E-02  0.1161425E+00
         -2   -1    0    0    0  501 -0.00000000000E+00  0.00000000000E+00  0.56538475089E+02  0.56538475089E+02  0.00000000000E+00 0.  1.
          2   -1    0    0  501    0  0.00000000000E+00 -0.00000000000E+00 -0.72448198412E+03  0.72448198412E+03  0.00000000000E+00 0. -1.
         25    2    1    2    0    0 -0.15672881171E+03 -0.32312108851E+02 -0.46135264656E+03  0.50408554669E+03  0.12509189060E+03 0.  0.
          5    1    3    3  502    0 -0.17752550335E+03 -0.27294536994E+02 -0.38827537624E+03  0.42782652592E+03  0.41800000000E+01 0. -1.
         -5    1    3    3    0  502  0.20796691640E+02 -0.50175718576E+01 -0.73077270326E+02  0.76259020770E+02  0.41800000000E+01 0. -1.
        -11    1    1    2    0    0  0.11391103197E+03  0.51634458168E+02 -0.18928791547E+03  0.22687387558E+03  0.00000000000E+00 0.  1.
         11    1    1    2    0    0  0.42817779741E+02 -0.19322349317E+02 -0.17302946996E+02  0.50061036943E+02  0.00000000000E+00 0. -1.
</event>
<event>
 7    1  0.2693725E-009  0.1020357E+03  0.7561462E-02  0.1276073E+00
          1   -1    0    0  501    0  0.00000000000E+00  0.00000000000E+00  0.37783545812E+03  0.37783545812E+03  0.00000000000E+00 0. -1.
         -1   -1    0    0    0  501 -0.00000000000E+00 -0.00000000000E+00 -0.56626306390E+02  0.56626306390E+02  0.00000000000E+00 0.  1.
         25    2    1    2    0    0  0.62668027506E+02  0.93496047668E+01  0.63510136489E+02  0.15394061841E+03  0.12509788079E+03 0.  0.
          5    1    3    3  502    0  0.34882241011E+02  0.41687150685E+02 -0.21613635229E+02  0.58644785769E+02  0.41800000000E+01 0.  1.
         -5    1    3    3    0  502  0.27785786495E+02 -0.32337545918E+02  0.85123771718E+02  0.95295832640E+02  0.41800000000E+01 0.  1.
        -11    1    1    2    0    0  0.12725691345E+02 -0.26498287428E+02  0.41060090691E+02  0.50497856434E+02  0.00000000000E+00 0.  1.
         11    1    1    2    0    0 -0.75393718850E+02  0.17148682662E+02  0.21663892455E+03  0.23002328967E+03  0.00000000000E+00 0. -1.
</event>
<event>
 7    1  0.2693725E-009  0.1023326E+03  0.7561462E-02  0.1275466E+00
          1   -1    0    0  501    0  0.00000000000E+00  0.00000000000E+00  0.53854030534E+03  0.53854030534E+03  0.00000000000E+00 0. -1.
         -1   -1    0    0    0  501 -0.00000000000E+00 -0.00000000000E+00 -0.29939102853E+02  0.29939102853E+02  0.00000000000E+00 0.  1.
         25    2    1    2    0    0 -0.63280697093E+02 -0.19873517649E+02  0.29451755713E+03  0.32678304845E+03  0.12508863245E+03 0.  0.
          5    1    3    3  502    0 -0.70296377459E+01 -0.37721622846E+02  0.15552735457E+02  0.41613659022E+02  0.41800000000E+01 0. -1.
         -5    1    3    3    0  502 -0.56251059347E+02  0.17848105197E+02  0.27896482167E+03  0.28516938943E+03  0.41800000000E+01 0. -1.
        -11    1    1    2    0    0  0.56604536621E+02 -0.24754022909E+02  0.85955768472E+02  0.10585475592E+03  0.00000000000E+00 0.  1.
         11    1    1    2    0    0  0.66761604714E+01  0.44627540559E+02  0.12812787689E+03  0.13584160383E+03  0.00000000000E+00 0. -1.
</event>
<event>
 7    1  0.2693725E-009  0.4200111E+02  0.7561462E-02  0.1493981E+00
          2   -1    0    0  501    0  0.00000000000E+00  0.00000000000E+00  0.37615649472E+03  0.37615649472E+03  0.00000000000E+00 0. -1.
         -2   -1    0    0    0  501 -0.00000000000E+00 -0.00000000000E+00 -0.33421716610E+02  0.33421716610E+02  0.00000000000E+00 0.  1.
         25    2    1    2    0    0 -0.12610214847E+02  0.93668700717E+00  0.14979843774E+03  0.19556749814E+03  0.12508868644E+03 0.  0.
          5    1    3    3  502    0  0.33796570391E+00  0.38366207679E+01 -0.22246446500E+02  0.22961068390E+02  0.41800000000E+01 0. -1.
         -5    1    3    3    0  502 -0.12948180551E+02 -0.28999337607E+01  0.17204488424E+03  0.17260642975E+03  0.41800000000E+01 0. -1.
        -11    1    1    2    0    0 -0.16737779554E+02 -0.22460942404E+02  0.16696719028E+03  0.16930059016E+03  0.00000000000E+00 0. -1.
         11    1    1    2    0    0  0.29347994401E+02  0.21524255396E+02  0.25969150094E+02  0.44710123041E+02  0.00000000000E+00 0.  1.
</event>
<event>
 7    1  0.2693725E-009  0.3260456E+03  0.7561462E-02  0.1072900E+00
          2   -1    0    0  501    0  0.00000000000E+00  0.00000000000E+00  0.22123974756E+03  0.22123974756E+03  0.00000000000E+00 0. -1.
         -2   -1    0    0    0  501 -0.00000000000E+00 -0.00000000000E+00 -0.51758334160E+03  0.51758334160E+03  0.00000000000E+00 0.  1.
         25    2    1    2    0    0  0.15471464347E+03 -0.27571683047E+03 -0.20616856573E+03  0.39762954072E+03  0.12508949855E+03 0.  0.
          5    1    3    3  502    0 -0.11069979671E+02 -0.58038127004E+02 -0.80251062432E+01  0.59773266317E+02  0.41800000000E+01 0.  1.
         -5    1    3    3    0  502  0.16578462314E+03 -0.21767870346E+03 -0.19814345949E+03  0.33785627440E+03  0.41800000000E+01 0.  1.
        -11    1    1    2    0    0 -0.13146952781E+03  0.25937468824E+03 -0.10497070551E+03  0.30915742698E+03  0.00000000000E+00 0. -1.
         11    1    1    2    0    0 -0.23245115660E+02  0.16342142230E+02  0.14795677205E+02  0.32036121467E+02  0.00000000000E+00 0.  1.
</event>
<event>
 7    1  0.2693725E-009  0.1019027E+03  0.7561462E-02  0.1276345E+00
         -2   -1    0    0    0  501 -0.00000000000E+00  0.00000000000E+00  0.40262664351E+02  0.40262664351E+02  0.00000000000E+00 0.  1.
          2   -1    0    0  501    0  0.00000000000E+00 -0.00000000000E+00 -0.54069160996E+03  0.54069160996E+03  0.00000000000E+00 0. -1.
         25    2    1    2    0    0  0.51911046596E+02 -0.58809557429E+02 -0.39748856179E+03  0.42402532975E+03  0.12508797989E+03 0.  0.
          5    1    3    3  502    0 -0.17619491090E+02 -0.81687930481E+01 -0.28136451999E+01  0.20064013692E+02  0.41800000000E+01 0.  1.
         -5    1    3    3    0  502  0.69530537686E+02 -0.50640764381E+02 -0.39467491659E+03  0.40396131606E+03  0.41800000000E+01 0.  1.
        -11    1    1    2    0    0 -0.31757105202E+02 -0.38595935036E+01  0.30743939966E+01  0.32138171872E+02  0.00000000000E+00 0.  1.
         11    1    1    2    0    0 -0.20153941394E+02  0.62669150932E+02 -0.10601477781E+03  0.12479077268E+03  0.00000000000E+00 0. -1.
</event>
<event>
 7    1  0.2693725E-009  0.2139942E+03  0.7561462E-02  0.1138441E+00
         -1   -1    0    0    0  501 -0.00000000000E+00  0.00000000000E+00  0.14201453193E+03  0.14201453193E+03  0.00000000000E+00 0.  1.
          1   -1    0    0  501    0  0.00000000000E+00 -0.00000000000E+00 -0.35704723481E+03  0.35704723481E+03  0.00000000000E+00 0. -1.
         25    2    1    2    0    0 -0.75882759597E+02  0.17741443296E+03 -0.65817235578E+02  0.23919271464E+03  0.12508865661E+03 0.  0.
          5    1    3    3  502    0 -0.20071105217E+02 -0.14355284240E+02 -0.24842390251E+02  0.35263865410E+02  0.41800000000E+01 0.  1.
         -5    1    3    3    0  502 -0.55811654380E+02  0.19176971720E+03 -0.40974845327E+02  0.20392884923E+03  0.41800000000E+01 0.  1.
        -11    1    1    2    0    0  0.83580393862E+02 -0.12598533897E+03 -0.73738568025E+02  0.16821225962E+03  0.00000000000E+00 0. -1.
         11    1    1    2    0    0 -0.76976342653E+01 -0.51429093995E+02 -0.75476899281E+02  0.91656792479E+02  0.00000000000E+00 0.  1.
</event>
<event>
 7    1  0.2693725E-009  0.9259986E+02  0.7561462E-02  0.1296675E+00
          2   -1    0    0  501    0  0.00000000000E+00  0.00000000000E+00  0.30490203861E+03  0.30490203861E+03  0.00000000000E+00 0. -1.
         -2   -1    0    0    0  501 -0.00000000000E+00 -0.00000000000E+00 -0.70513222540E+02  0.70513222540E+02  0.00000000000E+00 0.  1.
         25    2    1    2    0    0  0.75317540969E+02  0.44125575307E+02  0.17320729494E+03  0.23080200236E+03  0.12509595878E+03 0.  0.
          5    1    3    3  502    0  0.59882016681E+02  0.36014061486E+02  0.19227854260E+03  0.20462497133E+03  0.41800000000E+01 0.  1.
         -5    1    3    3    0  502  0.15435524287E+02  0.81115138209E+01 -0.19071247663E+02  0.26177031037E+02  0.41800000000E+01 0.  1.
        -11    1    1    2    0    0 -0.65711598346E+02 -0.52820827664E+02  0.23185839100E+01  0.84341151424E+02  0.00000000000E+00 0.  1.
         11    1    1    2    0    0 -0.96059426230E+01  0.86952523566E+01  0.58862937220E+02  0.60272107358E+02  0.00000000000E+00 0. -1.
</event>
<event>
 7    1  0.2693725E-009  0.1215514E+03  0.7561462E-02  0.1240559E+00
          1   -1    0    0  501    0  0.00000000000E+00  0.00000000000E+00  0.91074727424E+02  0.91074727424E+02  0.00000000000E+00 0. -1.
         -1   -1    0    0    0  501 -0.00000000000E+00 -0.00000000000E+00 -0.19642687585E+03  0.19642687585E+03  0.00000000000E+00 0.  1.
         25    2    1    2    0    0 -0.57583503177E+02 -0.50752190890E+02 -0.41733337902E+02  0.15257847756E+03  0.12508747181E+03 0.  0.
          5    1    3    3  502    0  0.21744826489E+02  0.26463513012E+02 -0.92146094038E+00  0.34517770644E+02  0.41800000000E+01 0. -1.
         -5    1    3    3    0  502 -0.79328329666E+02 -0.77215703903E+02 -0.40811876961E+02  0.11806070692E+03  0.41800000000E+01 0. -1.
        -11    1    1    2    0    0  0.92522068517E+01  0.48560508022E+02  0.63669896476E+01  0.49842399904E+02  0.00000000000E+00 0. -1.
         11    1    1    2    0    0  0.48331296326E+02  0.21916828679E+01 -0.69985800169E+02  0.85080725806E+02  0.00000000000E+00 0.  1.
</event>
<event>
 7    1  0.2693725E-009  0.1121741E+03  0.7561462E-02  0.1256596E+00
          2   -1    0    0  501    0  0.00000000000E+00  0.00000000000E+00  0.81909239904E+03  0.81909239904E+03  0.00000000000E+00 0. -1.
         -2   -1    0    0    0  501 -0.00000000000E+00 -0.00000000000E+00 -0.21412254552E+02  0.21412254552E+02  0.00000000000E+00 0.  1.
         25    2    1    2    0    0 -0.22150437674E+02 -0.11522205025E+02  0.65661024762E+03  0.66888836586E+03  0.12510485846E+03 0.  0.
          5    1    3    3  502    0 -0.40933471928E+02  0.48530823974E+02  0.36908604645E+03  0.37453006833E+03  0.41800000000E+01 0.  1.
         -5    1    3    3    0  502  0.18783034254E+02 -0.60053028999E+02  0.28752420117E+03  0.29435829753E+03  0.41800000000E+01 0.  1.
        -11    1    1    2    0    0 -0.28728082089E+02  0.31832602411E+02  0.58733678442E+02  0.72720439081E+02  0.00000000000E+00 0. -1.
         11    1    1    2    0    0  0.50878519763E+02 -0.20310397386E+02  0.82336218430E+02  0.98895848652E+02  0.00000000000E+00 0.  1.
</event>
<event>
 7    1  0.2693725E-009  0.9435203E+02  0.7561462E-02  0.1292642E+00
         -2   -1    0    0    0  501 -0.00000000000E+00  0.00000000000E+00  0.43977897001E+02  0.43977897001E+02  0.00000000000E+00 0.  1.
          2   -1    0    0  501    0  0.00000000000E+00 -0.00000000000E+00 -0.29424237747E+03  0.29424237747E+03  0.00000000000E+00 0. -1.
         25    2    1    2    0    0  0.30353868078E+02 -0.12107500422E+02 -0.16171212406E+03  0.20703943248E+03  0.12508623689E+03 0.  0.
          5    1    3    3  502    0 -0.14505540465E+02  0.30984474204E+02 -0.13479731174E+03  0.13913387796E+03  0.41800000000E+01 0. -1.
         -5    1    3    3    0  502  0.44859408543E+02 -0.43091974625E+02 -0.26914812328E+02  0.67905554519E+02  0.41800000000E+01 0. -1.
        -11    1    1    2    0    0 -0.43951887065E+01  0.47666049609E+02 -0.25378894028E+02  0.54179869243E+02  0.00000000000E+00 0.  1.
         11    1    1    2    0    0 -0.25958679372E+02 -0.35558549187E+02 -0.63173462377E+02  0.77000972745E+02  0.00000000000E+00 0. -1.
</event>
<event>
 7    1  0.2693725E-009  0.8997196E+02  0.7561462E-02  0.1302920E+00
         -2   -1    0    0    0  501 -0.00000000000E+00  0.00000000000E+00  0.76141619987E+02  0.76141619987E+02  0.00000000000E+00 0.  1.
          2   -1    0    0  501    0  0.00000000000E+00 -0.00000000000E+00 -0.18132853268E+03  0.18132853268E+03  0.00000000000E+00 0. -1.
         25    2    1    2    0    0  0.11774825551E+02  0.25193418149E+02 -0.19945823634E+02  0.12968392312E+03  0.12508688661E+03 0.  0.
          5    1    3    3  502    0 -0.15011176058E+02 -0.39380257448E+02  0.22332157175E+02  0.47878363876E+02  0.41800000000E+01 0. -1.
         -5    1    3    3    0  502  0.26786001608E+02  0.64573675597E+02 -0.42277980809E+02  0.81805559246E+02  0.41800000000E+01 0. -1.
        -11    1    1    2    0    0 -0.12571107932E+02 -0.45516429067E+02 -0.79763867920E+01  0.47889464561E+02  0.00000000000E+00 0.  1.
         11    1    1    2    0    0  0.79628238149E+00  0.20323010918E+02 -0.77264702266E+02  0.79896764982E+02  0.00000000000E+00 0. -1.
</event>
<event>
 7    1  0.2693725E-009  0.1969401E+03  0.7561462E-02  0.1152347E+00
          1   -1    0    0  501    0  0.00000000000E+00  0.00000000000E+00  0.48730266674E+03  0.48730266674E+03  0.00000000000E+00 0. -1.
         -1   -1    0    0    0  501 -0.00000000000E+00 -0.00000000000E+00 -0.97535439443E+02  0.97535439443E+02  0.00000000000E+00 0.  1.
         25    2    1    2    0    0  0.16578550193E+03 -0.89549755260E+02  0.20151025816E+03  0.30291570322E+03  0.12509015868E+03 0.  0.
          5    1    3    3  502    0  0.32897302081E+02 -0.60426866642E+02  0.12583249405E+02  0.70067462221E+02  0.41800000000E+01 0.  1.
         -5    1    3    3    0  502  0.13288819985E+03 -0.29122888617E+02  0.18892700876E+03  0.23284824100E+03  0.41800000000E+01 0.  1.
        -11    1    1    2    0    0 -0.25541211298E+02  0.87940807235E+01  0.86823165150E+02  0.90928275783E+02  0.00000000000E+00 0. -1.
         11    1    1    2    0    0 -0.14024429063E+03  0.80755674536E+02  0.10143380398E+03  0.19099412717E+03  0.00000000000E+00 0.  1.
</event>
<event>
 7    1  0.2693725E-009  0.1119952E+03  0.7561462E-02  0.1256919E+00
         -1   -1    0    0    0  501 -0.00000000000E+00  0.00000000000E+00  0.16138223086E+03  0.16138223086E+03  0.00000000000E+00 0.  1.
          1   -1    0    0  501    0  0.00000000000E+00 -0.00000000000E+00 -0.11399661481E+03  0.11399661481E+03  0.00000000000E+00 0. -1.
         25    2    1    2    0    0  0.70971368445E+02  0.63986662750E+01 -0.16829674262E+02  0.14494142266E+03  0.12508756931E+03 0.  0.
          5    1    3    3  502    0  0.83484133367E+02  0.29497442497E+02 -0.50511283944E+02  0.10202235953E+03  0.41800000000E+01 0. -1.
         -5    1    3    3    0  502 -0.12512764922E+02 -0.23098776222E+02  0.33681609682E+02  0.42919063127E+02  0.41800000000E+01 0. -1.
        -11    1    1    2    0    0  0.18330107899E+02  0.42456865484E+01 -0.17623230335E+01  0.18897737757E+02  0.00000000000E+00 0.  1.
         11    1    1    2    0    0 -0.89301476345E+02 -0.10644352823E+02  0.65977613340E+02  0.11153968525E+03  0.00000000000E+00 0. -1.
</event>
<event>
 7    1  0.2693725E-009  0.9934112E+02  0.7561462E-02  0.1281688E+00
          2   -1    0    0  501    0  0.00000000000E+00  0.00000000000E+00  0.19704880855E+03  0.19704880855E+03  0.00000000000E+00 0. -1.
         -2   -1    0    0    0  501 -0.00000000000E+00 -0.00000000000E+00 -0.73475752942E+02  0.73475752942E+02  0.00000000000E+00 0.  1.
         25    2    1    2    0    0 -0.46196244671E+02  0.72917074230E+01  0.88320443266E+02  0.16010821192E+03  0.12508747662E+03 0.  0.
          5    1    3    3  502    0 -0.79816829852E+02 -0.27179602394E+02  0.47650359558E+02  0.96940632759E+02  0.41800000000E+01 0.  1.
         -5    1    3    3    0  502  0.33620585181E+02  0.34471309817E+02  0.40670083708E+02  0.63167579162E+02  0.41800000000E+01 0.  1.
        -11    1    1    2    0    0  0.29752912853E+00 -0.18643888265E+02 -0.26647983875E+02  0.32523808784E+02  0.00000000000E+00 0.  1.
         11    1    1    2    0    0  0.45898715542E+02  0.11352180842E+02  0.61900596220E+02  0.77892540790E+02  0.00000000000E+00 0. -1.
</event>
<event>
 7    1  0.2693725E-009  0.1328582E+03  0.7561462E-02  0.1223275E+00
          1   -1    0    0  501    0  0.00000000000E+00  0.00000000000E+00  0.40211146789E+03  0.40211146789E+03  0.00000000000E+00 0. -1.
         -1   -1    0    0    0  501 -0.00000000000E+00 -0.00000000000E+00 -0.48405617787E+02  0.48405617787E+02  0.00000000000E+00 0.  1.
         25    2    1    2    0    0  0.18890362807E+02 -0.85794768879E+02  0.20658652603E+03  0.25698737461E+03  0.12508768844E+03 0.  0.
          5    1    3    3  502    0  0.61366760879E+02 -0.89944964721E+02  0.16092874141E+03  0.19434893422E+03  0.41800000000E+01 0. -1.
         -5    1    3    3    0  502 -0.42476398071E+02  0.41501958417E+01  0.45657784622E+02  0.62638440396E+02  0.41800000000E+01 0. -1.
        -11    1    1    2    0    0 -0.44681632995E+02  0.71684051708E+02  0.65843022189E+02  0.10709974401E+03  0.00000000000E+00 0.  1.
         11    1    1    2    0    0  0.25791270187E+02  0.14110717171E+02  0.81276301881E+02  0.86429967051E+02  0.00000000000E+00 0. -1.
</event>
<event>
 7    1  0.2693725E-009  0.5640543E+02  0.7561462E-02  0.1413567E+00
         -2   -1    0    0    0  501 -0.00000000000E+00  0.00000000000E+00  0.16483827125E+03  0.16483827125E+03  0.00000000000E+00 0.  1.
          2   -1    0    0  501    0  0.00000000000E+00 -0.00000000000E+00 -0.71002135461E+02  0.71002135461E+02  0.00000000000E+00 0. -1.
         25    2    1    2    0    0 -0.12595804539E+01  0.12663451527E+01  0.48562854211E+02  0.13420259991E+03  0.12509515115E+03 0.  0.
          5    1    3    3  502    0 -0.19117557107E+02 -0.31838095927E+02 -0.29393263372E+02  0.47545574702E+02  0.41800000000E+01 0. -1.
         -5    1    3    3    0  502  0.17857976653E+02  0.33104441080E+02  0.77956117583E+02  0.86657025209E+02  0.41800000000E+01 0. -1.
        -11    1    1    2    0    0 -0.17430841771E+02 -0.57838225240E+01  0.68825167662E+02  0.71233352803E+02  0.00000000000E+00 0.  1.
         11    1    1    2    0    0  0.18690422225E+02  0.45174773713E+01 -0.23551886084E+02  0.30404453997E+02  0.00000000000E+00 0. -1.
</event>
<event>
 7    1  0.2693725E-009  0.6154336E+02  0.7561462E-02  0.1391467E+00
          1   -1    0    0  501    0  0.00000000000E+00  0.00000000000E+00  0.30881214359E+03  0.30881214359E+03  0.00000000000E+00 0. -1.
         -1   -1    0    0    0  501 -0.00000000000E+00 -0.00000000000E+00 -0.56108196604E+02  0.56108196604E+02  0.00000000000E+00 0.  1.
         25    2    1    2    0    0 -0.56081803584E+01 -0.20634781197E+02  0.54392994765E+02  0.13808669193E+03  0.12510831598E+03 0.  0.
          5    1    3    3  502    0 -0.21700139705E+02  0.23148813066E+01 -0.36581142507E+02  0.42800784172E+02  0.41800000000E+01 0.  1.
         -5    1    3    3    0  502  0.16091959346E+02 -0.22949662503E+02  0.90974137272E+02  0.95285907757E+02  0.41800000000E+01 0.  1.
        -11    1    1    2    0    0 -0.29614745636E+02 -0.35123262539E+01  0.17627192662E+03  0.17877684892E+03  0.00000000000E+00 0. -1.
         11    1    1    2    0    0  0.35222925994E+02  0.24147107451E+02  0.22039025598E+02  0.48056799344E+02  0.00000000000E+00 0.  1.
</event>
<event>
 7    1  0.2693725E-009  0.1001287E+03  0.7561462E-02  0.1280026E+00
          1   -1    0    0  501    0  0.00000000000E+00  0.00000000000E+00  0.18564596273E+04  0.18564596273E+04  0.00000000000E+00 0. -1.
         -1   -1    0    0    0  501 -0.00000000000E+00 -0.00000000000E+00 -0.16596435878E+02  0.16596435878E+02  0.00000000000E+00 0.  1.
         25    2    1    2    0    0 -0.52053229608E+02 -0.50043337496E+02  0.16069481269E+04  0.16134260910E+04  0.12509034461E+03 0.  0.
          5    1    3    3  502    0 -0.40709639293E+02 -0.58459447376E+02  0.15871288996E+04  0.15887323243E+04  0.41800000000E+01 0. -1.
         -5    1    3    3    0  502 -0.11343590315E+02  0.84161098797E+01  0.19819227210E+02  0.24693766702E+02  0.41800000000E+01 0. -1.
        -11    1    1    2    0    0  0.26039347997E+01 -0.24541309255E+02  0.40567023875E+02  0.47484100101E+02  0.00000000000E+00 0.  1.
         11    1    1    2    0    0  0.49449294808E+02  0.74584646751E+02  0.19234804068E+03  0.21214587208E+03  0.00000000000E+00 0. -1.
</event>
<event>
 7    1  0.2693725E-009  0.9991273E+02  0.7561462E-02  0.1280480E+00
          4   -1    0    0  501    0  0.00000000000E+00  0.00000000000E+00  0.40512587363E+02  0.40512587363E+02  0.00000000000E+00 0. -1.
         -4   -1    0    0    0  501 -0.00000000000E+00 -0.00000000000E+00 -0.41291429371E+03  0.41291429371E+03  0.00000000000E+00 0.  1.
         25    2    1    2    0    0  0.42310068801E+02  0.36069089334E+02 -0.28213664312E+03  0.31359201938E+03  0.12509095931E+03 0.  0.
          5    1    3    3  502    0  0.71395884127E+01  0.73416895908E+02 -0.10006285623E+03  0.12438272358E+03  0.41800000000E+01 0. -1.
         -5    1    3    3    0  502  0.35170480388E+02 -0.37347806574E+02 -0.18207378689E+03  0.18920929580E+03  0.41800000000E+01 0. -1.
        -11    1    1    2    0    0 -0.10903224490E+02  0.12529222906E+02 -0.79200085700E+02  0.80922897290E+02  0.00000000000E+00 0.  1.
         11    1    1    2    0    0 -0.31406844311E+02 -0.48598312240E+02 -0.11064977529E+02  0.58911964403E+02  0.00000000000E+00 0. -1.
</event>
<event>
 7    1  0.2693725E-009  0.7020360E+02  0.7561462E-02  0.1359402E+00
          3   -1    0    0  501    0  0.00000000000E+00  0.00000000000E+00  0.31186753508E+02  0.31186753508E+02  0.00000000000E+00 0. -1.
         -3   -1    0    0    0  501 -0.00000000000E+00 -0.00000000000E+00 -0.61388123636E+03  0.61388123636E+03  0.00000000000E+00 0.  1.
         25    2    1    2    0    0 -0.12229371588E+02 -0.41975855806E+02 -0.49110149997E+03  0.50866289222E+03  0.12508287112E+03 0.  0.
          5    1    3    3  502    0  0.17819072047E+02  0.55629434647E+01 -0.56495813006E+01  0.19946323909E+02  0.41800000000E+01 0. -1.
         -5    1    3    3    0  502 -0.30048443635E+02 -0.47538799271E+02 -0.48545191867E+03  0.48871656831E+03  0.41800000000E+01 0. -1.
        -11    1    1    2    0    0 -0.15907960761E+02  0.30688348980E+02  0.52180852274E+01  0.34958066196E+02  0.00000000000E+00 0. -1.
         11    1    1    2    0    0  0.28137332349E+02  0.11287506826E+02 -0.96811068103E+02  0.10144703145E+03  0.00000000000E+00 0.  1.
</event>
<event>
 7    1  0.2693725E-009  0.1267178E+03  0.7561462E-02  0.1232409E+00
          4   -1    0    0  501    0  0.00000000000E+00  0.00000000000E+00  0.60683846878E+03  0.60683846878E+03  0.00000000000E+00 0. -1.
         -4   -1    0    0    0  501 -0.00000000000E+00 -0.00000000000E+00 -0.30503554155E+02  0.30503554155E+02  0.00000000000E+00 0.  1.
         25    2    1    2    0    0  0.19376045838E+02 -0.67352731875E+02  0.41727454632E+03  0.44122305578E+03  0.12509163164E+03 0.  0.
          5    1    3    3  502    0 -0.57976736745E+01  0.36114989076E+02  0.10587195969E+03  0.11209036402E+03  0.41800000000E+01 0. -1.
         -5    1    3    3    0  502  0.25173719512E+02 -0.10346772095E+03  0.31140258662E+03  0.32913269176E+03  0.41800000000E+01 0. -1.
        -11    1    1    2    0    0  0.17791791210E+02  0.70538704458E+02  0.76745129474E+02  0.10574531460E+03  0.00000000000E+00 0. -1.
         11    1    1    2    0    0 -0.37167837048E+02 -0.31859725825E+01  0.82315238832E+02  0.90373652555E+02  0.00000000000E+00 0.  1.
</event>
<event>
 7    1  0.2693725E-009  0.1061126E+03  0.7561462E-02  0.1267943E+00
          1   -1    0    0  501    0  0.00000000000E+00  0.00000000000E+00  0.25101939389E+03  0.25101939389E+03  0.00000000000E+00 0. -1.
         -1   -1    0    0    0  501 -0.00000000000E+00 -0.00000000000E+00 -0.58705232491E+02  0.58705232491E+02  0.00000000000E+00 0.  1.
         25    2    1    2    0    0 -0.30595634609E+02  0.46942236161E+02  0.11612278002E+03  0.17964211842E+03  0.12508846580E+03 0.  0.
          5    1    3    3  502    0  0.25842339394E+02 -0.15745471072E+02  0.83833647806E+02  0.89226113157E+02  0.41800000000E+01 0. -1.
         -5    1    3    3    0  502 -0.56437974003E+02  0.62687707232E+02  0.32289132216E+02  0.90416005259E+02  0.41800000000E+01 0. -1.
        -11    1    1    2    0    0  0.36989550973E+02  0.11263737734E+02  0.67556385285E+01  0.39252226954E+02  0.00000000000E+00 0.  1.
         11    1    1    2    0    0 -0.63939163639E+01 -0.58205973895E+02  0.69435742843E+02  0.90830281007E+02  0.00000000000E+00 0. -1.
</event>
<event>
 7    1  0.2693725E-009  0.1119511E+03  0.7561462E-02  0.1256999E+00
         -4   -1    0    0    0  501 -0.00000000000E+00  0.00000000000E+00  0.11440466720E+03  0.11440466720E+03  0.00000000000E+00 0.  1.
          4   -1    0    0  501    0  0.00000000000E+00 -0.00000000000E+00 -0.11749443056E+03  0.11749443056E+03  0.00000000000E+00 0. -1.
         25    2    1    2    0    0 -0.22202387322E+02  0.33553578691E+02 -0.24088825242E+02  0.13359497154E+03  0.12509418960E+03 0.  0.
          5    1    3    3  502    0 -0.26286457040E+02  0.78596544999E+02 -0.29016310960E+02  0.87907982637E+02  0.41800000000E+01 0. -1.
         -5    1    3    3    0  502  0.40840697180E+01 -0.45042966308E+02  0.49274857180E+01  0.45686988901E+02  0.41800000000E+01 0. -1.
        -11    1    1    2    0    0  0.50597193884E+02  0.12134577119E+01  0.59524770656E+01  0.50960577820E+02  0.00000000000E+00 0. -1.
         11    1    1    2    0    0 -0.28394806562E+02 -0.34767036403E+02  0.15046584819E+02  0.47343548395E+02  0.00000000000E+00 0.  1.
</event>
<event>
 7    1  0.2693725E-009  0.1265607E+03  0.7561462E-02  0.1232650E+00
         -2   -1    0    0    0  501 -0.00000000000E+00  0.00000000000E+00  0.24499370301E+02  0.24499370301E+02  0.00000000000E+00 0. -1.
          2   -1    0    0  501    0  0.00000000000E+00 -0.00000000000E+00 -0.84199598883E+03  0.84199598883E+03  0.00000000000E+00 0.  1.
         25    2    1    2    0    0  0.17951770743E+02  0.81066597967E+02 -0.31276924910E+03  0.34693834174E+03  0.12509016911E+03 0.  0.
          5    1    3    3  502    0 -0.32842575020E+02  0.74268434495E+02 -0.10446174263E+03  0.13237886224E+03  0.41800000000E+01 0.  1.
         -5    1    3    3    0  502  0.50794345763E+02  0.67981634724E+01 -0.20830750648E+03  0.21455947950E+03  0.41800000000E+01 0.  1.
        -11    1    1    2    0    0 -0.53093614045E+02 -0.40897784548E+02 -0.22439825748E+03  0.23419252463E+03  0.00000000000E+00 0.  1.
         11    1    1    2    0    0  0.35141843303E+02 -0.40168813420E+02 -0.28032911195E+03  0.28536449276E+03  0.00000000000E+00 0. -1.
</event>
<event>
 7    1  0.2693725E-009  0.2097283E+03  0.7561462E-02  0.1141781E+00
          2   -1    0    0  501    0  0.00000000000E+00  0.00000000000E+00  0.18772825748E+04  0.18772825748E+04  0.00000000000E+00 0. -1.
         -2   -1    0    0    0  501 -0.00000000000E+00 -0.00000000000E+00 -0.28961876115E+02  0.28961876115E+02  0.00000000000E+00 0.  1.
         25    2    1    2    0    0  0.16627982366E+03  0.11895774467E+03  0.10487116520E+04  0.10757524561E+04  0.12508914052E+03 0.  0.
          5    1    3    3  502    0  0.97974993349E+02  0.74122080271E+02  0.87670072177E+03  0.88527668559E+03  0.41800000000E+01 0.  1.
         -5    1    3    3    0  502  0.68304830313E+02  0.44835664404E+02  0.17201093024E+03  0.19047577056E+03  0.41800000000E+01 0.  1.
        -11    1    1    2    0    0 -0.31496340552E+02  0.46502421932E+01  0.53146057374E+02  0.61952785531E+02  0.00000000000E+00 0. -1.
         11    1    1    2    0    0 -0.13478348311E+03 -0.12360798687E+03  0.74646298933E+03  0.76853920927E+03  0.00000000000E+00 0.  1.
</event>
<event>
 7    1  0.2693725E-009  0.2088720E+03  0.7561462E-02  0.1142462E+00
          1   -1    0    0  501    0  0.00000000000E+00  0.00000000000E+00  0.36509901270E+03  0.36509901270E+03  0.00000000000E+00 0. -1.
         -1   -1    0    0    0  501 -0.00000000000E+00 -0.00000000000E+00 -0.14284923149E+03  0.14284923149E+03  0.00000000000E+00 0.  1.
         25    2    1    2    0    0 -0.19086013653E+03 -0.63604677243E+02  0.11878627951E+03  0.26501269913E+03  0.12509358024E+03 0.  0.
          5    1    3    3  502    0 -0.13001100475E+03 -0.80058274630E+02  0.13033774548E+03  0.20079240272E+03  0.41800000000E+01 0. -1.
         -5    1    3    3    0  502 -0.60849131786E+02  0.16453597386E+02 -0.11551465966E+02  0.64220296418E+02  0.41800000000E+01 0. -1.
        -11    1    1    2    0    0  0.66514078637E+02  0.30371514537E+02 -0.68230031706E+01  0.73437762252E+02  0.00000000000E+00 0.  1.
         11    1    1    2    0    0  0.12434605790E+03  0.33233162706E+02  0.11028650487E+03  0.16949778280E+03  0.00000000000E+00 0. -1.
</event>
<event>
 7    1  0.2693725E-009  0.1238287E+03  0.7561462E-02  0.1236911E+00
          1   -1    0    0  501    0  0.00000000000E+00  0.00000000000E+00  0.29387839882E+03  0.29387839882E+03  0.00000000000E+00 0. -1.
         -1   -1    0    0    0  501 -0.00000000000E+00 -0.00000000000E+00 -0.69624662731E+02  0.69624662731E+02  0.00000000000E+00 0.  1.
         25    2    1    2    0    0  0.45766439989E+02 -0.85696128877E+02  0.77885127843E+02  0.17650255495E+03  0.12509462510E+03 0.  0.
          5    1    3    3  502    0 -0.15594668868E+02  0.16488817730E+02  0.48438809107E+02  0.53655059733E+02  0.41800000000E+01 0.  1.
         -5    1    3    3    0  502  0.61361108857E+02 -0.10218494661E+03  0.29446318735E+02  0.12284749521E+03  0.41800000000E+01 0.  1.
        -11    1    1    2    0    0 -0.53095365104E+02  0.68866384237E+02  0.80067874855E+02  0.11820558894E+03  0.00000000000E+00 0.  1.
         11    1    1    2    0    0  0.73289251152E+01  0.16829744640E+02  0.66300733392E+02  0.68794917663E+02  0.00000000000E+00 0. -1.
</event>
<event>
 7    1  0.2693725E-009  0.1535742E+03  0.7561462E-02  0.1196149E+00
         -1   -1    0    0    0  501 -0.00000000000E+00  0.00000000000E+00  0.22396032052E+02  0.22396032052E+02  0.00000000000E+00 0.  1.
          1   -1    0    0  501    0  0.00000000000E+00 -0.00000000000E+00 -0.12153216988E+04  0.12153216988E+04  0.00000000000E+00 0. -1.
         25    2    1    2    0    0  0.36292655648E+02  0.10801792232E+03 -0.45203971890E+03  0.48267392087E+03  0.12509667474E+03 0.  0.
          5    1    3    3  502    0  0.66403914188E+02  0.21221925863E+02 -0.12771716384E+03  0.14556440601E+03  0.41800000000E+01 0. -1.
         -5    1    3    3    0  502 -0.30111258540E+02  0.86795996453E+02 -0.32432255505E+03  0.33710951486E+03  0.41800000000E+01 0. -1.
        -11    1    1    2    0    0 -0.60768375817E+02 -0.39227369782E+02 -0.38777556693E+03  0.39446352474E+03  0.00000000000E+00 0.  1.
         11    1    1    2    0    0  0.24475720168E+02 -0.68790552534E+02 -0.35311038094E+03  0.36058028527E+03  0.00000000000E+00 0. -1.
</event>
<event>
 7    1  0.2693725E-009  0.1010850E+03  0.7561462E-02  0.1278031E+00
          2   -1    0    0  501    0  0.00000000000E+00  0.00000000000E+00  0.12505606443E+04  0.12505606443E+04  0.00000000000E+00 0.  1.
         -2   -1    0    0    0  501 -0.00000000000E+00 -0.00000000000E+00 -0.10575643618E+02  0.10575643618E+02  0.00000000000E+00 0. -1.
         25    2    1    2    0    0  0.86990131528E+01  0.34186651044E+02  0.79696495154E+03  0.80749364311E+03  0.12509376380E+03 0.  0.
          5    1    3    3  502    0  0.49038849818E+02 -0.33710507460E+01  0.14444809317E+03  0.15263976151E+03  0.41800000000E+01 0.  1.
         -5    1    3    3    0  502 -0.40339836665E+02  0.37557701790E+02  0.65251685837E+03  0.65485388160E+03  0.41800000000E+01 0.  1.
        -11    1    1    2    0    0  0.10037375621E+01 -0.65127959971E+02  0.29017803310E+03  0.29739863744E+03  0.00000000000E+00 0. -1.
         11    1    1    2    0    0 -0.97027507149E+01  0.30941308927E+02  0.15284201609E+03  0.15624400741E+03  0.00000000000E+00 0.  1.
</event>
<event>
 7    1  0.3739528E-009  0.1705035E+03  0.7561462E-02  0.1177324E+00
          1   -1    0    0  501    0  0.00000000000E+00  0.00000000000E+00  0.92813343387E+03  0.92813343387E+03  0.00000000000E+00 0. -1.
         -1   -1    0    0    0  501 -0.00000000000E+00 -0.00000000000E+00 -0.38931569209E+02  0.38931569209E+02  0.00000000000E+00 0.  1.
         25    2    1    2    0    0 -0.12927362324E+03 -0.86852842681E+02  0.46317932782E+03  0.50441805224E+03  0.12508955096E+03 0.  0.
          5    1    3    3  502    0 -0.48332034345E+02  0.66494408918E+01  0.27415515690E+03  0.27849366790E+03  0.41800000000E+01 0.  1.
         -5    1    3    3    0  502 -0.80941588892E+02 -0.93502283573E+02  0.18902417092E+03  0.22592438434E+03  0.41800000000E+01 0.  1.
        -11    1    1    2    0    0  0.47509624754E+02 -0.20006227688E+01  0.56237493167E+02  0.73646605987E+02  0.00000000000E+00 0.  1.
         11    1    1    2    0    0  0.81763998483E+02  0.88853465450E+02  0.36978504367E+03  0.38900034485E+03  0.00000000000E+00 0. -1.
</event>
<event>
 7    1  0.2693725E-009  0.1012510E+03  0.7561462E-02  0.1277687E+00
          4   -1    0    0  501    0  0.00000000000E+00  0.00000000000E+00  0.53410631839E+03  0.53410631839E+03  0.00000000000E+00 0.  1.
         -4   -1    0    0    0  501 -0.00000000000E+00 -0.00000000000E+00 -0.32294212243E+02  0.32294212243E+02  0.00000000000E+00 0. -1.
         25    2    1    2    0    0 -0.45738580150E+02  0.55458569117E+02  0.31189357387E+03  0.34364628465E+03  0.12508995533E+03 0.  0.
          5    1    3    3  502    0 -0.61409683070E+02  0.43831940786E+02  0.31456403818E+03  0.32351258820E+03  0.41800000000E+01 0.  1.
         -5    1    3    3    0  502  0.15671102920E+02  0.11626628330E+02 -0.26704643028E+01  0.20133696448E+02  0.41800000000E+01 0.  1.
        -11    1    1    2    0    0 -0.20738034957E+02 -0.28502420290E+02  0.10929292041E+03  0.11483639017E+03  0.00000000000E+00 0.  1.
         11    1    1    2    0    0  0.66476615107E+02 -0.26956148827E+02  0.80625611868E+02  0.10791785582E+03  0.00000000000E+00 0. -1.
</event>
<event>
 7    1  0.2693725E-009  0.7588698E+02  0.7561462E-02  0.1341146E+00
         -1   -1    0    0    0  501 -0.00000000000E+00  0.00000000000E+00  0.40846900501E+03  0.40846900501E+03  0.00000000000E+00 0.  1.
          1   -1    0    0  501    0  0.00000000000E+00 -0.00000000000E+00 -0.36858028390E+02  0.36858028390E+02  0.00000000000E+00 0. -1.
         25    2    1    2    0    0 -0.18920659364E+02  0.34773511908E+02  0.28185271209E+03  0.31089348781E+03  0.12508645396E+03 0.  0.
          5    1    3    3  502    0  0.11822798997E+02  0.47065504061E+02  0.27167032169E+03  0.27600213103E+03  0.41800000000E+01 0.  1.
         -5    1    3    3    0  502 -0.30743458360E+02 -0.12291992153E+02  0.10182390405E+02  0.34891356772E+02  0.41800000000E+01 0.  1.
        -11    1    1    2    0    0  0.39611130632E+02 -0.24704636144E+02  0.99142046754E+02  0.10958332972E+03  0.00000000000E+00 0.  1.
         11    1    1    2    0    0 -0.20690471268E+02 -0.10068875765E+02 -0.93837822262E+01  0.24850215881E+02  0.00000000000E+00 0. -1.
</event>
<event>
 7    1  0.2693725E-009  0.9647756E+02  0.7561462E-02  0.1287883E+00
          1   -1    0    0  501    0  0.00000000000E+00  0.00000000000E+00  0.11299076308E+03  0.11299076308E+03  0.00000000000E+00 0. -1.
         -1   -1    0    0    0  501 -0.00000000000E+00 -0.00000000000E+00 -0.13493781568E+03  0.13493781568E+03  0.00000000000E+00 0.  1.
         25    2    1    2    0    0 -0.38060375253E+02 -0.40665476363E+02  0.19452746417E+01  0.13694554999E+03  0.12509207184E+03 0.  0.
          5    1    3    3  502    0  0.25581175154E+02 -0.44405113562E+02  0.37677463957E+02  0.63743817920E+02  0.41800000000E+01 0. -1.
         -5    1    3    3    0  502 -0.63641550407E+02  0.37396371999E+01 -0.35732189316E+02  0.73201732069E+02  0.41800000000E+01 0. -1.
        -11    1    1    2    0    0  0.45262601640E+02  0.10270088119E+02 -0.51475849290E+02  0.69310467300E+02  0.00000000000E+00 0.  1.
         11    1    1    2    0    0 -0.72022263870E+01  0.30395388243E+02  0.27583522048E+02  0.41672561476E+02  0.00000000000E+00 0. -1.
</event>
<event>
 7    1  0.2693725E-009  0.9586547E+02  0.7561462E-02  0.1289239E+00
         -2   -1    0    0    0  501 -0.00000000000E+00  0.00000000000E+00  0.36787883289E+02  0.36787883289E+02  0.00000000000E+00 0. -1.
          2   -1    0    0  501    0  0.00000000000E+00 -0.00000000000E+00 -0.37749550601E+03  0.37749550601E+03  0.00000000000E+00 0.  1.
         25    2    1    2    0    0 -0.18067350495E+02  0.33994810393E+02 -0.14868204748E+03  0.19807942995E+03  0.12508810111E+03 0.  0.
          5    1    3    3  502    0 -0.65298540305E+02  0.43009819500E+02 -0.11537751502E+03  0.13943883000E+03  0.41800000000E+01 0.  1.
         -5    1    3    3    0  502  0.47231189810E+02 -0.90150091071E+01 -0.33304532464E+02  0.58640599952E+02  0.41800000000E+01 0.  1.
        -11    1    1    2    0    0  0.29866778980E+02 -0.73821901896E+00 -0.17406142013E+03  0.17660675931E+03  0.00000000000E+00 0.  1.
         11    1    1    2    0    0 -0.11799428486E+02 -0.33256591374E+02 -0.17964155105E+02  0.39597200041E+02  0.00000000000E+00 0. -1.
</event>
<event>
 7    1  0.2693725E-009  0.6426266E+02  0.7561462E-02  0.1380767E+00
         -2   -1    0    0    0  501 -0.00000000000E+00  0.00000000000E+00  0.87376028798E+02  0.87376028798E+02  0.00000000000E+00 0.  1.
          2   -1    0    0  501    0  0.00000000000E+00 -0.00000000000E+00 -0.24328055195E+03  0.24328055195E+03  0.00000000000E+00 0. -1.
         25    2    1    2    0    0  0.98917746964E+01  0.44361376865E+02 -0.17980985655E+03  0.22371279116E+03  0.12510015768E+03 0.  0.
          5    1    3    3  502    0  0.30242744648E+02  0.11599887207E+02 -0.18195210607E+03  0.18486000727E+03  0.41800000000E+01 0. -1.
         -5    1    3    3    0  502 -0.20350969951E+02  0.32761489657E+02  0.21422495185E+01  0.38852783884E+02  0.41800000000E+01 0. -1.
        -11    1    1    2    0    0 -0.22538095746E+02 -0.33642088848E+02  0.57005516890E+02  0.69924136447E+02  0.00000000000E+00 0.  1.
         11    1    1    2    0    0  0.12646321049E+02 -0.10719288017E+02 -0.33100183498E+02  0.37019653149E+02  0.00000000000E+00 0. -1.
</event>
<event>
 7    1  0.2693725E-009  0.1303899E+03  0.7561462E-02  0.1226878E+00
          1   -1    0    0  501    0  0.00000000000E+00  0.00000000000E+00  0.59424733473E+02  0.59424733473E+02  0.00000000000E+00 0. -1.
         -1   -1    0    0    0  501 -0.00000000000E+00 -0.00000000000E+00 -0.46081496750E+03  0.46081496750E+03  0.00000000000E+00 0.  1.
         25    2    1    2    0    0 -0.11190028513E+03 -0.53973797590E+02 -0.21313587531E+03  0.27660365212E+03  0.12509130419E+03 0.  0.
          5    1    3    3  502    0 -0.49600825943E+01 -0.16841641927E+02  0.13963731799E+02  0.22818885335E+02  0.41800000000E+01 0. -1.
         -5    1    3    3    0  502 -0.10694020254E+03 -0.37132155662E+02 -0.22709960711E+03  0.25378476679E+03  0.41800000000E+01 0. -1.
        -11    1    1    2    0    0  0.69717995292E+02  0.13540692012E+02 -0.16697418651E+03  0.18145062184E+03  0.00000000000E+00 0.  1.
         11    1    1    2    0    0  0.42182289842E+02  0.40433105577E+02 -0.21280172209E+02  0.62185427008E+02  0.00000000000E+00 0. -1.
</event>
<event>
 7    1  0.2693725E-009  0.1469455E+03  0.7561462E-02  0.1204277E+00
         -2   -1    0    0    0  501 -0.00000000000E+00  0.00000000000E+00  0.27343148354E+02  0.27343148354E+02  0.00000000000E+00 0.  1.
          2   -1    0    0  501    0  0.00000000000E+00 -0.00000000000E+00 -0.11191105815E+04  0.11191105815E+04  0.00000000000E+00 0. -1.
         25    2    1    2    0    0 -0.12864894604E+03  0.37571706345E+02 -0.47763429434E+03  0.51160935914E+03  0.12508969903E+03 0.  0.
          5    1    3    3  502    0 -0.36794505654E+02 -0.15673457472E+02 -0.31360820690E+03  0.31617569918E+03  0.41800000000E+01 0. -1.
         -5    1    3    3    0  502 -0.91854440383E+02  0.53245163817E+02 -0.16402608743E+03  0.19543365996E+03  0.41800000000E+01 0. -1.
        -11    1    1    2    0    0  0.82868330162E+02 -0.53861018871E+02 -0.51552618393E+03  0.52491467480E+03  0.00000000000E+00 0. -1.
         11    1    1    2    0    0  0.45780615875E+02  0.16289312526E+02 -0.98606954835E+02  0.10992969587E+03  0.00000000000E+00 0.  1.
</event>
<event>
 7    1  0.2693725E-009  0.1188695E+03  0.7561462E-02  0.1244974E+00
         -1   -1    0    0    0  501 -0.00000000000E+00  0.00000000000E+00  0.19545113841E+03  0.19545113841E+03  0.00000000000E+00 0.  1.
          1   -1    0    0  501    0  0.00000000000E+00 -0.00000000000E+00 -0.10950814598E+03  0.10950814598E+03  0.00000000000E+00 0. -1.
         25    2    1    2    0    0  0.77308273507E+01 -0.84979698724E+02  0.92639123231E+02  0.17750874336E+03  0.12508409943E+03 0.  0.
          5    1    3    3  502    0 -0.52406501279E+02 -0.72876978432E+02  0.52314378805E+02  0.10397962296E+03  0.41800000000E+01 0. -1.
         -5    1    3    3    0  502  0.60137328630E+02 -0.12102720292E+02  0.40324744426E+02  0.73529120396E+02  0.41800000000E+01 0. -1.
        -11    1    1    2    0    0 -0.57481746250E+01  0.11222007139E+02 -0.43290945177E+02  0.45089698270E+02  0.00000000000E+00 0. -1.
         11    1    1    2    0    0 -0.19826527257E+01  0.73757691585E+02  0.36594814376E+02  0.82360842753E+02  0.00000000000E+00 0.  1.
</event>
<event>
 7    1  0.2693725E-009  0.1104462E+03  0.7561462E-02  0.1259746E+00
         -2   -1    0    0    0  501 -0.00000000000E+00  0.00000000000E+00  0.36411957399E+02  0.36411957399E+02  0.00000000000E+00 0.  1.
          2   -1    0    0  501    0  0.00000000000E+00 -0.00000000000E+00 -0.42931186268E+03  0.42931186268E+03  0.00000000000E+00 0. -1.
         25    2    1    2    0    0 -0.21511070669E+02 -0.36095288069E+02 -0.31745957559E+03  0.34379412942E+03  0.12509286672E+03 0.  0.
          5    1    3    3  502    0  0.50145729044E+02 -0.45596755496E+01 -0.90144412347E+02  0.10333862908E+03  0.41800000000E+01 0.  1.
         -5    1    3    3    0  502 -0.71656799713E+02 -0.31535612519E+02 -0.22731516325E+03  0.24045550034E+03  0.41800000000E+01 0.  1.
        -11    1    1    2    0    0 -0.26527770939E+02 -0.69934120958E+01 -0.79733101933E+01  0.28569286290E+02  0.00000000000E+00 0.  1.
         11    1    1    2    0    0  0.48038841608E+02  0.43088700165E+02 -0.67467019500E+02  0.93360404375E+02  0.00000000000E+00 0. -1.
</event>
<event>
 7    1  0.2693725E-009  0.1111295E+03  0.7561462E-02  0.1258492E+00
         -2   -1    0    0    0  501 -0.00000000000E+00  0.00000000000E+00  0.71507683962E+03  0.71507683962E+03  0.00000000000E+00 0.  1.
          2   -1    0    0  501    0  0.00000000000E+00 -0.00000000000E+00 -0.29059799411E+02  0.29059799411E+02  0.00000000000E+00 0. -1.
         25    2    1    2    0    0  0.55729905606E+02  0.75590978598E+02  0.31901685024E+03  0.35530335709E+03  0.12509558906E+03 0.  0.
          5    1    3    3  502    0  0.94372100532E+01  0.73978286546E+02  0.29224456180E+03  0.30163919526E+03  0.41800000000E+01 0.  1.
         -5    1    3    3    0  502  0.46292695553E+02  0.16126920526E+01  0.26772288432E+02  0.53664161831E+02  0.41800000000E+01 0.  1.
        -11    1    1    2    0    0 -0.24070963710E+02 -0.62173213675E+02  0.33595655222E+03  0.34250799228E+03  0.00000000000E+00 0.  1.
         11    1    1    2    0    0 -0.31658941896E+02 -0.13417764924E+02  0.31043637755E+02  0.46325289665E+02  0.00000000000E+00 0. -1.
</event>
<event>
 7    1  0.2693725E-009  0.1030914E+03  0.7561462E-02  0.1273926E+00
          1   -1    0    0  501    0  0.00000000000E+00  0.00000000000E+00  0.71415635195E+03  0.71415635195E+03  0.00000000000E+00 0. -1.
         -1   -1    0    0    0  501 -0.00000000000E+00 -0.00000000000E+00 -0.17926431489E+02  0.17926431489E+02  0.00000000000E+00 0.  1.
         25    2    1    2    0    0  0.25770793718E+02  0.21029775000E+02  0.40421051371E+03  0.42443370297E+03  0.12510572959E+03 0.  0.
          5    1    3    3  502    0  0.53727363435E+02 -0.22791545928E+02  0.32058863524E+03  0.32588438072E+03  0.41800000000E+01 0. -1.
         -5    1    3    3    0  502 -0.27956569717E+02  0.43821320928E+02  0.83621878464E+02  0.98549322250E+02  0.41800000000E+01 0. -1.
        -11    1    1    2    0    0  0.15146327057E+02  0.27896733327E+02  0.74735023827E+02  0.81197061154E+02  0.00000000000E+00 0.  1.
         11    1    1    2    0    0 -0.40917120775E+02 -0.48926508327E+02  0.21728438293E+03  0.22645201932E+03  0.00000000000E+00 0. -1.
</event>
<event>
 7    1  0.2693725E-009  0.1664708E+03  0.7561462E-02  0.1181579E+00
         -2   -1    0    0    0  501 -0.00000000000E+00  0.00000000000E+00  0.74901351050E+02  0.74901351050E+02  0.00000000000E+00 0. -1.
          2   -1    0    0  501    0  0.00000000000E+00 -0.00000000000E+00 -0.44034826560E+03  0.44034826560E+03  0.00000000000E+00 0.  1.
         25    2    1    2    0    0  0.48312399265E+02 -0.11603490005E+03 -0.29183164211E+03  0.34148440555E+03  0.12509079082E+03 0.  0.
          5    1    3    3  502    0  0.79009733248E+02 -0.30314609231E+02 -0.11887196260E+03  0.14597783863E+03  0.41800000000E+01 0.  1.
         -5    1    3    3    0  502 -0.30697333983E+02 -0.85720290819E+02 -0.17295967951E+03  0.19550656692E+03  0.41800000000E+01 0.  1.
        -11    1    1    2    0    0 -0.45387472484E+02  0.46306871728E+01 -0.16298494658E+02  0.48446948823E+02  0.00000000000E+00 0. -1.
         11    1    1    2    0    0 -0.29249267814E+01  0.11140421288E+03 -0.57316777783E+02  0.12531826227E+03  0.00000000000E+00 0.  1.
</event>
<event>
 7    1  0.2693725E-009  0.1903747E+03  0.7561462E-02  0.1158124E+00
          1   -1    0    0  501    0  0.00000000000E+00  0.00000000000E+00  0.24487067383E+03  0.24487067383E+03  0.00000000000E+00 0. -1.
         -1   -1    0    0    0  501 -0.00000000000E+00 -0.00000000000E+00 -0.16614534311E+03  0.16614534311E+03  0.00000000000E+00 0.  1.
         25    2    1    2    0    0  0.15741928778E+03 -0.35119022090E+02 -0.11482113333E+02  0.20444580197E+03  0.12510822970E+03 0.  0.
          5    1    3    3  502    0  0.14624611966E+03 -0.70715956145E+02  0.68964905215E+01  0.16264595891E+03  0.41800000000E+01 0.  1.
         -5    1    3    3    0  502  0.11173168122E+02  0.35596934055E+02 -0.18378603854E+02  0.41799843057E+02  0.41800000000E+01 0.  1.
        -11    1    1    2    0    0 -0.43213909814E+02  0.49375372109E+02  0.10204809345E+02  0.66404122658E+02  0.00000000000E+00 0. -1.
         11    1    1    2    0    0 -0.11420537797E+03 -0.14256350019E+02  0.80002634716E+02  0.14016609231E+03  0.00000000000E+00 0.  1.
</event>
<event>
 7    1  0.2693725E-009  0.1156146E+03  0.7561462E-02  0.1250512E+00
         -1   -1    0    0    0  501 -0.00000000000E+00  0.00000000000E+00  0.70990447203E+02  0.70990447203E+02  0.00000000000E+00 0.  1.
          1   -1    0    0  501    0  0.00000000000E+00 -0.00000000000E+00 -0.39029978847E+03  0.39029978847E+03  0.00000000000E+00 0. -1.
         25    2    1    2    0    0  0.76548173585E+02  0.52418755354E+02 -0.28768625334E+03  0.32713993621E+03  0.12509919548E+03 0.  0.
          5    1    3    3  502    0  0.52435869833E+02  0.51878243951E+01 -0.23840208299E+02  0.57985014434E+02  0.41800000000E+01 0.  1.
         -5    1    3    3    0  502  0.24112303752E+02  0.47230930959E+02 -0.26384604504E+03  0.26915492178E+03  0.41800000000E+01 0.  1.
        -11    1    1    2    0    0 -0.75414352292E+02 -0.72767472939E+02 -0.11360039212E+02  0.10541100578E+03  0.00000000000E+00 0.  1.
         11    1    1    2    0    0 -0.11338212931E+01  0.20348717585E+02 -0.20263048717E+02  0.28739293683E+02  0.00000000000E+00 0. -1.
</event>
<event>
 7    1  0.2693725E-009  0.1802648E+03  0.7561462E-02  0.1167547E+00
         -1   -1    0    0    0  501 -0.00000000000E+00  0.00000000000E+00  0.14305303781E+03  0.14305303781E+03  0.00000000000E+00 0.  1.
          1   -1    0    0  501    0  0.00000000000E+00 -0.00000000000E+00 -0.25613351255E+03  0.25613351255E+03  0.00000000000E+00 0. -1.
         25    2    1    2    0    0 -0.15495857691E+03 -0.12967812312E+02 -0.84212656355E+02  0.21661031730E+03  0.12509169978E+03 0.  0.
          5    1    3    3  502    0 -0.13557053278E+03 -0.59298133204E+02 -0.52495539645E+02  0.15706333768E+03  0.41800000000E+01 0. -1.
         -5    1    3    3    0  502 -0.19388044124E+02  0.46330320892E+02 -0.31717116710E+02  0.59546979615E+02  0.41800000000E+01 0. -1.
        -11    1    1    2    0    0  0.14775291829E+03  0.56062583584E+00 -0.50907333347E+02  0.15627794391E+03  0.00000000000E+00 0. -1.
         11    1    1    2    0    0  0.72056586150E+01  0.12407186476E+02  0.22039514965E+02  0.26298289150E+02  0.00000000000E+00 0.  1.
</event>
<event>
 7    1  0.2693725E-009  0.8623650E+02  0.7561462E-02  0.1312230E+00
          3   -1    0    0  501    0  0.00000000000E+00  0.00000000000E+00  0.93831169146E+02  0.93831169146E+02  0.00000000000E+00 0. -1.
         -3   -1    0    0    0  501 -0.00000000000E+00 -0.00000000000E+00 -0.14220061349E+03  0.14220061349E+03  0.00000000000E+00 0.  1.
         25    2    1    2    0    0  0.20623702454E+02  0.68539239199E+01 -0.64467046387E+02  0.14239192580E+03  0.12508855698E+03 0.  0.
          5    1    3    3  502    0 -0.35435354618E+02 -0.32963868504E+02 -0.54132791701E+02  0.72733159707E+02  0.41800000000E+01 0.  1.
         -5    1    3    3    0  502  0.56059057072E+02  0.39817792424E+02 -0.10334254686E+02  0.69658766090E+02  0.41800000000E+01 0.  1.
        -11    1    1    2    0    0 -0.33414147589E+00 -0.26655127645E+02  0.45539003889E+02  0.52767493360E+02  0.00000000000E+00 0. -1.
         11    1    1    2    0    0 -0.20289560978E+02  0.19801203725E+02 -0.29441401846E+02  0.40872363479E+02  0.00000000000E+00 0.  1.
</event>
<event>
 7    1  0.2693725E-009  0.1038652E+03  0.7561462E-02  0.1272372E+00
         -1   -1    0    0    0  501 -0.00000000000E+00  0.00000000000E+00  0.18074271118E+03  0.18074271118E+03  0.00000000000E+00 0.  1.
          1   -1    0    0  501    0  0.00000000000E+00 -0.00000000000E+00 -0.75119731704E+02  0.75119731704E+02  0.00000000000E+00 0. -1.
         25    2    1    2    0    0 -0.26979312132E+02 -0.11370751389E+02  0.67677691262E+02  0.14520033872E+03  0.12508273742E+03 0.  0.
          5    1    3    3  502    0  0.28036060146E+02  0.25008012558E+02 -0.13843737020E+02  0.40255966207E+02  0.41800000000E+01 0.  1.
         -5    1    3    3    0  502 -0.55015372278E+02 -0.36378763947E+02  0.81521428282E+02  0.10494437251E+03  0.41800000000E+01 0.  1.
        -11    1    1    2    0    0  0.74944628259E+01  0.55289454712E+02  0.22935480892E+02  0.60325177656E+02  0.00000000000E+00 0.  1.
         11    1    1    2    0    0  0.19484849306E+02 -0.43918703324E+02  0.15009807318E+02  0.50336926504E+02  0.00000000000E+00 0. -1.
</event>
<event>
 7    1  0.2693725E-009  0.9192597E+02  0.7561462E-02  0.1298254E+00
         -2   -1    0    0    0  501 -0.00000000000E+00  0.00000000000E+00  0.30772355259E+03  0.30772355259E+03  0.00000000000E+00 0.  1.
          2   -1    0    0  501    0  0.00000000000E+00 -0.00000000000E+00 -0.63969360948E+02  0.63969360948E+02  0.00000000000E+00 0. -1.
         25    2    1    2    0    0  0.18554821820E+02 -0.12334232594E+02  0.19246858648E+02  0.12850575774E+03  0.12508746339E+03 0.  0.
          5    1    3    3  502    0 -0.39822389691E+02 -0.55996387630E+01  0.48159342419E+02  0.62880627678E+02  0.41800000000E+01 0. -1.
         -5    1    3    3    0  502  0.58377211511E+02 -0.67345938309E+01 -0.28912483771E+02  0.65625130062E+02  0.41800000000E+01 0. -1.
        -11    1    1    2    0    0  0.28563096871E+02  0.22434168317E+02  0.15089757552E+03  0.15520702532E+03  0.00000000000E+00 0.  1.
         11    1    1    2    0    0 -0.47117918691E+02 -0.10099935723E+02  0.73609757469E+02  0.87980130473E+02  0.00000000000E+00 0. -1.
</event>
<event>
 7    1  0.3041227E-009  0.9730259E+02  0.7561462E-02  0.1286073E+00
          2   -1    0    0  501    0  0.00000000000E+00  0.00000000000E+00  0.47962991806E+03  0.47962991806E+03  0.00000000000E+00 0.  1.
         -2   -1    0    0    0  501 -0.00000000000E+00 -0.00000000000E+00 -0.31424436557E+02  0.31424436557E+02  0.00000000000E+00 0. -1.
         25    2    1    2    0    0  0.55753636094E+02 -0.30430045903E+01  0.27356376870E+03  0.30594585886E+03  0.12509198693E+03 0.  0.
          5    1    3    3  502    0 -0.40147361491E+02 -0.38380317592E+01  0.70314693976E+02  0.81167540997E+02  0.41800000000E+01 0. -1.
         -5    1    3    3    0  502  0.95900997585E+02  0.79502716887E+00  0.20324907472E+03  0.22477831786E+03  0.41800000000E+01 0. -1.
        -11    1    1    2    0    0 -0.46556538139E+02 -0.36339922156E+01  0.18434296157E+03  0.19016583453E+03  0.00000000000E+00 0.  1.
         11    1    1    2    0    0 -0.91970979544E+01  0.66769968059E+01 -0.97012487606E+01  0.14942661230E+02  0.00000000000E+00 0. -1.
</event>
<event>
 7    1  0.2693725E-009  0.1001495E+03  0.7561462E-02  0.1279982E+00
          2   -1    0    0  501    0  0.00000000000E+00  0.00000000000E+00  0.26156305204E+03  0.26156305204E+03  0.00000000000E+00 0. -1.
         -2   -1    0    0    0  501 -0.00000000000E+00 -0.00000000000E+00 -0.68082724634E+02  0.68082724634E+02  0.00000000000E+00 0.  1.
         25    2    1    2    0    0 -0.72715716841E+02 -0.83554643918E+01  0.13964726928E+03  0.20126004866E+03  0.12508740188E+03 0.  0.
          5    1    3    3  502    0  0.24218885201E+01 -0.27873935375E+02  0.11687455933E+03  0.12024956065E+03  0.41800000000E+01 0. -1.
         -5    1    3    3    0  502 -0.75137605362E+02  0.19518470983E+02  0.22772709942E+02  0.81010488007E+02  0.41800000000E+01 0. -1.
        -11    1    1    2    0    0  0.75222404100E+02  0.23583598532E+02  0.70784786680E+01  0.79149864552E+02  0.00000000000E+00 0.  1.
         11    1    1    2    0    0 -0.25066872588E+01 -0.15228134140E+02  0.46754579465E+02  0.49235863468E+02  0.00000000000E+00 0. -1.
</event>
<event>
 7    1  0.2693725E-009  0.1421907E+03  0.7561462E-02  0.1210411E+00
         -2   -1    0    0    0  501 -0.00000000000E+00  0.00000000000E+00  0.12068176492E+03  0.12068176492E+03  0.00000000000E+00 0. -1.
          2   -1    0    0  501    0  0.00000000000E+00 -0.00000000000E+00 -0.24920521634E+03  0.24920521634E+03  0.00000000000E+00 0.  1.
         25    2    1    2    0    0  0.11188812239E+03  0.52177424274E+02 -0.12341681471E+03  0.21476739706E+03  0.12510751037E+03 0.  0.
          5    1    3    3  502    0 -0.55250843281E+01  0.15497067061E+02  0.19700217985E+02  0.26004934781E+02  0.41800000000E+01 0. -1.
         -5    1    3    3    0  502  0.11741320672E+03  0.36680357213E+02 -0.14311703270E+03  0.18876246228E+03  0.41800000000E+01 0. -1.
        -11    1    1    2    0    0 -0.40732409397E+02 -0.60235887407E+02  0.25755583192E+02  0.77141696719E+02  0.00000000000E+00 0.  1.
         11    1    1    2    0    0 -0.71155712991E+02  0.80584631332E+01 -0.30862219900E+02  0.77977887484E+02  0.00000000000E+00 0. -1.
</event>
<event>
 7    1  0.2693725E-009  0.1572847E+03  0.7561462E-02  0.1191797E+00
          2   -1    0    0  501    0  0.00000000000E+00  0.00000000000E+00  0.33512555901E+03  0.33512555901E+03  0.00000000000E+00 0. -1.
         -2   -1    0    0    0  501 -0.00000000000E+00 -0.00000000000E+00 -0.83153087999E+02  0.83153087999E+02  0.00000000000E+00 0.  1.
         25    2    1    2    0    0 -0.10305751094E+03 -0.69515237376E+02  0.10185529459E+03  0.20365298304E+03  0.12508724026E+03 0.  0.
          5    1    3    3  502    0  0.23898794504E+02  0.81282066794E+00 -0.31339502008E+01  0.24476664398E+02  0.41800000000E+01 0. -1.
         -5    1    3    3    0  502 -0.12695630544E+03 -0.70328058044E+02  0.10498924480E+03  0.17917631864E+03  0.41800000000E+01 0. -1.
        -11    1    1    2    0    0  0.86031397560E+02  0.14164595396E+02  0.54446203751E+02  0.10279312347E+03  0.00000000000E+00 0. -1.
         11    1    1    2    0    0  0.17026113376E+02  0.55350641980E+02  0.95670972661E+02  0.11183254050E+03  0.00000000000E+00 0.  1.
</event>
<event>
 7    1  0.2693725E-009  0.1733630E+03  0.7561462E-02  0.1174385E+00
         -1   -1    0    0    0  501 -0.00000000000E+00  0.00000000000E+00  0.28696627531E+03  0.28696627531E+03  0.00000000000E+00 0.  1.
          1   -1    0    0  501    0  0.00000000000E+00 -0.00000000000E+00 -0.11742328131E+03  0.11742328131E+03  0.00000000000E+00 0. -1.
         25    2    1    2    0    0 -0.12130869251E+03  0.85540501642E+02  0.81694200750E+02  0.21060397779E+03  0.12508843561E+03 0.  0.
          5    1    3    3  502    0 -0.94402190685E+01  0.71181125455E+02  0.11279405054E+01  0.71934796913E+02  0.41800000000E+01 0.  1.
         -5    1    3    3    0  502 -0.11186847345E+03  0.14359376187E+02  0.80566260245E+02  0.13866918088E+03  0.41800000000E+01 0.  1.
        -11    1    1    2    0    0  0.16831805955E+02 -0.48089063602E+02 -0.20002951207E+01  0.50988909680E+02  0.00000000000E+00 0. -1.
         11    1    1    2    0    0  0.10447688656E+03 -0.37451438040E+02  0.89849088371E+02  0.14279666914E+03  0.00000000000E+00 0.  1.
</event>
<event>
 7    1  0.2693725E-009  0.1219054E+03  0.7561462E-02  0.1239986E+00
          1   -1    0    0  501    0  0.00000000000E+00  0.00000000000E+00  0.82561987557E+03  0.82561987557E+03  0.00000000000E+00 0. -1.
         -1   -1    0    0    0  501 -0.00000000000E+00 -0.00000000000E+00 -0.22722833417E+02  0.22722833417E+02  0.00000000000E+00 0.  1.
         25    2    1    2    0    0 -0.14344822551E+00 -0.65992057647E+02  0.28700709653E+03  0.31996228979E+03  0.12509125140E+03 0.  0.
          5    1    3    3  502    0 -0.13181564534E+01  0.32659813664E+02  0.29715936493E+02  0.44372404112E+02  0.41800000000E+01 0.  1.
         -5    1    3    3    0  502  0.11747082279E+01 -0.98651871310E+02  0.25729116004E+03  0.27558988568E+03  0.41800000000E+01 0.  1.
        -11    1    1    2    0    0  0.41380422358E+02  0.99986712313E+01  0.14918449211E+03  0.15513969662E+03  0.00000000000E+00 0.  1.
         11    1    1    2    0    0 -0.41236974133E+02  0.55993386415E+02  0.36670545351E+03  0.37324072258E+03  0.00000000000E+00 0. -1.
</event>
<event>
 7    1  0.2693725E-009  0.1050211E+03  0.7561462E-02  0.1270078E+00
          2   -1    0    0  501    0  0.00000000000E+00  0.00000000000E+00  0.48439850567E+03  0.48439850567E+03  0.00000000000E+00 0. -1.
         -2   -1    0    0    0  501 -0.00000000000E+00 -0.00000000000E+00 -0.37330573005E+02  0.37330573005E+02  0.00000000000E+00 0.  1.
         25    2    1    2    0    0 -0.55442974721E+02 -0.47574412920E+02  0.18896887403E+03  0.23810595913E+03  0.12509182312E+03 0.  0.
          5    1    3    3  502    0  0.26791760642E+02 -0.10723452474E+02  0.12283932850E+03  0.12625277778E+03  0.41800000000E+01 0.  1.
         -5    1    3    3    0  502 -0.82234735363E+02 -0.36850960446E+02  0.66129545529E+02  0.11185318135E+03  0.41800000000E+01 0.  1.
        -11    1    1    2    0    0  0.53000351947E+02  0.58813107761E+02  0.26015917851E+03  0.27193899521E+03  0.00000000000E+00 0. -1.
         11    1    1    2    0    0  0.24426227733E+01 -0.11238694841E+02 -0.20601198696E+01  0.11684124341E+02  0.00000000000E+00 0.  1.
</event>
<event>
 7    1  0.2693725E-009  0.1052415E+03  0.7561462E-02  0.1269645E+00
          2   -1    0    0  501    0  0.00000000000E+00  0.00000000000E+00  0.27511829188E+03  0.27511829188E+03  0.00000000000E+00 0. -1.
         -2   -1    0    0    0  501 -0.00000000000E+00 -0.00000000000E+00 -0.55207197163E+02  0.55207197163E+02  0.00000000000E+00 0.  1.
         25    2    1    2    0    0 -0.47982982472E+02  0.35613217822E+02  0.11538834762E+03  0.18037664592E+03  0.12510234105E+03 0.  0.
          5    1    3    3  502    0 -0.48407394565E+02  0.80083515713E+02  0.83608677948E+02  0.12555687463E+03  0.41800000000E+01 0. -1.
         -5    1    3    3    0  502  0.42441209235E+00 -0.44470297891E+02  0.31779669677E+02  0.54819771296E+02  0.41800000000E+01 0. -1.
        -11    1    1    2    0    0  0.50105067434E+02 -0.16263178470E+02  0.11596487444E+03  0.12736899490E+03  0.00000000000E+00 0. -1.
         11    1    1    2    0    0 -0.21220849613E+01 -0.19350039353E+02 -0.11442127351E+02  0.22579848225E+02  0.00000000000E+00 0.  1.
</event>
<event>
 7    1  0.2693725E-009  0.1376270E+03  0.7561462E-02  0.1216558E+00
          4   -1    0    0  501    0  0.00000000000E+00  0.00000000000E+00  0.88936574759E+03  0.88936574759E+03  0.00000000000E+00 0. -1.
         -4   -1    0    0    0  501 -0.00000000000E+00 -0.00000000000E+00 -0.37399866970E+02  0.37399866970E+02  0.00000000000E+00 0.  1.
         25    2    1    2    0    0 -0.88436715630E+02  0.78583732792E+02  0.66493729593E+03  0.68686619138E+03  0.12508837521E+03 0.  0.
          5    1    3    3  502    0 -0.87462960668E+02  0.32035119552E+02  0.59798043903E+03  0.60520582964E+03  0.41800000000E+01 0.  1.
         -5    1    3    3    0  502 -0.97375496176E+00  0.46548613240E+02  0.66956856907E+02  0.81660361744E+02  0.41800000000E+01 0.  1.
        -11    1    1    2    0    0  0.30629651304E+02 -0.70542562320E+02  0.52106890045E+02  0.92895406925E+02  0.00000000000E+00 0.  1.
         11    1    1    2    0    0  0.57807064326E+02 -0.80411704721E+01  0.13492169464E+03  0.14700401625E+03  0.00000000000E+00 0. -1.
</event>
<event>
 7    1  0.2693725E-009  0.1255876E+03  0.7561462E-02  0.1234154E+00
         -2   -1    0    0    0  501 -0.00000000000E+00  0.00000000000E+00  0.50522551202E+02  0.50522551202E+02  0.00000000000E+00 0.  1.
          2   -1    0    0  501    0  0.00000000000E+00 -0.00000000000E+00 -0.52709146085E+03  0.52709146085E+03  0.00000000000E+00 0. -1.
         25    2    1    2    0    0  0.39890962045E+02 -0.97434274127E+02 -0.14714614812E+03  0.21996371078E+03  0.12508924224E+03 0.  0.
          5    1    3    3  502    0 -0.16688198554E+01 -0.44063033700E+02 -0.14558410376E+03  0.15217272938E+03  0.41800000000E+01 0.  1.
         -5    1    3    3    0  502  0.41559781901E+02 -0.53371240427E+02 -0.15620443615E+01  0.67790981399E+02  0.41800000000E+01 0.  1.
        -11    1    1    2    0    0 -0.65565819710E+02  0.91823279016E+02 -0.26037778992E+03  0.28377276960E+03  0.00000000000E+00 0.  1.
         11    1    1    2    0    0  0.25674857665E+02  0.56109951108E+01 -0.69044971605E+02  0.73877531673E+02  0.00000000000E+00 0. -1.
</event>
<event>
 7    1  0.2693725E-009  0.4781901E+02  0.7561462E-02  0.1457473E+00
          2   -1    0    0  501    0  0.00000000000E+00  0.00000000000E+00  0.93451616600E+03  0.93451616600E+03  0.00000000000E+00 0. -1.
         -2   -1    0    0    0  501 -0.00000000000E+00 -0.00000000000E+00 -0.15509390626E+02  0.15509390626E+02  0.00000000000E+00 0.  1.
         25    2    1    2    0    0 -0.21325833605E+02 -0.49882959833E+01  0.81845331699E+03  0.82824639329E+03  0.12508629673E+03 0.  0.
          5    1    3    3  502    0 -0.97830384322E+01  0.19335701250E+02  0.78405078160E+03  0.78436131834E+03  0.41800000000E+01 0.  1.
         -5    1    3    3    0  502 -0.11542795173E+02 -0.24323997233E+02  0.34402535387E+02  0.43885074944E+02  0.41800000000E+01 0.  1.
        -11    1    1    2    0    0 -0.37132974346E+01 -0.14262782454E+02 -0.16278472127E+01  0.14827859849E+02  0.00000000000E+00 0.  1.
         11    1    1    2    0    0  0.25039131040E+02  0.19251078437E+02  0.10218130559E+03  0.10695130348E+03  0.00000000000E+00 0. -1.
</event>
<event>
 7    1  0.2693725E-009  0.2371232E+03  0.7561462E-02  0.1121724E+00
         -2   -1    0    0    0  501 -0.00000000000E+00  0.00000000000E+00  0.71189126997E+02  0.71189126997E+02  0.00000000000E+00 0. -1.
          2   -1    0    0  501    0  0.00000000000E+00 -0.00000000000E+00 -0.10014214088E+04  0.10014214088E+04  0.00000000000E+00 0.  1.
         25    2    1    2    0    0  0.16902571363E+03  0.12947277979E+03 -0.71179050684E+03  0.75340878968E+03  0.12508471595E+03 0.  0.
          5    1    3    3  502    0  0.16531108681E+03  0.64967664916E+02 -0.45182556564E+03  0.48550218030E+03  0.41800000000E+01 0. -1.
         -5    1    3    3    0  502  0.37146268148E+01  0.64505114874E+02 -0.25996494119E+03  0.26790660938E+03  0.41800000000E+01 0. -1.
        -11    1    1    2    0    0 -0.43727601401E+01 -0.47863957867E+02 -0.34275653792E+02  0.59033041060E+02  0.00000000000E+00 0.  1.
         11    1    1    2    0    0 -0.16465295349E+03 -0.81608821922E+02 -0.18416612119E+03  0.26016870508E+03  0.00000000000E+00 0. -1.
</event>
<event>
 7    1  0.2693725E-009  0.1002292E+03  0.7561462E-02  0.1279815E+00
          1   -1    0    0  501    0  0.00000000000E+00  0.00000000000E+00  0.47179661699E+02  0.47179661699E+02  0.00000000000E+00 0. -1.
         -1   -1    0    0    0  501 -0.00000000000E+00 -0.00000000000E+00 -0.35473704942E+03  0.35473704942E+03  0.00000000000E+00 0.  1.
         25    2    1    2    0    0  0.23396729388E+02  0.34380471757E+02 -0.25931676005E+03  0.29089925025E+03  0.12509103873E+03 0.  0.
          5    1    3    3  502    0  0.48263891229E+02  0.65923010147E+02 -0.21923598754E+03  0.23400242968E+03  0.41800000000E+01 0.  1.
         -5    1    3    3    0  502 -0.24867161841E+02 -0.31542538390E+02 -0.40080772508E+02  0.56896820570E+02  0.41800000000E+01 0.  1.
        -11    1    1    2    0    0  0.98140364407E+01  0.15497373516E+02 -0.47685501986E+02  0.51091985642E+02  0.00000000000E+00 0.  1.
         11    1    1    2    0    0 -0.33210765828E+02 -0.49877845273E+02 -0.55512567949E+00  0.59925475221E+02  0.00000000000E+00 0. -1.
</event>
<event>
 7    1  0.2693725E-009  0.6850386E+02  0.7561462E-02  0.1365256E+00
         -1   -1    0    0    0  501 -0.00000000000E+00  0.00000000000E+00  0.58019574762E+03  0.58019574762E+03  0.00000000000E+00 0.  1.
          1   -1    0    0  501    0  0.00000000000E+00 -0.00000000000E+00 -0.23667612788E+02  0.23667612788E+02  0.00000000000E+00 0. -1.
         25    2    1    2    0    0 -0.26109894272E+02 -0.77211665119E+01  0.39740611345E+03  0.41751708329E+03  0.12509017885E+03 0.  0.
          5    1    3    3  502    0 -0.26332966787E+02  0.25487781706E+02  0.37595808405E+03  0.37776316061E+03  0.41800000000E+01 0.  1.
         -5    1    3    3    0  502  0.22307251521E+00 -0.33208948218E+02  0.21448029398E+02  0.39753922676E+02  0.41800000000E+01 0.  1.
        -11    1    1    2    0    0 -0.17161472733E+02  0.14973894430E+02  0.13372542205E+03  0.13565110455E+03  0.00000000000E+00 0.  1.
         11    1    1    2    0    0  0.43271367004E+02 -0.72527279184E+01  0.25396599333E+02  0.50695172575E+02  0.00000000000E+00 0. -1.
</event>
<event>
 7    1  0.2693725E-009  0.1261403E+03  0.7561462E-02  0.1233298E+00
          3   -1    0    0  501    0  0.00000000000E+00  0.00000000000E+00  0.24688708954E+03  0.24688708954E+03  0.00000000000E+00 0. -1.
         -3   -1    0    0    0  501 -0.00000000000E+00 -0.00000000000E+00 -0.73387752456E+02  0.73387752456E+02  0.00000000000E+00 0.  1.
         25    2    1    2    0    0 -0.43215284247E+02  0.65973748901E+02  0.89899818823E+02  0.17305514276E+03  0.12508400648E+03 0.  0.
          5    1    3    3  502    0  0.30892214107E+02 -0.57337774948E+01 -0.58984814964E+01  0.32240806143E+02  0.41800000000E+01 0.  1.
         -5    1    3    3    0  502 -0.74107498354E+02  0.71707526396E+02  0.95798300319E+02  0.14081433662E+03  0.41800000000E+01 0.  1.
        -11    1    1    2    0    0  0.61273717975E+02 -0.14692629139E+02  0.26439598703E+02  0.68332966019E+02  0.00000000000E+00 0. -1.
         11    1    1    2    0    0 -0.18058433728E+02 -0.51281119763E+02  0.57159919554E+02  0.78886733208E+02  0.00000000000E+00 0.  1.
</event>
<event>
 7    1  0.2693725E-009  0.1710778E+03  0.7561462E-02  0.1176729E+00
          1   -1    0    0  501    0  0.00000000000E+00  0.00000000000E+00  0.26353084786E+02  0.26353084786E+02  0.00000000000E+00 0. -1.
         -1   -1    0    0    0  501 -0.00000000000E+00 -0.00000000000E+00 -0.12931790602E+04  0.12931790602E+04  0.00000000000E+00 0.  1.
         25    2    1    2    0    0  0.77084805572E+02 -0.11561105195E+03 -0.44008764675E+03  0.47815957688E+03  0.12510580146E+03 0.  0.
          5    1    3    3  502    0 -0.92960657194E+01 -0.96899049881E+02 -0.20515324470E+03  0.22711488044E+03  0.41800000000E+01 0.  1.
         -5    1    3    3    0  502  0.86380871291E+02 -0.18712002073E+02 -0.23493440204E+03  0.25104469644E+03  0.41800000000E+01 0.  1.
        -11    1    1    2    0    0 -0.81196394010E+02  0.61212152086E+02 -0.53552103245E+03  0.54508949555E+03  0.00000000000E+00 0.  1.
         11    1    1    2    0    0  0.41115884379E+01  0.54398899869E+02 -0.29121729622E+03  0.29628307256E+03  0.00000000000E+00 0. -1.
</event>
<event>
 7    1  0.2693725E-009  0.1126138E+03  0.7561462E-02  0.1255805E+00
         -2   -1    0    0    0  501 -0.00000000000E+00  0.00000000000E+00  0.16118062740E+02  0.16118062740E+02  0.00000000000E+00 0.  1.
          2   -1    0    0  501    0  0.00000000000E+00 -0.00000000000E+00 -0.28730671484E+04  0.28730671484E+04  0.00000000000E+00 0. -1.
         25    2    1    2    0    0  0.91467720712E+01  0.58074822678E+02 -0.26728389217E+04  0.26764108047E+04  0.12510214191E+03 0.  0.
          5    1    3    3  502    0  0.66152389530E+02  0.34710355636E+02 -0.16668649672E+04  0.16685434482E+04  0.41800000000E+01 0.  1.
         -5    1    3    3    0  502 -0.57005617459E+02  0.23364467043E+02 -0.10059739545E+04  0.10078673565E+04  0.41800000000E+01 0.  1.
        -11    1    1    2    0    0  0.34508365522E+00 -0.71891552086E+02 -0.18223934484E+03  0.19590735859E+03  0.00000000000E+00 0. -1.
         11    1    1    2    0    0 -0.94918557264E+01  0.13816729408E+02 -0.18708190948E+01  0.16867047778E+02  0.00000000000E+00 0.  1.
</event>
<event>
 7    1  0.2693725E-009  0.3357460E+03  0.7561462E-02  0.1068622E+00
         -2   -1    0    0    0  501 -0.00000000000E+00  0.00000000000E+00  0.15900126443E+03  0.15900126443E+03  0.00000000000E+00 0.  1.
          2   -1    0    0  501    0  0.00000000000E+00 -0.00000000000E+00 -0.82655096074E+03  0.82655096074E+03  0.00000000000E+00 0. -1.
         25    2    1    2    0    0  0.32391614593E+03 -0.37779999846E+01 -0.48733148929E+03  0.59839063178E+03  0.12507367777E+03 0.  0.
          5    1    3    3  502    0 -0.21302913253E+01  0.33622777437E+01 -0.62671665689E+02  0.62936898025E+02  0.41800000000E+01 0.  1.
         -5    1    3    3    0  502  0.32604643725E+03 -0.71402777282E+01 -0.42465982360E+03  0.53545373375E+03  0.41800000000E+01 0.  1.
        -11    1    1    2    0    0 -0.79783970007E+02  0.45576373527E+02 -0.72613116758E+02  0.11711256303E+03  0.00000000000E+00 0. -1.
         11    1    1    2    0    0 -0.24413217592E+03 -0.41798373543E+02 -0.10760509026E+03  0.27004903036E+03  0.00000000000E+00 0.  1.
</event>
<event>
 7    1  0.2693725E-009  0.1046581E+03  0.7561462E-02  0.1270795E+00
          2   -1    0    0  501    0  0.00000000000E+00  0.00000000000E+00  0.39074349147E+03  0.39074349147E+03  0.00000000000E+00 0.  1.
         -2   -1    0    0    0  501 -0.00000000000E+00 -0.00000000000E+00 -0.69691001354E+02  0.69691001354E+02  0.00000000000E+00 0. -1.
         25    2    1    2    0    0 -0.75606492910E+02  0.68508507062E+01  0.34411934710E+02  0.15031097040E+03  0.12508369457E+03 0.  0.
          5    1    3    3  502    0 -0.82572575469E+02  0.12987410008E+02  0.72597417141E+02  0.11079151779E+03  0.41800000000E+01 0. -1.
         -5    1    3    3    0  502  0.69660825588E+01 -0.61365593019E+01 -0.38185482431E+02  0.39519452613E+02  0.41800000000E+01 0. -1.
        -11    1    1    2    0    0  0.57546719863E+02  0.36729168674E+02  0.20200260851E+03  0.21322689943E+03  0.00000000000E+00 0. -1.
         11    1    1    2    0    0  0.18059773047E+02 -0.43580019380E+02  0.84637946901E+02  0.96896622992E+02  0.00000000000E+00 0.  1.
</event>
<event>
 7    1  0.2693725E-009  0.1351446E+03  0.7561462E-02  0.1220016E+00
         -3   -1    0    0    0  501 -0.00000000000E+00  0.00000000000E+00  0.40887504167E+03  0.40887504167E+03  0.00000000000E+00 0.  1.
          3   -1    0    0  501    0  0.00000000000E+00 -0.00000000000E+00 -0.65338018712E+02  0.65338018712E+02  0.00000000000E+00 0. -1.
         25    2    1    2    0    0 -0.87226798242E+02 -0.78113202962E+02  0.22828165121E+03  0.28542801341E+03  0.12508577757E+03 0.  0.
          5    1    3    3  502    0 -0.71854281059E+02 -0.31641388292E+02  0.35109106960E+02  0.86106544182E+02  0.41800000000E+01 0. -1.
         -5    1    3    3    0  502 -0.15372517184E+02 -0.46471814670E+02  0.19317254425E+03  0.19932146922E+03  0.41800000000E+01 0. -1.
        -11    1    1    2    0    0  0.38921815466E+02 -0.11629211671E+02  0.61105276742E+02  0.73375753004E+02  0.00000000000E+00 0.  1.
         11    1    1    2    0    0  0.48304982776E+02  0.89742414633E+02  0.54150095011E+02  0.11540929397E+03  0.00000000000E+00 0. -1.
</event>
<event>
 7    1  0.2693725E-009  0.2677925E+03  0.7561462E-02  0.1102550E+00
         -2   -1    0    0    0  501 -0.00000000000E+00  0.00000000000E+00  0.10122405030E+03  0.10122405030E+03  0.00000000000E+00 0.  1.
          2   -1    0    0  501    0  0.00000000000E+00 -0.00000000000E+00 -0.85343843971E+03  0.85343843971E+03  0.00000000000E+00 0. -1.
         25    2    1    2    0    0  0.25021359089E+03 -0.65765641121E+02 -0.24095600740E+03  0.37501911012E+03  0.12509026674E+03 0.  0.
          5    1    3    3  502    0  0.17621262874E+03 -0.67693664187E+02 -0.23381316555E+03  0.30053184770E+03  0.41800000000E+01 0.  1.
         -5    1    3    3    0  502  0.74000962153E+02  0.19280230659E+01 -0.71428418480E+01  0.74487262415E+02  0.41800000000E+01 0.  1.
        -11    1    1    2    0    0 -0.95428137220E+02 -0.17265509313E+02 -0.19901381552E+03  0.22138456575E+03  0.00000000000E+00 0.  1.
         11    1    1    2    0    0 -0.15478545367E+03  0.83031150434E+02 -0.31224456648E+03  0.35825881414E+03  0.00000000000E+00 0. -1.
</event>
<event>
 7    1  0.2693725E-009  0.2097133E+03  0.7561462E-02  0.1141793E+00
         -2   -1    0    0    0  501 -0.00000000000E+00  0.00000000000E+00  0.34168861553E+03  0.34168861553E+03  0.00000000000E+00 0.  1.
          2   -1    0    0  501    0  0.00000000000E+00 -0.00000000000E+00 -0.18957920522E+03  0.18957920522E+03  0.00000000000E+00 0. -1.
         25    2    1    2    0    0  0.60102242497E+02 -0.19015384862E+03 -0.40201545837E+02  0.23881666517E+03  0.12508584883E+03 0.  0.
          5    1    3    3  502    0  0.67443018756E+02 -0.16342895872E+03 -0.76728580208E+02  0.19277534269E+03  0.41800000000E+01 0. -1.
         -5    1    3    3    0  502 -0.73407762588E+01 -0.26724889901E+02  0.36527034371E+02  0.46041322486E+02  0.41800000000E+01 0. -1.
        -11    1    1    2    0    0 -0.79608364178E+02  0.14636440069E+03  0.17461626007E+03  0.24135216535E+03  0.00000000000E+00 0.  1.
         11    1    1    2    0    0  0.19506121681E+02  0.43789447929E+02  0.17694696079E+02  0.51098990227E+02  0.00000000000E+00 0. -1.
</event>
<event>
 7    1  0.2693725E-009  0.8446137E+02  0.7561462E-02  0.1316847E+00
         -2   -1    0    0    0  501 -0.00000000000E+00  0.00000000000E+00  0.31022905075E+02  0.31022905075E+02  0.00000000000E+00 0.  1.
          2   -1    0    0  501    0  0.00000000000E+00 -0.00000000000E+00 -0.38296970263E+03  0.38296970263E+03  0.00000000000E+00 0. -1.
         25    2    1    2    0    0 -0.16243200813E+00  0.42279458287E+01 -0.21074922586E+03  0.24511308710E+03  0.12508911766E+03 0.  0.
          5    1    3    3  502    0  0.29490535069E+02 -0.47012616574E+02 -0.15085738986E+03  0.16079584028E+03  0.41800000000E+01 0.  1.
         -5    1    3    3    0  502 -0.29652967077E+02  0.51240562402E+02 -0.59891836003E+02  0.84317246822E+02  0.41800000000E+01 0.  1.
        -11    1    1    2    0    0  0.26415227319E+02  0.32699363463E+01 -0.16301990885E+01  0.26666725842E+02  0.00000000000E+00 0.  1.
         11    1    1    2    0    0 -0.26252795311E+02 -0.74978821750E+01 -0.13956737260E+03  0.14221279476E+03  0.00000000000E+00 0. -1.
</event>
<event>
 7    1  0.2693725E-009  0.1727623E+03  0.7561462E-02  0.1174997E+00
         -1   -1    0    0    0  501 -0.00000000000E+00  0.00000000000E+00  0.72441199107E+03  0.72441199107E+03  0.00000000000E+00 0.  1.
          1   -1    0    0  501    0  0.00000000000E+00 -0.00000000000E+00 -0.48714097120E+02  0.48714097120E+02  0.00000000000E+00 0. -1.
         25    2    1    2    0    0  0.14979035719E+03  0.21229163502E+02  0.40141224984E+03  0.44684232047E+03  0.12509371106E+03 0.  0.
          5    1    3    3  502    0  0.16724845138E+03  0.30151418802E+02  0.31298898910E+03  0.35617514265E+03  0.41800000000E+01 0.  1.
         -5    1    3    3    0  502 -0.17458094196E+02 -0.89222552992E+01  0.88423260738E+02  0.90667177811E+02  0.41800000000E+01 0.  1.
        -11    1    1    2    0    0 -0.97409777654E+02  0.36824855457E+01  0.23967434271E+03  0.25873928198E+03  0.00000000000E+00 0.  1.
         11    1    1    2    0    0 -0.52380579533E+02 -0.24911649048E+02  0.34611301394E+02  0.67544485746E+02  0.00000000000E+00 0. -1.
</event>
<event>
 7    1  0.2693725E-009  0.2757340E+03  0.7561462E-02  0.1098042E+00
          2   -1    0    0  501    0  0.00000000000E+00  0.00000000000E+00  0.18374677658E+03  0.18374677658E+03  0.00000000000E+00 0. -1.
         -2   -1    0    0    0  501 -0.00000000000E+00 -0.00000000000E+00 -0.43817834331E+03  0.43817834331E+03  0.00000000000E+00 0.  1.
         25    2    1    2    0    0 -0.23962243663E+03  0.11304144287E+03 -0.16798652228E+03  0.33773359781E+03  0.12508889431E+03 0.  0.
          5    1    3    3  502    0 -0.18557412304E+03  0.31309965050E+02 -0.75155366002E+02  0.20269156493E+03  0.41800000000E+01 0.  1.
         -5    1    3    3    0  502 -0.54048313587E+02  0.81731477825E+02 -0.92831156278E+02  0.13504203288E+03  0.41800000000E+01 0.  1.
        -11    1    1    2    0    0  0.52215929025E+02 -0.29415752731E+02 -0.44712910331E+02  0.74773217819E+02  0.00000000000E+00 0.  1.
         11    1    1    2    0    0  0.18740650760E+03 -0.83625690144E+02 -0.41732134121E+02  0.20941830427E+03  0.00000000000E+00 0. -1.
</event>
<event>
 7    1  0.2693725E-009  0.1347555E+03  0.7561462E-02  0.1220565E+00
          3   -1    0    0  501    0  0.00000000000E+00  0.00000000000E+00  0.14407395329E+03  0.14407395329E+03  0.00000000000E+00 0. -1.
         -3   -1    0    0    0  501 -0.00000000000E+00 -0.00000000000E+00 -0.19412206655E+03  0.19412206655E+03  0.00000000000E+00 0.  1.
         25    2    1    2    0    0  0.11540956850E+03  0.37776457399E+02 -0.63116568183E+02  0.18540936093E+03  0.12508597326E+03 0.  0.
          5    1    3    3  502    0  0.18112133018E+02  0.14272479961E+02  0.36986068312E+02  0.43785781892E+02  0.41800000000E+01 0.  1.
         -5    1    3    3    0  502  0.97297435486E+02  0.23503977438E+02 -0.10010263650E+03  0.14162357904E+03  0.41800000000E+01 0.  1.
        -11    1    1    2    0    0  0.66710365212E+01  0.12258271367E+02 -0.12100424808E+02  0.18471281106E+02  0.00000000000E+00 0.  1.
         11    1    1    2    0    0 -0.12208060502E+03 -0.50034728765E+02  0.25168879740E+02  0.13431537780E+03  0.00000000000E+00 0. -1.
</event>
<event>
 7    1  0.2693725E-009  0.4479265E+02  0.7561462E-02  0.1475640E+00
         -1   -1    0    0    0  501 -0.00000000000E+00  0.00000000000E+00  0.62132699888E+02  0.62132699888E+02  0.00000000000E+00 0.  1.
          1   -1    0    0  501    0  0.00000000000E+00 -0.00000000000E+00 -0.19431538809E+03  0.19431538809E+03  0.00000000000E+00 0. -1.
         25    2    1    2    0    0 -0.10946565337E+02  0.12393462823E+02 -0.73733259085E+02  0.14614076181E+03  0.12508838297E+03 0.  0.
          5    1    3    3  502    0 -0.14995181161E+02 -0.10930398747E+02  0.32263069400E+02  0.37452731835E+02  0.41800000000E+01 0. -1.
         -5    1    3    3    0  502  0.40486158242E+01  0.23323861570E+02 -0.10599632848E+03  0.10868802998E+03  0.41800000000E+01 0. -1.
        -11    1    1    2    0    0 -0.13439056952E+02  0.71973902696E+01  0.20407423432E+02  0.25472997656E+02  0.00000000000E+00 0.  1.
         11    1    1    2    0    0  0.24385622289E+02 -0.19590853093E+02 -0.78856852553E+02  0.84834328511E+02  0.00000000000E+00 0. -1.
</event>
<event>
 7    1  0.2693725E-009  0.8611235E+02  0.7561462E-02  0.1312549E+00
         -1   -1    0    0    0  501 -0.00000000000E+00  0.00000000000E+00  0.32593446760E+02  0.32593446760E+02  0.00000000000E+00 0.  1.
          1   -1    0    0  501    0  0.00000000000E+00 -0.00000000000E+00 -0.49459907606E+03  0.49459907606E+03  0.00000000000E+00 0. -1.
         25    2    1    2    0    0 -0.28213072259E+02 -0.44698357705E+02 -0.34923417872E+03  0.37470800973E+03  0.12509060855E+03 0.  0.
          5    1    3    3  502    0 -0.36288051177E+02 -0.15710749161E+02 -0.34089195890E+03  0.34320322018E+03  0.41800000000E+01 0. -1.
         -5    1    3    3    0  502  0.80749789171E+01 -0.28987608544E+02 -0.83422198177E+01  0.31504789558E+02  0.41800000000E+01 0. -1.
        -11    1    1    2    0    0  0.12793225412E+02  0.70701570342E+02 -0.86362687070E+02  0.11234274513E+03  0.00000000000E+00 0.  1.
         11    1    1    2    0    0  0.15419846848E+02 -0.26003212637E+02 -0.26408763508E+02  0.40141767951E+02  0.00000000000E+00 0. -1.
</event>
<event>
 7    1  0.2693725E-009  0.1073985E+03  0.7561462E-02  0.1265465E+00
         -2   -1    0    0    0  501 -0.00000000000E+00  0.00000000000E+00  0.18630094804E+02  0.18630094804E+02  0.00000000000E+00 0.  1.
          2   -1    0    0  501    0  0.00000000000E+00 -0.00000000000E+00 -0.10252727788E+04  0.10252727788E+04  0.00000000000E+00 0. -1.
         25    2    1    2    0    0 -0.37456059162E+02  0.60275974308E+02 -0.72331279330E+03  0.73747202697E+03  0.12508974440E+03 0.  0.
          5    1    3    3  502    0 -0.11365345342E+02 -0.39129513675E+02 -0.20605345806E+03  0.21008519675E+03  0.41800000000E+01 0.  1.
         -5    1    3    3    0  502 -0.26090713820E+02  0.99405487982E+02 -0.51725933524E+03  0.52738683022E+03  0.41800000000E+01 0.  1.
        -11    1    1    2    0    0  0.28930786366E+02 -0.47624658868E+02 -0.28561935516E+03  0.29100432054E+03  0.00000000000E+00 0. -1.
         11    1    1    2    0    0  0.85252727960E+01 -0.12651315440E+02  0.22894645020E+01  0.15426526061E+02  0.00000000000E+00 0.  1.
</event>
<event>
 7    1  0.2693725E-009  0.1387624E+03  0.7561462E-02  0.1215004E+00
         -2   -1    0    0    0  501 -0.00000000000E+00  0.00000000000E+00  0.10400823107E+03  0.10400823107E+03  0.00000000000E+00 0.  1.
          2   -1    0    0  501    0  0.00000000000E+00 -0.00000000000E+00 -0.19313381777E+03  0.19313381777E+03  0.00000000000E+00 0. -1.
         25    2    1    2    0    0  0.33787433957E+02  0.83015882702E+02 -0.67748829022E+02  0.16813522341E+03  0.12508525910E+03 0.  0.
          5    1    3    3  502    0 -0.35320329527E+02 -0.75909687356E+01 -0.32519676736E+02  0.48786783654E+02  0.41800000000E+01 0.  1.
         -5    1    3    3    0  502  0.69107763485E+02  0.90606851437E+02 -0.35229152285E+02  0.11934843976E+03  0.41800000000E+01 0.  1.
        -11    1    1    2    0    0 -0.28389915080E+02  0.12811832981E+02 -0.74113329938E+01  0.32016530095E+02  0.00000000000E+00 0. -1.
         11    1    1    2    0    0 -0.53975188770E+01 -0.95827715683E+02 -0.13965424681E+02  0.96990295337E+02  0.00000000000E+00 0.  1.
</event>
<event>
 7    1  0.2693725E-009  0.9010140E+02  0.7561462E-02  0.1302606E+00
         -1   -1    0    0    0  501 -0.00000000000E+00  0.00000000000E+00  0.11284626430E+03  0.11284626430E+03  0.00000000000E+00 0.  1.
          1   -1    0    0  501    0  0.00000000000E+00 -0.00000000000E+00 -0.10317039542E+03  0.10317039542E+03  0.00000000000E+00 0. -1.
         25    2    1    2    0    0 -0.74059178282E-01 -0.17885688217E+02  0.10879823127E+02  0.12682759452E+03  0.12508782855E+03 0.  0.
          5    1    3    3  502    0 -0.47360979805E+02 -0.18566938310E+02  0.45253625084E+02  0.68214049796E+02  0.41800000000E+01 0.  1.
         -5    1    3    3    0  502  0.47286920627E+02  0.68125009245E+00 -0.34373801956E+02  0.58613544723E+02  0.41800000000E+01 0.  1.
        -11    1    1    2    0    0  0.25205698703E+02 -0.22717967895E+02  0.17163290949E+02  0.38026462741E+02  0.00000000000E+00 0.  1.
         11    1    1    2    0    0 -0.25131639525E+02  0.40603656112E+02 -0.18367245197E+02  0.51162602465E+02  0.00000000000E+00 0. -1.
</event>
<event>
 7    1  0.2693725E-009  0.1073632E+03  0.7561462E-02  0.1265532E+00
         -2   -1    0    0    0  501 -0.00000000000E+00  0.00000000000E+00  0.33304994989E+02  0.33304994989E+02  0.00000000000E+00 0.  1.
          2   -1    0    0  501    0  0.00000000000E+00 -0.00000000000E+00 -0.42422868852E+03  0.42422868852E+03  0.00000000000E+00 0. -1.
         25    2    1    2    0    0  0.34306520688E+00  0.73699553097E+01 -0.13951271895E+03  0.18752670425E+03  0.12509209457E+03 0.  0.
          5    1    3    3  502    0  0.80041984545E+01  0.64666915561E+02 -0.90665091126E+02  0.11172962145E+03  0.41800000000E+01 0.  1.
         -5    1    3    3    0  502 -0.76611332477E+01 -0.57296960251E+02 -0.48847627820E+02  0.75797082795E+02  0.41800000000E+01 0.  1.
        -11    1    1    2    0    0  0.28702413817E+02  0.31717505330E+02 -0.68797567971E+02  0.81011937775E+02  0.00000000000E+00 0.  1.
         11    1    1    2    0    0 -0.29045479024E+02 -0.39087460640E+02 -0.18261340661E+03  0.18899504148E+03  0.00000000000E+00 0. -1.
</event>
<event>
 7    1  0.2693725E-009  0.1167808E+03  0.7561462E-02  0.1248504E+00
          1   -1    0    0  501    0  0.00000000000E+00  0.00000000000E+00  0.29929657088E+03  0.29929657088E+03  0.00000000000E+00 0. -1.
         -1   -1    0    0    0  501 -0.00000000000E+00 -0.00000000000E+00 -0.64904110372E+02  0.64904110372E+02  0.00000000000E+00 0.  1.
         25    2    1    2    0    0  0.34480026634E+02  0.48529628541E+02  0.21132022128E+03  0.25268009259E+03  0.12508795379E+03 0.  0.
          5    1    3    3  502    0  0.14232849942E+02  0.89965296515E+02  0.12497682155E+03  0.15470296351E+03  0.41800000000E+01 0. -1.
         -5    1    3    3    0  502  0.20247176692E+02 -0.41435667974E+02  0.86343399731E+02  0.97977129074E+02  0.41800000000E+01 0. -1.
        -11    1    1    2    0    0 -0.43747501240E+02 -0.64306962505E+02  0.39229514041E+02  0.87110183464E+02  0.00000000000E+00 0.  1.
         11    1    1    2    0    0  0.92674746054E+01  0.15777333964E+02 -0.16157274817E+02  0.24410405201E+02  0.00000000000E+00 0. -1.
</event>
<event>
 7    1  0.2693725E-009  0.1551817E+03  0.7561462E-02  0.1194246E+00
          2   -1    0    0  501    0  0.00000000000E+00  0.00000000000E+00  0.11683392488E+03  0.11683392488E+03  0.00000000000E+00 0. -1.
         -2   -1    0    0    0  501 -0.00000000000E+00 -0.00000000000E+00 -0.30602095297E+03  0.30602095297E+03  0.00000000000E+00 0.  1.
         25    2    1    2    0    0 -0.31570875957E+02 -0.15113502346E+03 -0.83891940162E+02  0.21569025257E+03  0.12508361965E+03 0.  0.
          5    1    3    3  502    0 -0.11191108224E+01 -0.24792632833E+02  0.32550346107E+02  0.41145163549E+02  0.41800000000E+01 0. -1.
         -5    1    3    3    0  502 -0.30451765135E+02 -0.12634239062E+03 -0.11644228627E+03  0.17454508902E+03  0.41800000000E+01 0. -1.
        -11    1    1    2    0    0  0.11608662093E+02  0.26309265352E+02  0.15198566039E+02  0.32525911034E+02  0.00000000000E+00 0. -1.
         11    1    1    2    0    0  0.19962213864E+02  0.12482575810E+03 -0.12049365397E+03  0.17463871425E+03  0.00000000000E+00 0.  1.
</event>
<event>
 7    1  0.2693725E-009  0.9653877E+02  0.7561462E-02  0.1287748E+00
          2   -1    0    0  501    0  0.00000000000E+00  0.00000000000E+00  0.10777808929E+03  0.10777808929E+03  0.00000000000E+00 0. -1.
         -2   -1    0    0    0  501 -0.00000000000E+00 -0.00000000000E+00 -0.15052556925E+03  0.15052556925E+03  0.00000000000E+00 0.  1.
         25    2    1    2    0    0  0.52256040726E+02  0.37279211802E+02 -0.18177064525E+01  0.14061208699E+03  0.12509205221E+03 0.  0.
          5    1    3    3  502    0  0.16776969830E+01  0.63360231450E+02  0.35175573229E+02  0.72609413636E+02  0.41800000000E+01 0. -1.
         -5    1    3    3    0  502  0.50578343743E+02 -0.26081019647E+02 -0.36993279681E+02  0.68002673353E+02  0.41800000000E+01 0. -1.
        -11    1    1    2    0    0 -0.54701294202E+02 -0.25295916994E+02  0.13620578307E+02  0.61787014472E+02  0.00000000000E+00 0. -1.
         11    1    1    2    0    0  0.24452534765E+01 -0.11983294809E+02 -0.54550351820E+02  0.55904557083E+02  0.00000000000E+00 0.  1.
</event>
<event>
 7    1  0.2693725E-009  0.1243318E+03  0.7561462E-02  0.1236117E+00
          2   -1    0    0  501    0  0.00000000000E+00  0.00000000000E+00  0.15825152332E+03  0.15825152332E+03  0.00000000000E+00 0. -1.
         -2   -1    0    0    0  501 -0.00000000000E+00 -0.00000000000E+00 -0.10458996138E+03  0.10458996138E+03  0.00000000000E+00 0.  1.
         25    2    1    2    0    0  0.29015455965E+02 -0.65157657776E+02  0.24171271772E+02  0.14600856194E+03  0.12508730044E+03 0.  0.
          5    1    3    3  502    0  0.61293257273E+02 -0.82480598401E+02  0.33157105631E+02  0.10805914378E+03  0.41800000000E+01 0.  1.
         -5    1    3    3    0  502 -0.32277801308E+02  0.17322940625E+02 -0.89858338586E+01  0.37949418169E+02  0.41800000000E+01 0.  1.
        -11    1    1    2    0    0 -0.21351725596E+02  0.85018536092E+02  0.10463273211E+02  0.88280959167E+02  0.00000000000E+00 0.  1.
         11    1    1    2    0    0 -0.76637303690E+01 -0.19860878315E+02  0.19027016956E+02  0.28551963590E+02  0.00000000000E+00 0. -1.
</event>
<event>
 7    1  0.2693725E-009  0.9098248E+02  0.7561462E-02  0.1300490E+00
         -2   -1    0    0    0  501 -0.00000000000E+00  0.00000000000E+00  0.21205885800E+02  0.21205885800E+02  0.00000000000E+00 0.  1.
          2   -1    0    0  501    0  0.00000000000E+00 -0.00000000000E+00 -0.83482842870E+03  0.83482842870E+03  0.00000000000E+00 0. -1.
         25    2    1    2    0    0  0.44714813636E+02  0.50191175030E+02 -0.56164935659E+03  0.57932528897E+03  0.12509685075E+03 0.  0.
          5    1    3    3  502    0  0.24450131449E+02  0.10813878678E+02 -0.51179930389E+03  0.51251414493E+03  0.41800000000E+01 0. -1.
         -5    1    3    3    0  502  0.20264682188E+02  0.39377296352E+02 -0.49850052705E+02  0.66811144032E+02  0.41800000000E+01 0. -1.
        -11    1    1    2    0    0 -0.78063245151E+01  0.25254235033E+02 -0.33670992457E+02  0.42807135183E+02  0.00000000000E+00 0.  1.
         11    1    1    2    0    0 -0.36908489121E+02 -0.75445410062E+02 -0.21830219385E+03  0.23390189035E+03  0.00000000000E+00 0. -1.
</event>
<event>
 7    1  0.2693725E-009  0.3102071E+03  0.7561462E-02  0.1080247E+00
          2   -1    0    0  501    0  0.00000000000E+00  0.00000000000E+00  0.29138602378E+03  0.29138602378E+03  0.00000000000E+00 0. -1.
         -2   -1    0    0    0  501 -0.00000000000E+00 -0.00000000000E+00 -0.35655712811E+03  0.35655712811E+03  0.00000000000E+00 0.  1.
         25    2    1    2    0    0 -0.17437952288E+03  0.23616962757E+03 -0.10898824724E+03  0.33720969976E+03  0.12509049761E+03 0.  0.
          5    1    3    3  502    0  0.87402640899E+01 -0.42632961402E+01 -0.19158540954E+02  0.21888124676E+02  0.41800000000E+01 0. -1.
         -5    1    3    3    0  502 -0.18311978697E+03  0.24043292371E+03 -0.89829706283E+02  0.31532157509E+03  0.41800000000E+01 0. -1.
        -11    1    1    2    0    0  0.93572426875E+02 -0.53399283601E+02  0.12558479413E+02  0.10846657534E+03  0.00000000000E+00 0.  1.
         11    1    1    2    0    0  0.80807096009E+02 -0.18277034397E+03  0.31258663495E+02  0.20226687678E+03  0.00000000000E+00 0. -1.
</event>
<event>
 7    1  0.2693725E-009  0.9201596E+02  0.7561462E-02  0.1298042E+00
         -1   -1    0    0    0  501 -0.00000000000E+00  0.00000000000E+00  0.24740189031E+02  0.24740189031E+02  0.00000000000E+00 0.  1.
          1   -1    0    0  501    0  0.00000000000E+00 -0.00000000000E+00 -0.71495261550E+03  0.71495261550E+03  0.00000000000E+00 0. -1.
         25    2    1    2    0    0 -0.14732622007E+02  0.71312855779E+02 -0.31167077893E+03  0.34364085506E+03  0.12509112388E+03 0.  0.
          5    1    3    3  502    0 -0.15551144878E+02  0.44449225386E+02 -0.21051272631E+02  0.51751330648E+02  0.41800000000E+01 0. -1.
         -5    1    3    3    0  502  0.81852287132E+00  0.26863630393E+02 -0.29061950630E+03  0.29188952441E+03  0.41800000000E+01 0. -1.
        -11    1    1    2    0    0  0.48677113090E+02 -0.35755363780E+02 -0.13959266468E+03  0.15209871601E+03  0.00000000000E+00 0.  1.
         11    1    1    2    0    0 -0.33944491083E+02 -0.35557491999E+02 -0.23894898285E+03  0.24395323347E+03  0.00000000000E+00 0. -1.
</event>
<event>
 7    1  0.2693725E-009  0.1645627E+03  0.7561462E-02  0.1183640E+00
         -1   -1    0    0    0  501 -0.00000000000E+00  0.00000000000E+00  0.51190928883E+03  0.51190928883E+03  0.00000000000E+00 0.  1.
          1   -1    0    0  501    0  0.00000000000E+00 -0.00000000000E+00 -0.70387479756E+02  0.70387479756E+02  0.00000000000E+00 0. -1.
         25    2    1    2    0    0  0.14439253726E+03  0.51179096230E+02  0.27599497274E+03  0.33954229079E+03  0.12508891855E+03 0.  0.
          5    1    3    3  502    0  0.11840958148E+03  0.49700974297E+02  0.10333965689E+03  0.16488654559E+03  0.41800000000E+01 0.  1.
         -5    1    3    3    0  502  0.25982955788E+02  0.14781219336E+01  0.17265531586E+03  0.17465574520E+03  0.41800000000E+01 0.  1.
        -11    1    1    2    0    0 -0.93625235897E+02 -0.73298446471E+02  0.13353287832E+03  0.17879982283E+03  0.00000000000E+00 0. -1.
         11    1    1    2    0    0 -0.50767301367E+02  0.22119350241E+02  0.31993958012E+02  0.63954654971E+02  0.00000000000E+00 0.  1.
</event>
<event>
 7    1  0.2693725E-009  0.1787767E+03  0.7561462E-02  0.1168992E+00
         -1   -1    0    0    0  501 -0.00000000000E+00  0.00000000000E+00  0.66008045477E+02  0.66008045477E+02  0.00000000000E+00 0.  1.
          1   -1    0    0  501    0  0.00000000000E+00 -0.00000000000E+00 -0.58193058171E+03  0.58193058171E+03  0.00000000000E+00 0. -1.
         25    2    1    2    0    0 -0.10163651634E+03  0.13235733798E+03 -0.27939916583E+03  0.34865341733E+03  0.12508743012E+03 0.  0.
          5    1    3    3  502    0 -0.11760133743E+03  0.12672103076E+03 -0.18733157496E+03  0.25494879012E+03  0.41800000000E+01 0. -1.
         -5    1    3    3    0  502  0.15964821097E+02  0.56363072154E+01 -0.92067590869E+02  0.93704627208E+02  0.41800000000E+01 0. -1.
        -11    1    1    2    0    0  0.60315007869E+02 -0.86518545843E+02 -0.84268664462E+02  0.13499839539E+03  0.00000000000E+00 0.  1.
         11    1    1    2    0    0  0.41321508469E+02 -0.45838792137E+02 -0.15225470594E+03  0.16428681447E+03  0.00000000000E+00 0. -1.
</event>
<event>
 7    1  0.2693725E-009  0.2826941E+03  0.7561462E-02  0.1094227E+00
         -2   -1    0    0    0  501 -0.00000000000E+00  0.00000000000E+00  0.81680155826E+02  0.81680155826E+02  0.00000000000E+00 0.  1.
          2   -1    0    0  501    0  0.00000000000E+00 -0.00000000000E+00 -0.17509944533E+04  0.17509944533E+04  0.00000000000E+00 0. -1.
         25    2    1    2    0    0  0.27338109433E+03 -0.14308503663E+02 -0.27150187096E+03  0.40534220164E+03  0.12508828276E+03 0.  0.
          5    1    3    3  502    0  0.12184297259E+03  0.13020000516E+02 -0.20211555089E+03  0.23639669773E+03  0.41800000000E+01 0.  1.
         -5    1    3    3    0  502  0.15153812174E+03 -0.27328504178E+02 -0.69386320064E+02  0.16894550391E+03  0.41800000000E+01 0.  1.
        -11    1    1    2    0    0 -0.24404191216E+03 -0.18482131632E+02 -0.11754336313E+04  0.12006424387E+04  0.00000000000E+00 0.  1.
         11    1    1    2    0    0 -0.29339182165E+02  0.32790635295E+02 -0.22237879519E+03  0.22668996874E+03  0.00000000000E+00 0. -1.
</event>
<event>
 7    1  0.2693725E-009  0.1130714E+03  0.7561462E-02  0.1254986E+00
          1   -1    0    0  501    0  0.00000000000E+00  0.00000000000E+00  0.71776275516E+03  0.71776275516E+03  0.00000000000E+00 0. -1.
         -1   -1    0    0    0  501 -0.00000000000E+00 -0.00000000000E+00 -0.20497151687E+02  0.20497151687E+02  0.00000000000E+00 0.  1.
         25    2    1    2    0    0  0.97645009847E+01 -0.35062382010E+02  0.51404938907E+03  0.53030051269E+03  0.12508854159E+03 0.  0.
          5    1    3    3  502    0 -0.16825089514E+02 -0.76654430702E+02  0.26669258647E+03  0.27803128144E+03  0.41800000000E+01 0. -1.
         -5    1    3    3    0  502  0.26589590499E+02  0.41592048692E+02  0.24735680261E+03  0.25226923125E+03  0.41800000000E+01 0. -1.
        -11    1    1    2    0    0 -0.25062353841E+02  0.62088111119E+02  0.13330937245E+03  0.14917923416E+03  0.00000000000E+00 0.  1.
         11    1    1    2    0    0  0.15297852857E+02 -0.27025729109E+02  0.49906841948E+02  0.58780159995E+02  0.00000000000E+00 0. -1.
</event>
<event>
 7    1  0.2693725E-009  0.1939307E+03  0.7561462E-02  0.1154963E+00
         -2   -1    0    0    0  501 -0.00000000000E+00  0.00000000000E+00  0.94136055434E+03  0.94136055434E+03  0.00000000000E+00 0.  1.
          2   -1    0    0  501    0  0.00000000000E+00 -0.00000000000E+00 -0.20513135707E+03  0.20513135707E+03  0.00000000000E+00 0. -1.
         25    2    1    2    0    0  0.16017240714E+03 -0.32312059197E+02 -0.14140988480E+03  0.24968489963E+03  0.12508606798E+03 0.  0.
          5    1    3    3  502    0  0.83730760224E+02 -0.79735918680E+02 -0.77473149678E+02  0.13924158235E+03  0.41800000000E+01 0.  1.
         -5    1    3    3    0  502  0.76441646917E+02  0.47423859483E+02 -0.63936735124E+02  0.11044331727E+03  0.41800000000E+01 0.  1.
        -11    1    1    2    0    0 -0.44138235757E+01  0.25841209448E+02  0.83767419327E+02  0.87773745989E+02  0.00000000000E+00 0.  1.
         11    1    1    2    0    0 -0.15575858357E+03  0.64708497490E+01  0.79387166274E+03  0.80903326579E+03  0.00000000000E+00 0. -1.
</event>
<event>
 7    1  0.2693725E-009  0.1181664E+03  0.7561462E-02  0.1246153E+00
          2   -1    0    0  501    0  0.00000000000E+00  0.00000000000E+00  0.16077626954E+03  0.16077626954E+03  0.00000000000E+00 0. -1.
         -2   -1    0    0    0  501 -0.00000000000E+00 -0.00000000000E+00 -0.97026929547E+02  0.97026929547E+02  0.00000000000E+00 0.  1.
         25    2    1    2    0    0 -0.36483854291E+02  0.46572454187E+02  0.41121926270E+02  0.14435510839E+03  0.12508924568E+03 0.  0.
          5    1    3    3  502    0  0.39969660617E+02  0.17545578615E+02 -0.13549346572E+02  0.45896386473E+02  0.41800000000E+01 0.  1.
         -5    1    3    3    0  502 -0.76453514908E+02  0.29026875571E+02  0.54671272842E+02  0.98458721916E+02  0.41800000000E+01 0.  1.
        -11    1    1    2    0    0  0.60488151510E+02 -0.58185768174E+02  0.22036209992E+02  0.86775541726E+02  0.00000000000E+00 0.  1.
         11    1    1    2    0    0 -0.24004297219E+02  0.11613313987E+02  0.59120373108E+00  0.26672548971E+02  0.00000000000E+00 0. -1.
</event>
<event>
 7    1  0.2693725E-009  0.1327998E+03  0.7561462E-02  0.1223360E+00
          1   -1    0    0  501    0  0.00000000000E+00  0.00000000000E+00  0.22367846778E+03  0.22367846778E+03  0.00000000000E+00 0. -1.
         -1   -1    0    0    0  501 -0.00000000000E+00 -0.00000000000E+00 -0.12596886070E+03  0.12596886070E+03  0.00000000000E+00 0.  1.
         25    2    1    2    0    0 -0.74393447073E+00  0.97676091590E+02  0.13347328568E+03  0.20737495517E+03  0.12509229286E+03 0.  0.
          5    1    3    3  502    0  0.47346583099E+02  0.99063523656E+02  0.10044460640E+03  0.14886864010E+03  0.41800000000E+01 0.  1.
         -5    1    3    3    0  502 -0.48090517570E+02 -0.13874320665E+01  0.33028679284E+02  0.58506315070E+02  0.41800000000E+01 0.  1.
        -11    1    1    2    0    0  0.22662280498E+02 -0.45232318090E+02 -0.61704045278E+02  0.79793049577E+02  0.00000000000E+00 0.  1.
         11    1    1    2    0    0 -0.21918346027E+02 -0.52443773500E+02  0.25940366671E+02  0.62479323736E+02  0.00000000000E+00 0. -1.
</event>
<event>
 7    1  0.2693725E-009  0.9177581E+02  0.7561462E-02  0.1298607E+00
          1   -1    0    0  501    0  0.00000000000E+00  0.00000000000E+00  0.38298200423E+02  0.38298200423E+02  0.00000000000E+00 0. -1.
         -1   -1    0    0    0  501 -0.00000000000E+00 -0.00000000000E+00 -0.56564985366E+03  0.56564985366E+03  0.00000000000E+00 0.  1.
         25    2    1    2    0    0 -0.23121730194E+02 -0.32771028585E+02 -0.47039361871E+03  0.48839170426E+03  0.12509094912E+03 0.  0.
          5    1    3    3  502    0 -0.49492990110E+02 -0.24726928097E+02 -0.82053357230E+02  0.99051516273E+02  0.41800000000E+01 0. -1.
         -5    1    3    3    0  502  0.26371259916E+02 -0.80441004880E+01 -0.38834026147E+03  0.38934018799E+03  0.41800000000E+01 0. -1.
        -11    1    1    2    0    0 -0.19768667394E+02  0.50148988121E+02 -0.35515033462E+02  0.64552605074E+02  0.00000000000E+00 0.  1.
         11    1    1    2    0    0  0.42890397588E+02 -0.17377959536E+02 -0.21443001066E+02  0.51003744741E+02  0.00000000000E+00 0. -1.
</event>
<event>
 7    1  0.2693725E-009  0.1267997E+03  0.7561462E-02  0.1232283E+00
         -2   -1    0    0    0  501 -0.00000000000E+00  0.00000000000E+00  0.13176443745E+02  0.13176443745E+02  0.00000000000E+00 0.  1.
          2   -1    0    0  501    0  0.00000000000E+00 -0.00000000000E+00 -0.17820873193E+04  0.17820873193E+04  0.00000000000E+00 0. -1.
         25    2    1    2    0    0  0.48077611681E+02  0.70180574579E+02 -0.13581334377E+04  0.13665324276E+04  0.12509065243E+03 0.  0.
          5    1    3    3  502    0  0.73057539751E+02  0.89405252113E+02 -0.11742546472E+04  0.11799246383E+04  0.41800000000E+01 0. -1.
         -5    1    3    3    0  502 -0.24979928071E+02 -0.19224677533E+02 -0.18387879043E+03  0.18660778923E+03  0.41800000000E+01 0. -1.
        -11    1    1    2    0    0 -0.14894849687E+02 -0.71523634221E+02 -0.36462618647E+03  0.37187328845E+03  0.00000000000E+00 0. -1.
         11    1    1    2    0    0 -0.33182761994E+02  0.13430596411E+01 -0.46151251383E+02  0.56858046985E+02  0.00000000000E+00 0.  1.
</event>
<event>
 7    1  0.2693725E-009  0.9837509E+02  0.7561462E-02  0.1283750E+00
          1   -1    0    0  501    0  0.00000000000E+00  0.00000000000E+00  0.94051781168E+02  0.94051781168E+02  0.00000000000E+00 0. -1.
         -1   -1    0    0    0  501 -0.00000000000E+00 -0.00000000000E+00 -0.16239369405E+03  0.16239369405E+03  0.00000000000E+00 0.  1.
         25    2    1    2    0    0 -0.38402869901E+02 -0.43162407052E+02 -0.26562211918E+02  0.14032250261E+03  0.12508828817E+03 0.  0.
          5    1    3    3  502    0 -0.74706144669E+02 -0.40889052210E+02  0.13186899597E+02  0.86280295334E+02  0.41800000000E+01 0.  1.
         -5    1    3    3    0  502  0.36303274768E+02 -0.22733548427E+01 -0.39749111514E+02  0.54042207276E+02  0.41800000000E+01 0.  1.
        -11    1    1    2    0    0  0.11546710595E+02  0.46403720425E+02 -0.64847465710E+02  0.80571866081E+02  0.00000000000E+00 0.  1.
         11    1    1    2    0    0  0.26856159306E+02 -0.32413133730E+01  0.23067764745E+02  0.35551106528E+02  0.00000000000E+00 0. -1.
</event>
<event>
 7    1  0.2867454E-009  0.1101997E+03  0.7561462E-02  0.1260201E+00
         -2   -1    0    0    0  501 -0.00000000000E+00  0.00000000000E+00  0.24952382556E+02  0.24952382556E+02  0.00000000000E+00 0.  1.
          2   -1    0    0  501    0  0.00000000000E+00 -0.00000000000E+00 -0.57436099657E+03  0.57436099657E+03  0.00000000000E+00 0. -1.
         25    2    1    2    0    0  0.31550879263E+02 -0.18430873468E+02 -0.39420957837E+03  0.41518701246E+03  0.12507561136E+03 0.  0.
          5    1    3    3  502    0 -0.46629411538E+02 -0.22025269766E+02 -0.14588369595E+03  0.15478675548E+03  0.41800000000E+01 0.  1.
         -5    1    3    3    0  502  0.78180290800E+02  0.35943962986E+01 -0.24832588242E+03  0.26040025697E+03  0.41800000000E+01 0.  1.
        -11    1    1    2    0    0 -0.36600427368E+02 -0.26427756148E+02 -0.39694197916E+02  0.60113616816E+02  0.00000000000E+00 0.  1.
         11    1    1    2    0    0  0.50495481054E+01  0.44858629616E+02 -0.11550483773E+03  0.12401274986E+03  0.00000000000E+00 0. -1.
</event>
<event>
 7    1  0.3446341E-009  0.9821338E+02  0.7561462E-02  0.1284098E+00
          2   -1    0    0  501    0  0.00000000000E+00  0.00000000000E+00  0.20903277716E+03  0.20903277716E+03  0.00000000000E+00 0. -1.
         -2   -1    0    0    0  501 -0.00000000000E+00 -0.00000000000E+00 -0.70322828735E+02  0.70322828735E+02  0.00000000000E+00 0.  1.
         25    2    1    2    0    0 -0.26260732777E+02  0.30594966482E+02  0.11948736369E+03  0.17762333797E+03  0.12508853684E+03 0.  0.
          5    1    3    3  502    0  0.32049340877E+02 -0.25868324243E+02  0.73190142102E+02  0.84086858371E+02  0.41800000000E+01 0.  1.
         -5    1    3    3    0  502 -0.58310073653E+02  0.56463290725E+02  0.46297221586E+02  0.93536479598E+02  0.41800000000E+01 0.  1.
        -11    1    1    2    0    0  0.21127297894E+01 -0.45386367630E+02  0.44628859232E+02  0.63687683818E+02  0.00000000000E+00 0. -1.
         11    1    1    2    0    0  0.24148002987E+02  0.14791401147E+02 -0.25406274495E+02  0.38044584107E+02  0.00000000000E+00 0.  1.
</event>
<event>
 7    1  0.2693725E-009  0.1094055E+03  0.7561462E-02  0.1261675E+00
         -2   -1    0    0    0  501 -0.00000000000E+00  0.00000000000E+00  0.13038611504E+02  0.13038611504E+02  0.00000000000E+00 0.  1.
          2   -1    0    0  501    0  0.00000000000E+00 -0.00000000000E+00 -0.12595947688E+04  0.12595947688E+04  0.00000000000E+00 0. -1.
         25    2    1    2    0    0  0.18903626119E+02  0.15022587892E+02 -0.95777289542E+03  0.96620870762E+03  0.12508925711E+03 0.  0.
          5    1    3    3  502    0  0.68186434504E+02 -0.57949326914E+00 -0.69620771305E+03  0.69955155477E+03  0.41800000000E+01 0. -1.
         -5    1    3    3    0  502 -0.49282808385E+02  0.15602081161E+02 -0.26156518237E+03  0.26665715285E+03  0.41800000000E+01 0. -1.
        -11    1    1    2    0    0 -0.26236351978E+02 -0.53433580526E+02 -0.21280231683E+03  0.22097130977E+03  0.00000000000E+00 0. -1.
         11    1    1    2    0    0  0.73327258590E+01  0.38410992634E+02 -0.75980945038E+02  0.85453362909E+02  0.00000000000E+00 0.  1.
</event>
<event>
 7    1  0.2693725E-009  0.1250392E+03  0.7561462E-02  0.1235008E+00
         -1   -1    0    0    0  501 -0.00000000000E+00  0.00000000000E+00  0.99782402123E+02  0.99782402123E+02  0.00000000000E+00 0.  1.
          1   -1    0    0  501    0  0.00000000000E+00 -0.00000000000E+00 -0.18307598452E+03  0.18307598452E+03  0.00000000000E+00 0. -1.
         25    2    1    2    0    0 -0.77197657488E+02  0.16023815182E+02 -0.65723188890E+02  0.16181695513E+03  0.12509575706E+03 0.  0.
          5    1    3    3  502    0 -0.35022118097E+02  0.62270362149E+02 -0.68447001584E+02  0.99028335258E+02  0.41800000000E+01 0. -1.
         -5    1    3    3    0  502 -0.42175539392E+02 -0.46246546967E+02  0.27238126935E+01  0.62788619868E+02  0.41800000000E+01 0. -1.
        -11    1    1    2    0    0  0.27336076345E+02  0.35021119582E+02 -0.21944323310E+02  0.49550915352E+02  0.00000000000E+00 0. -1.
         11    1    1    2    0    0  0.49861581144E+02 -0.51044934764E+02  0.43739298056E+01  0.71490516162E+02  0.00000000000E+00 0.  1.
</event>
<event>
 7    1  0.2693725E-009  0.2143380E+03  0.7561462E-02  0.1138176E+00
          2   -1    0    0  501    0  0.00000000000E+00  0.00000000000E+00  0.68254588029E+03  0.68254588029E+03  0.00000000000E+00 0. -1.
         -2   -1    0    0    0  501 -0.00000000000E+00 -0.00000000000E+00 -0.82847286735E+02  0.82847286735E+02  0.00000000000E+00 0.  1.
         25    2    1    2    0    0 -0.16556960178E+03  0.10489593641E+03  0.43739720319E+03  0.49535392537E+03  0.12507096992E+03 0.  0.
          5    1    3    3  502    0  0.30069182187E+01  0.29913492411E+02  0.13883215427E+02  0.33377756904E+02  0.41800000000E+01 0.  1.
         -5    1    3    3    0  502 -0.16857652000E+03  0.74982443995E+02  0.42351398776E+03  0.46197616847E+03  0.41800000000E+01 0.  1.
        -11    1    1    2    0    0  0.90546550755E+02 -0.75318980237E+01  0.50861172675E+02  0.10412620337E+03  0.00000000000E+00 0.  1.
         11    1    1    2    0    0  0.75023051023E+02 -0.97364038382E+02  0.11144021769E+03  0.16591303829E+03  0.00000000000E+00 0. -1.
</event>
<event>
 7    1  0.3142915E-009  0.1231577E+03  0.7561462E-02  0.1237977E+00
         -1   -1    0    0    0  501 -0.00000000000E+00  0.00000000000E+00  0.46407373595E+02  0.46407373595E+02  0.00000000000E+00 0.  1.
          1   -1    0    0  501    0  0.00000000000E+00 -0.00000000000E+00 -0.47031476393E+03  0.47031476393E+03  0.00000000000E+00 0. -1.
         25    2    1    2    0    0  0.56897290045E+02 -0.69680702102E+02 -0.15249437786E+03  0.21678484643E+03  0.12509369491E+03 0.  0.
          5    1    3    3  502    0  0.63494750589E+02  0.10984940921E+02 -0.10377536171E+03  0.12222540806E+03  0.41800000000E+01 0. -1.
         -5    1    3    3    0  502 -0.65974605439E+01 -0.80665643023E+02 -0.48719016150E+02  0.94559438369E+02  0.41800000000E+01 0. -1.
        -11    1    1    2    0    0 -0.65553803748E+01  0.43434065500E+02 -0.21664411682E+03  0.22105240196E+03  0.00000000000E+00 0. -1.
         11    1    1    2    0    0 -0.50341909670E+02  0.26246636602E+02 -0.54768895656E+02  0.78884889133E+02  0.00000000000E+00 0.  1.
</event>
<event>
 7    1  0.2693725E-009  0.1031076E+03  0.7561462E-02  0.1273894E+00
          2   -1    0    0  501    0  0.00000000000E+00  0.00000000000E+00  0.58076949519E+02  0.58076949519E+02  0.00000000000E+00 0. -1.
         -2   -1    0    0    0  501 -0.00000000000E+00 -0.00000000000E+00 -0.24967646263E+03  0.24967646263E+03  0.00000000000E+00 0.  1.
         25    2    1    2    0    0 -0.18148683382E+02  0.29170716810E+02 -0.15169618037E+03  0.19959634625E+03  0.12508662946E+03 0.  0.
          5    1    3    3  502    0 -0.87770950886E+01 -0.47197972472E+02 -0.84887279531E+02  0.97611518941E+02  0.41800000000E+01 0.  1.
         -5    1    3    3    0  502 -0.93715882937E+01  0.76368689282E+02 -0.66808900837E+02  0.10198482731E+03  0.41800000000E+01 0.  1.
        -11    1    1    2    0    0  0.21132487369E+02 -0.52947049702E+02 -0.55502321756E+02  0.79564312445E+02  0.00000000000E+00 0. -1.
         11    1    1    2    0    0 -0.29838039867E+01  0.23776332892E+02  0.15598989012E+02  0.28592753457E+02  0.00000000000E+00 0.  1.
</event>
<event>
 7    1  0.2693725E-009  0.8727006E+02  0.7561462E-02  0.1309601E+00
          1   -1    0    0  501    0  0.00000000000E+00  0.00000000000E+00  0.50610279239E+03  0.50610279239E+03  0.00000000000E+00 0. -1.
         -1   -1    0    0    0  501 -0.00000000000E+00 -0.00000000000E+00 -0.24102363484E+02  0.24102363484E+02  0.00000000000E+00 0.  1.
         25    2    1    2    0    0  0.22500022341E+02  0.20855974302E+01  0.31408743610E+03  0.33883389310E+03  0.12508752485E+03 0.  0.
          5    1    3    3  502    0 -0.17173593353E+02  0.43127050687E+02  0.48954705941E+02  0.67593716005E+02  0.41800000000E+01 0. -1.
         -5    1    3    3    0  502  0.39673615694E+02 -0.41041453256E+02  0.26513273016E+03  0.27124017709E+03  0.41800000000E+01 0. -1.
        -11    1    1    2    0    0  0.23146951193E+02 -0.83807960171E+01  0.94904880722E+01  0.26383488307E+02  0.00000000000E+00 0.  1.
         11    1    1    2    0    0 -0.45646973533E+02  0.62951985870E+01  0.15842250474E+03  0.16498777447E+03  0.00000000000E+00 0. -1.
</event>
<event>
 7    1  0.2693725E-009  0.1157823E+03  0.7561462E-02  0.1250222E+00
          1   -1    0    0  501    0  0.00000000000E+00  0.00000000000E+00  0.10010209956E+03  0.10010209956E+03  0.00000000000E+00 0. -1.
         -1   -1    0    0    0  501 -0.00000000000E+00 -0.00000000000E+00 -0.20294345952E+03  0.20294345952E+03  0.00000000000E+00 0.  1.
         25    2    1    2    0    0 -0.18535629788E+02  0.83138043726E+02 -0.20935325850E+02  0.15277960249E+03  0.12509122744E+03 0.  0.
          5    1    3    3  502    0 -0.54478390241E+02  0.42621877207E+02 -0.55164382318E+02  0.88572574177E+02  0.41800000000E+01 0.  1.
         -5    1    3    3    0  502  0.35942760453E+02  0.40516166519E+02  0.34229056468E+02  0.64207028315E+02  0.41800000000E+01 0.  1.
        -11    1    1    2    0    0  0.42305815830E+02 -0.66915932667E+02 -0.90491890150E+02  0.12023438061E+03  0.00000000000E+00 0.  1.
         11    1    1    2    0    0 -0.23770186042E+02 -0.16222111058E+02  0.85858560335E+01  0.30031575975E+02  0.00000000000E+00 0. -1.
</event>
<event>
 7    1  0.2693725E-009  0.1120622E+03  0.7561462E-02  0.1256798E+00
          1   -1    0    0  501    0  0.00000000000E+00  0.00000000000E+00  0.56017392279E+03  0.56017392279E+03  0.00000000000E+00 0. -1.
         -1   -1    0    0    0  501 -0.00000000000E+00 -0.00000000000E+00 -0.24104529170E+02  0.24104529170E+02  0.00000000000E+00 0.  1.
         25    2    1    2    0    0 -0.26737457489E+02  0.21184328992E+02  0.35501440653E+03  0.37794942029E+03  0.12508744153E+03 0.  0.
          5    1    3    3  502    0 -0.42772084705E+02 -0.44267780285E+02  0.15400907440E+03  0.16590767010E+03  0.41800000000E+01 0.  1.
         -5    1    3    3    0  502  0.16034627216E+02  0.65452109277E+02  0.20100533213E+03  0.21204175019E+03  0.41800000000E+01 0.  1.
        -11    1    1    2    0    0  0.46238839562E+02 -0.44732458645E+02  0.92733161951E+02  0.11286479728E+03  0.00000000000E+00 0.  1.
         11    1    1    2    0    0 -0.19501382073E+02  0.23548129653E+02  0.88321825138E+02  0.93464234382E+02  0.00000000000E+00 0. -1.
</event>
<event>
 7    1  0.2693725E-009  0.3198950E+03  0.7561462E-02  0.1075698E+00
         -2   -1    0    0    0  501 -0.00000000000E+00  0.00000000000E+00  0.11222524458E+03  0.11222524458E+03  0.00000000000E+00 0.  1.
          2   -1    0    0  501    0  0.00000000000E+00 -0.00000000000E+00 -0.10107963727E+04  0.10107963727E+04  0.00000000000E+00 0. -1.
         25    2    1    2    0    0 -0.20401409061E+02  0.30258504307E+03 -0.61850912235E+03  0.70012540200E+03  0.12509243908E+03 0.  0.
          5    1    3    3  502    0 -0.48836408063E+02  0.28830872056E+03 -0.52092939540E+03  0.59740423542E+03  0.41800000000E+01 0. -1.
         -5    1    3    3    0  502  0.28434999002E+02  0.14276322509E+02 -0.97579726947E+02  0.10272116658E+03  0.41800000000E+01 0. -1.
        -11    1    1    2    0    0  0.47445718398E+02 -0.97918072274E+02 -0.76810112984E+02  0.13318723110E+03  0.00000000000E+00 0.  1.
         11    1    1    2    0    0 -0.27044309337E+02 -0.20466697079E+03 -0.20325189283E+03  0.28970898422E+03  0.00000000000E+00 0. -1.
</event>
<event>
 7    1  0.2693725E-009  0.8388367E+02  0.7561462E-02  0.1318378E+00
          1   -1    0    0  501    0  0.00000000000E+00  0.00000000000E+00  0.22400584729E+03  0.22400584729E+03  0.00000000000E+00 0.  1.
         -1   -1    0    0    0  501 -0.00000000000E+00 -0.00000000000E+00 -0.12195231293E+03  0.12195231293E+03  0.00000000000E+00 0. -1.
         25    2    1    2    0    0 -0.40690022890E+02 -0.42746938074E+02 -0.60001260798E+02  0.15076594990E+03  0.12508893506E+03 0.  0.
          5    1    3    3  502    0 -0.25911882567E+02 -0.29617713686E+02  0.35492239815E+02  0.53158311761E+02  0.41800000000E+01 0. -1.
         -5    1    3    3    0  502 -0.14778140323E+02 -0.13129224388E+02 -0.95493500614E+02  0.97607638143E+02  0.41800000000E+01 0. -1.
        -11    1    1    2    0    0  0.89125956685E+01 -0.28561460041E+02  0.56134062817E+02  0.63609939235E+02  0.00000000000E+00 0.  1.
         11    1    1    2    0    0  0.31777427222E+02  0.71308398115E+02  0.10592073235E+03  0.13158227108E+03  0.00000000000E+00 0. -1.
</event>
<event>
 7    1  0.2693725E-009  0.1803636E+03  0.7561462E-02  0.1167452E+00
          2   -1    0    0  501    0  0.00000000000E+00  0.00000000000E+00  0.21683017943E+03  0.21683017943E+03  0.00000000000E+00 0. -1.
         -2   -1    0    0    0  501 -0.00000000000E+00 -0.00000000000E+00 -0.18050741094E+03  0.18050741094E+03  0.00000000000E+00 0.  1.
         25    2    1    2    0    0 -0.96646389805E+02  0.11471179379E+03  0.87912496480E+02  0.21418222168E+03  0.12508435853E+03 0.  0.
          5    1    3    3  502    0  0.14415204938E+02  0.64536752058E+02  0.59320779882E+02  0.88933783375E+02  0.41800000000E+01 0.  1.
         -5    1    3    3    0  502 -0.11106159474E+03  0.50175041728E+02  0.28591716598E+02  0.12524843830E+03  0.41800000000E+01 0.  1.
        -11    1    1    2    0    0 -0.79260333939E+01 -0.47636277145E+02  0.86726112622E+00  0.48298954931E+02  0.00000000000E+00 0. -1.
         11    1    1    2    0    0  0.10457242320E+03 -0.67075516642E+02 -0.52456989117E+02  0.13485641377E+03  0.00000000000E+00 0.  1.
</event>
<event>
 7    1  0.2693725E-009  0.8646836E+02  0.7561462E-02  0.1311637E+00
         -1   -1    0    0    0  501 -0.00000000000E+00  0.00000000000E+00  0.87446175389E+02  0.87446175389E+02  0.00000000000E+00 0.  1.
          1   -1    0    0  501    0  0.00000000000E+00 -0.00000000000E+00 -0.14399190820E+03  0.14399190820E+03  0.00000000000E+00 0. -1.
         25    2    1    2    0    0  0.12985945292E+02 -0.32821230612E+02 -0.23188235324E+02  0.13202042139E+03  0.12508329006E+03 0.  0.
          5    1    3    3  502    0 -0.27395862937E+02 -0.26696595114E+02  0.40742343047E+02  0.56041524013E+02  0.41800000000E+01 0.  1.
         -5    1    3    3    0  502  0.40381808228E+02 -0.61246354973E+01 -0.63930578371E+02  0.75978897377E+02  0.41800000000E+01 0.  1.
        -11    1    1    2    0    0 -0.43401291949E+02  0.43225076579E+02 -0.25330618427E+02  0.66285138741E+02  0.00000000000E+00 0.  1.
         11    1    1    2    0    0  0.30415346657E+02 -0.10403845967E+02 -0.80268790577E+01  0.33132523456E+02  0.00000000000E+00 0. -1.
</event>
<event>
 7    1  0.2693725E-009  0.1027631E+03  0.7561462E-02  0.1274590E+00
          4   -1    0    0  501    0  0.00000000000E+00  0.00000000000E+00  0.39723968750E+02  0.39723968750E+02  0.00000000000E+00 0. -1.
         -4   -1    0    0    0  501 -0.00000000000E+00 -0.00000000000E+00 -0.46795629519E+03  0.46795629519E+03  0.00000000000E+00 0.  1.
         25    2    1    2    0    0 -0.36665311106E+02  0.26886659252E+02 -0.10974062822E+03  0.17250276193E+03  0.12508780878E+03 0.  0.
          5    1    3    3  502    0 -0.64903067844E+02  0.31559597089E+02 -0.15513898469E+02  0.73936255178E+02  0.41800000000E+01 0.  1.
         -5    1    3    3    0  502  0.28237756739E+02 -0.46729378368E+01 -0.94226729748E+02  0.98566506749E+02  0.41800000000E+01 0.  1.
        -11    1    1    2    0    0 -0.34665293943E+01 -0.55128544605E+02 -0.16041711713E+03  0.16966091101E+03  0.00000000000E+00 0. -1.
         11    1    1    2    0    0  0.40131840500E+02  0.28241885353E+02 -0.15807458109E+03  0.16551659101E+03  0.00000000000E+00 0.  1.
</event>
<event>
 7    1  0.2693725E-009  0.1400417E+03  0.7561462E-02  0.1213273E+00
         -2   -1    0    0    0  501 -0.00000000000E+00  0.00000000000E+00  0.11711867942E+04  0.11711867942E+04  0.00000000000E+00 0.  1.
          2   -1    0    0  501    0  0.00000000000E+00 -0.00000000000E+00 -0.36369619634E+02  0.36369619634E+02  0.00000000000E+00 0. -1.
         25    2    1    2    0    0 -0.11641812041E+03 -0.40656300091E+02  0.95716792868E+03  0.97315139136E+03  0.12508826205E+03 0.  0.
          5    1    3    3  502    0 -0.34612601459E+01  0.22122463848E+02  0.33702543037E+02  0.40678219426E+02  0.41800000000E+01 0. -1.
         -5    1    3    3    0  502 -0.11295686026E+03 -0.62778763939E+02  0.92346538565E+03  0.93247317193E+03  0.41800000000E+01 0. -1.
        -11    1    1    2    0    0  0.33420082328E+02  0.28896172188E+02  0.76170490443E+01  0.44832020990E+02  0.00000000000E+00 0. -1.
         11    1    1    2    0    0  0.82998038079E+02  0.11760127903E+02  0.17003219688E+03  0.18957300153E+03  0.00000000000E+00 0.  1.
</event>
<event>
 7    1  0.2693725E-009  0.1657422E+03  0.7561462E-02  0.1182362E+00
         -2   -1    0    0    0  501 -0.00000000000E+00  0.00000000000E+00  0.71729040027E+02  0.71729040027E+02  0.00000000000E+00 0.  1.
          2   -1    0    0  501    0  0.00000000000E+00 -0.00000000000E+00 -0.41226154789E+03  0.41226154789E+03  0.00000000000E+00 0. -1.
         25    2    1    2    0    0  0.96495651627E+02  0.85435251222E+02 -0.12960714950E+03  0.22148750948E+03  0.12509240873E+03 0.  0.
          5    1    3    3  502    0  0.28530108394E+02  0.10129973458E+03 -0.53475150317E+02  0.11812140963E+03  0.41800000000E+01 0. -1.
         -5    1    3    3    0  502  0.67965543233E+02 -0.15864483362E+02 -0.76131999182E+02  0.10336609985E+03  0.41800000000E+01 0. -1.
        -11    1    1    2    0    0  0.14155448601E+02 -0.28457459518E+02 -0.44643081959E+02  0.54801537333E+02  0.00000000000E+00 0. -1.
         11    1    1    2    0    0 -0.11065110023E+03 -0.56977791704E+02 -0.16628227641E+03  0.20770154110E+03  0.00000000000E+00 0.  1.
</event>
<event>
 7    1  0.2693725E-009  0.1077325E+03  0.7561462E-02  0.1264828E+00
         -2   -1    0    0    0  501 -0.00000000000E+00  0.00000000000E+00  0.24307886807E+03  0.24307886807E+03  0.00000000000E+00 0.  1.
          2   -1    0    0  501    0  0.00000000000E+00 -0.00000000000E+00 -0.70808635244E+02  0.70808635244E+02  0.00000000000E+00 0. -1.
         25    2    1    2    0    0  0.70735339830E+02 -0.25800445718E+02  0.97360263064E+02  0.17548614281E+03  0.12508882521E+03 0.  0.
          5    1    3    3  502    0  0.32745338828E+02 -0.46747873140E+02 -0.11369262286E+02  0.58346836958E+02  0.41800000000E+01 0. -1.
         -5    1    3    3    0  502  0.37990001001E+02  0.20947427422E+02  0.10872952535E+03  0.11713930585E+03  0.41800000000E+01 0. -1.
        -11    1    1    2    0    0 -0.64184742803E+02 -0.20895201254E+02  0.55587999879E+02  0.87443218003E+02  0.00000000000E+00 0.  1.
         11    1    1    2    0    0 -0.65505970267E+01  0.46695646972E+02  0.19321969885E+02  0.50958142507E+02  0.00000000000E+00 0. -1.
</event>
<event>
 7    1  0.2693725E-009  0.1278225E+03  0.7561462E-02  0.1230723E+00
          2   -1    0    0  501    0  0.00000000000E+00  0.00000000000E+00  0.40880681085E+03  0.40880681085E+03  0.00000000000E+00 0. -1.
         -2   -1    0    0    0  501 -0.00000000000E+00 -0.00000000000E+00 -0.44153739976E+02  0.44153739976E+02  0.00000000000E+00 0.  1.
         25    2    1    2    0    0 -0.83336152384E+01  0.74321241379E+02  0.24811115627E+03  0.28774976419E+03  0.12509070653E+03 0.  0.
          5    1    3    3  502    0 -0.23024628480E+02 -0.31062088244E+02  0.75708873970E+02  0.85113411637E+02  0.41800000000E+01 0.  1.
         -5    1    3    3    0  502  0.14691013241E+02  0.10538332962E+03  0.17240228230E+03  0.20263635255E+03  0.41800000000E+01 0.  1.
        -11    1    1    2    0    0  0.74221517254E+01  0.17205942210E+02  0.23849933951E+01  0.18889705584E+02  0.00000000000E+00 0.  1.
         11    1    1    2    0    0  0.91146351303E+00 -0.91527183589E+02  0.11415692121E+03  0.14632108106E+03  0.00000000000E+00 0. -1.
</event>
<event>
 7    1  0.2693725E-009  0.8147653E+02  0.7561462E-02  0.1324913E+00
         -2   -1    0    0    0  501 -0.00000000000E+00  0.00000000000E+00  0.10051631918E+03  0.10051631918E+03  0.00000000000E+00 0.  1.
          2   -1    0    0  501    0  0.00000000000E+00 -0.00000000000E+00 -0.12740861172E+03  0.12740861172E+03  0.00000000000E+00 0. -1.
         25    2    1    2    0    0  0.27373696728E+02 -0.11439538574E+02  0.71699186187E+01  0.12877318322E+03  0.12510372764E+03 0.  0.
          5    1    3    3  502    0  0.16510791980E+02  0.48994991980E+02  0.33589788980E+02  0.61796940172E+02  0.41800000000E+01 0. -1.
         -5    1    3    3    0  502  0.10862904748E+02 -0.60434530554E+02 -0.26419870361E+02  0.66976243047E+02  0.41800000000E+01 0. -1.
        -11    1    1    2    0    0 -0.15662651434E+02 -0.14331441913E+02  0.25514646019E+02  0.33191957441E+02  0.00000000000E+00 0.  1.
         11    1    1    2    0    0 -0.11711045294E+02  0.25770980487E+02 -0.59576857182E+02  0.65959790243E+02  0.00000000000E+00 0. -1.
</event>
<event>
 7    1  0.2693725E-009  0.2685933E+03  0.7561462E-02  0.1102087E+00
          1   -1    0    0  501    0  0.00000000000E+00  0.00000000000E+00  0.11198006813E+04  0.11198006813E+04  0.00000000000E+00 0. -1.
         -1   -1    0    0    0  501 -0.00000000000E+00 -0.00000000000E+00 -0.71630454635E+02  0.71630454635E+02  0.00000000000E+00 0.  1.
         25    2    1    2    0    0  0.11145826028E+03 -0.23273701800E+03  0.45436669694E+03  0.53729447671E+03  0.12508715392E+03 0.  0.
          5    1    3    3  502    0  0.12895534105E+03 -0.16822626793E+03  0.28531258687E+03  0.35545787631E+03  0.41800000000E+01 0.  1.
         -5    1    3    3    0  502 -0.17497080768E+02 -0.64510750070E+02  0.16905411008E+03  0.18183660040E+03  0.41800000000E+01 0.  1.
        -11    1    1    2    0    0 -0.42214243029E+02  0.98454816769E+02  0.14289701523E+03  0.17859157377E+03  0.00000000000E+00 0.  1.
         11    1    1    2    0    0 -0.69244017254E+02  0.13428220123E+03  0.45090651445E+03  0.47554508542E+03  0.00000000000E+00 0. -1.
</event>
<event>
 7    1  0.2693725E-009  0.1264117E+03  0.7561462E-02  0.1232879E+00
         -1   -1    0    0    0  501 -0.00000000000E+00  0.00000000000E+00  0.61715685635E+03  0.61715685635E+03  0.00000000000E+00 0.  1.
          1   -1    0    0  501    0  0.00000000000E+00 -0.00000000000E+00 -0.46153408655E+02  0.46153408655E+02  0.00000000000E+00 0. -1.
         25    2    1    2    0    0 -0.55930168681E+02 -0.10705759626E+03  0.39136383083E+03  0.42825531179E+03  0.12508977299E+03 0.  0.
          5    1    3    3  502    0 -0.95987010820E+01  0.37554397837E+01  0.21234909967E+03  0.21264019121E+03  0.41800000000E+01 0. -1.
         -5    1    3    3    0  502 -0.46331467599E+02 -0.11081303604E+03  0.17901473116E+03  0.21561512057E+03  0.41800000000E+01 0. -1.
        -11    1    1    2    0    0  0.21900104032E+02  0.56303431524E+02  0.19228369132E+02  0.63398904860E+02  0.00000000000E+00 0.  1.
         11    1    1    2    0    0  0.34030064649E+02  0.50754164734E+02  0.16041124773E+03  0.17165604835E+03  0.00000000000E+00 0. -1.
</event>
<event>
 7    1  0.2693725E-009  0.1411934E+03  0.7561462E-02  0.1211732E+00
          1   -1    0    0  501    0  0.00000000000E+00  0.00000000000E+00  0.33561576673E+02  0.33561576673E+02  0.00000000000E+00 0. -1.
         -1   -1    0    0    0  501 -0.00000000000E+00 -0.00000000000E+00 -0.77526237769E+03  0.77526237769E+03  0.00000000000E+00 0.  1.
         25    2    1    2    0    0  0.11835781631E+03  0.11448337927E+02 -0.42611992375E+03  0.45974506926E+03  0.12509077569E+03 0.  0.
          5    1    3    3  502    0  0.29948432414E+02 -0.23240149012E+02 -0.20829614945E+02  0.43455245816E+02  0.41800000000E+01 0. -1.
         -5    1    3    3    0  502  0.88409383898E+02  0.34688486939E+02 -0.40529030881E+03  0.41628982344E+03  0.41800000000E+01 0. -1.
        -11    1    1    2    0    0  0.13442695013E+02 -0.11023899132E+02 -0.38984267843E+02  0.42684956841E+02  0.00000000000E+00 0.  1.
         11    1    1    2    0    0 -0.13180051133E+03 -0.42443879461E+00 -0.27659660943E+03  0.30639392827E+03  0.00000000000E+00 0. -1.
</event>
<event>
 7    1  0.2693725E-009  0.1477302E+03  0.7561462E-02  0.1203290E+00
          1   -1    0    0  501    0  0.00000000000E+00  0.00000000000E+00  0.58348282721E+03  0.58348282721E+03  0.00000000000E+00 0. -1.
         -1   -1    0    0    0  501 -0.00000000000E+00 -0.00000000000E+00 -0.44606820593E+02  0.44606820593E+02  0.00000000000E+00 0.  1.
         25    2    1    2    0    0  0.11015203398E+03  0.38641164042E+02  0.23920610211E+03  0.29409771333E+03  0.12508915041E+03 0.  0.
          5    1    3    3  502    0  0.10020371099E+02 -0.29522330126E+02  0.70926731277E+01  0.32245220190E+02  0.41800000000E+01 0. -1.
         -5    1    3    3    0  502  0.10013166288E+03  0.68163494168E+02  0.23211342898E+03  0.26185249314E+03  0.41800000000E+01 0. -1.
        -11    1    1    2    0    0 -0.53802639780E+02 -0.61747619664E+02  0.12921647164E+03  0.15298493103E+03  0.00000000000E+00 0.  1.
         11    1    1    2    0    0 -0.56349394196E+02  0.23106455622E+02  0.17045343287E+03  0.18100700344E+03  0.00000000000E+00 0. -1.
</event>
<event>
 7    1  0.2693725E-009  0.7905494E+02  0.7561462E-02  0.1331755E+00
          1   -1    0    0  501    0  0.00000000000E+00  0.00000000000E+00  0.77634325123E+02  0.77634325123E+02  0.00000000000E+00 0. -1.
         -1   -1    0    0    0  501 -0.00000000000E+00 -0.00000000000E+00 -0.21651461520E+03  0.21651461520E+03  0.00000000000E+00 0.  1.
         25    2    1    2    0    0 -0.65722207417E+02 -0.20484462540E+02 -0.65836941076E+02  0.15722958950E+03  0.12509044428E+03 0.  0.
          5    1    3    3  502    0 -0.28292695636E+02  0.91372078846E+00 -0.98759749355E+02  0.10282155418E+03  0.41800000000E+01 0.  1.
         -5    1    3    3    0  502 -0.37429511780E+02 -0.21398183328E+02  0.32922808279E+02  0.54408035315E+02  0.41800000000E+01 0.  1.
        -11    1    1    2    0    0  0.45951335586E+02 -0.12590771653E+02  0.69302068177E+01  0.48146448877E+02  0.00000000000E+00 0. -1.
         11    1    1    2    0    0  0.19770871831E+02  0.33075234193E+02 -0.79973555820E+02  0.88772901948E+02  0.00000000000E+00 0.  1.
</event>
<event>
 7    1  0.2693725E-009  0.2076404E+03  0.7561462E-02  0.1143448E+00
          2   -1    0    0  501    0  0.00000000000E+00  0.00000000000E+00  0.37910072571E+03  0.37910072571E+03  0.00000000000E+00 0.  1.
         -2   -1    0    0    0  501 -0.00000000000E+00 -0.00000000000E+00 -0.13768953638E+03  0.13768953638E+03  0.00000000000E+00 0. -1.
         25    2    1    2    0    0 -0.12724146788E+03  0.15017863415E+03  0.82833211165E+02  0.24749238275E+03  0.12508847007E+03 0.  0.
          5    1    3    3  502    0 -0.91581706200E+02  0.13546806312E+03  0.86827146201E+01  0.16380374528E+03  0.41800000000E+01 0. -1.
         -5    1    3    3    0  502 -0.35659761678E+02  0.14710571027E+02  0.74150496545E+02  0.83688637465E+02  0.41800000000E+01 0. -1.
        -11    1    1    2    0    0  0.10884794533E+03 -0.15885551433E+03  0.12355595886E+03  0.22879909222E+03  0.00000000000E+00 0. -1.
         11    1    1    2    0    0  0.18393522553E+02  0.86768801792E+01  0.35022019306E+02  0.40498787116E+02  0.00000000000E+00 0.  1.
</event>
<event>
 7    1  0.2693725E-009  0.7342903E+02  0.7561462E-02  0.1348806E+00
          1   -1    0    0  501    0  0.00000000000E+00  0.00000000000E+00  0.75688517378E+02  0.75688517378E+02  0.00000000000E+00 0. -1.
         -1   -1    0    0    0  501 -0.00000000000E+00 -0.00000000000E+00 -0.15943779162E+03  0.15943779162E+03  0.00000000000E+00 0.  1.
         25    2    1    2    0    0 -0.65226537332E+00 -0.17455220300E+02 -0.47180072281E+02  0.13482919754E+03  0.12509133913E+03 0.  0.
          5    1    3    3  502    0  0.29273977516E+02 -0.53335938489E+02  0.89938917843E+01  0.61644550315E+02  0.41800000000E+01 0.  1.
         -5    1    3    3    0  502 -0.29926242890E+02  0.35880718189E+02 -0.56173964065E+02  0.73184647229E+02  0.41800000000E+01 0.  1.
        -11    1    1    2    0    0 -0.11857224576E+02 -0.53070140129E+01  0.27908967900E+02  0.30784227481E+02  0.00000000000E+00 0. -1.
         11    1    1    2    0    0  0.12509489949E+02  0.22762234313E+02 -0.64478169861E+02  0.69512883973E+02  0.00000000000E+00 0.  1.
</event>
<event>
 7    1  0.2693725E-009  0.8341280E+02  0.7561462E-02  0.1319636E+00
          3   -1    0    0  501    0  0.00000000000E+00  0.00000000000E+00  0.75944843873E+02  0.75944843873E+02  0.00000000000E+00 0. -1.
         -3   -1    0    0    0  501 -0.00000000000E+00 -0.00000000000E+00 -0.23467540378E+03  0.23467540378E+03  0.00000000000E+00 0.  1.
         25    2    1    2    0    0  0.27669166241E+02  0.15766344653E+02 -0.15118447288E+03  0.19879441007E+03  0.12509321426E+03 0.  0.
          5    1    3    3  502    0  0.29491555149E+02 -0.45608616862E+02 -0.28360922292E+02  0.61414266017E+02  0.41800000000E+01 0. -1.
         -5    1    3    3    0  502 -0.18223889082E+01  0.61374961516E+02 -0.12282355058E+03  0.13738014405E+03  0.41800000000E+01 0. -1.
        -11    1    1    2    0    0 -0.30974200748E+02  0.35807955269E+01 -0.53462293269E+02  0.61890548633E+02  0.00000000000E+00 0.  1.
         11    1    1    2    0    0  0.33050345076E+01 -0.19347140180E+02  0.45916206241E+02  0.49935288943E+02  0.00000000000E+00 0. -1.
</event>
<event>
 7    1  0.2693725E-009  0.1625065E+03  0.7561462E-02  0.1185896E+00
          2   -1    0    0  501    0  0.00000000000E+00  0.00000000000E+00  0.69765291766E+02  0.69765291766E+02  0.00000000000E+00 0. -1.
         -2   -1    0    0    0  501 -0.00000000000E+00 -0.00000000000E+00 -0.39999405109E+03  0.39999405109E+03  0.00000000000E+00 0.  1.
         25    2    1    2    0    0  0.64581209177E+02 -0.10804694379E+03 -0.15839171957E+03  0.23786717827E+03  0.12509189835E+03 0.  0.
          5    1    3    3  502    0 -0.12038040193E+02 -0.98925871900E+02 -0.80842673829E+02  0.12839101548E+03  0.41800000000E+01 0.  1.
         -5    1    3    3    0  502  0.76619249371E+02 -0.91210718883E+01 -0.77549045736E+02  0.10947616280E+03  0.41800000000E+01 0.  1.
        -11    1    1    2    0    0 -0.53597964726E+02  0.12020440325E+03 -0.12210664220E+03  0.17953237160E+03  0.00000000000E+00 0. -1.
         11    1    1    2    0    0 -0.10983244451E+02 -0.12157459464E+02 -0.49730397557E+02  0.52359792976E+02  0.00000000000E+00 0.  1.
</event>
<event>
 7    1  0.2693725E-009  0.1475422E+03  0.7561462E-02  0.1203526E+00
         -2   -1    0    0    0  501 -0.00000000000E+00  0.00000000000E+00  0.58698025907E+02  0.58698025907E+02  0.00000000000E+00 0.  1.
          2   -1    0    0  501    0  0.00000000000E+00 -0.00000000000E+00 -0.46515392389E+03  0.46515392389E+03  0.00000000000E+00 0. -1.
         25    2    1    2    0    0 -0.10098496664E+03 -0.69825328251E+02 -0.20863812926E+03  0.27249024538E+03  0.12509006712E+03 0.  0.
          5    1    3    3  502    0 -0.52334846544E+02 -0.79670284816E+02 -0.20046333525E+03  0.22201196280E+03  0.41800000000E+01 0. -1.
         -5    1    3    3    0  502 -0.48650120094E+02  0.98449565650E+01 -0.81747940042E+01  0.50478282577E+02  0.41800000000E+01 0. -1.
        -11    1    1    2    0    0  0.66354993490E+02  0.88422648752E+02 -0.11408388504E+03  0.15886057661E+03  0.00000000000E+00 0.  1.
         11    1    1    2    0    0  0.34629973147E+02 -0.18597320501E+02 -0.83733883680E+02  0.92501127810E+02  0.00000000000E+00 0. -1.
</event>
<event>
 7    1  0.2693725E-009  0.9370445E+02  0.7561462E-02  0.1294121E+00
         -1   -1    0    0    0  501 -0.00000000000E+00  0.00000000000E+00  0.13797383846E+02  0.13797383846E+02  0.00000000000E+00 0.  1.
          1   -1    0    0  501    0  0.00000000000E+00 -0.00000000000E+00 -0.87278961090E+03  0.87278961090E+03  0.00000000000E+00 0. -1.
         25    2    1    2    0    0  0.94805001125E+01 -0.57986298971E+01 -0.61040672421E+03  0.62319231638E+03  0.12509512478E+03 0.  0.
          5    1    3    3  502    0  0.58831968108E+01 -0.56797327688E+02 -0.47424824068E+03  0.47769175692E+03  0.41800000000E+01 0.  1.
         -5    1    3    3    0  502  0.35973033017E+01  0.50998697791E+02 -0.13615848353E+03  0.14550055946E+03  0.41800000000E+01 0.  1.
        -11    1    1    2    0    0 -0.31038915314E+02 -0.25967021317E+02 -0.18280742167E+03  0.18723315378E+03  0.00000000000E+00 0. -1.
         11    1    1    2    0    0  0.21558415201E+02  0.31765651214E+02 -0.65778081178E+02  0.76161524581E+02  0.00000000000E+00 0.  1.
</event>
<event>
 7    1  0.2693725E-009  0.1157940E+03  0.7561462E-02  0.1250201E+00
          2   -1    0    0  501    0  0.00000000000E+00  0.00000000000E+00  0.95930381439E+03  0.95930381439E+03  0.00000000000E+00 0. -1.
         -2   -1    0    0    0  501 -0.00000000000E+00 -0.00000000000E+00 -0.17933257651E+02  0.17933257651E+02  0.00000000000E+00 0.  1.
         25    2    1    2    0    0 -0.44769679511E+01  0.63608126832E+02  0.62148013553E+03  0.63714447834E+03  0.12509792319E+03 0.  0.
          5    1    3    3  502    0  0.44939492860E+02  0.68108662593E+02  0.48562687931E+03  0.49245231876E+03  0.41800000000E+01 0.  1.
         -5    1    3    3    0  502 -0.49416460811E+02 -0.45005357605E+01  0.13585325622E+03  0.14469215959E+03  0.41800000000E+01 0.  1.
        -11    1    1    2    0    0  0.29368087927E+02  0.24729765682E+01  0.31312436598E+02  0.43000801007E+02  0.00000000000E+00 0.  1.
         11    1    1    2    0    0 -0.24891119976E+02 -0.66081103401E+02  0.28857798461E+03  0.29709179269E+03  0.00000000000E+00 0. -1.
</event>
<event>
 7    1  0.2693725E-009  0.1210251E+03  0.7561462E-02  0.1241415E+00
         -1   -1    0    0    0  501 -0.00000000000E+00  0.00000000000E+00  0.11176873772E+04  0.11176873772E+04  0.00000000000E+00 0.  1.
          1   -1    0    0  501    0  0.00000000000E+00 -0.00000000000E+00 -0.20759530790E+02  0.20759530790E+02  0.00000000000E+00 0. -1.
         25    2    1    2    0    0 -0.69585400979E+02 -0.17827884036E+02  0.90702851357E+03  0.91842716630E+03  0.12509106238E+03 0.  0.
          5    1    3    3  502    0  0.11444910932E+02 -0.45172560644E+02  0.51691308729E+03  0.51902616353E+03  0.41800000000E+01 0. -1.
         -5    1    3    3    0  502 -0.81030311911E+02  0.27344676608E+02  0.39011542628E+03  0.39940100277E+03  0.41800000000E+01 0. -1.
        -11    1    1    2    0    0 -0.13023410062E+02  0.23468876137E+02  0.32329847382E+02  0.42019238315E+02  0.00000000000E+00 0. -1.
         11    1    1    2    0    0  0.82608811041E+02 -0.56409921013E+01  0.15756948542E+03  0.17800050334E+03  0.00000000000E+00 0.  1.
</event>
<event>
 7    1  0.2693725E-009  0.2830271E+03  0.7561462E-02  0.1094047E+00
          2   -1    0    0  501    0  0.00000000000E+00  0.00000000000E+00  0.78608580955E+03  0.78608580955E+03  0.00000000000E+00 0. -1.
         -2   -1    0    0    0  501 -0.00000000000E+00 -0.00000000000E+00 -0.11470413543E+03  0.11470413543E+03  0.00000000000E+00 0.  1.
         25    2    1    2    0    0 -0.59700387833E+02  0.26738748436E+03  0.42939407599E+03  0.52448720587E+03  0.12508938215E+03 0.  0.
          5    1    3    3  502    0 -0.20440494321E+02  0.13978577777E+02  0.92929672029E+00  0.25130667265E+02  0.41800000000E+01 0. -1.
         -5    1    3    3    0  502 -0.39259893512E+02  0.25340890659E+03  0.42846477927E+03  0.49935653861E+03  0.41800000000E+01 0. -1.
        -11    1    1    2    0    0 -0.18693473886E+02 -0.53775097952E+02  0.74507797975E+02  0.93768966533E+02  0.00000000000E+00 0. -1.
         11    1    1    2    0    0  0.78393861719E+02 -0.21361238641E+03  0.16747980015E+03  0.28253377257E+03  0.00000000000E+00 0.  1.
</event>
<event>
 7    1  0.3007481E-009  0.1105410E+03  0.7561462E-02  0.1259571E+00
          2   -1    0    0  501    0  0.00000000000E+00  0.00000000000E+00  0.43808360686E+03  0.43808360686E+03  0.00000000000E+00 0. -1.
         -2   -1    0    0    0  501 -0.00000000000E+00 -0.00000000000E+00 -0.45525150241E+02  0.45525150241E+02  0.00000000000E+00 0.  1.
         25    2    1    2    0    0  0.69192343895E+02  0.43761746704E+02  0.15031217694E+03  0.21200189865E+03  0.12509349929E+03 0.  0.
          5    1    3    3  502    0 -0.43183202279E+01 -0.94519719000E+01 -0.17732073515E+02  0.20973471185E+02  0.41800000000E+01 0.  1.
         -5    1    3    3    0  502  0.73510664123E+02  0.53213718604E+02  0.16804425046E+03  0.19102842746E+03  0.41800000000E+01 0.  1.
        -11    1    1    2    0    0 -0.69702913108E+02  0.53619028747E+01  0.17399374104E+03  0.18751284761E+03  0.00000000000E+00 0. -1.
         11    1    1    2    0    0  0.51056921283E+00 -0.49123649579E+02  0.68252538629E+02  0.84094010834E+02  0.00000000000E+00 0.  1.
</event>
<event>
 7    1  0.2693725E-009  0.2060059E+03  0.7561462E-02  0.1144769E+00
          1   -1    0    0  501    0  0.00000000000E+00  0.00000000000E+00  0.10498214531E+04  0.10498214531E+04  0.00000000000E+00 0. -1.
         -1   -1    0    0    0  501 -0.00000000000E+00 -0.00000000000E+00 -0.46657523448E+02  0.46657523448E+02  0.00000000000E+00 0.  1.
         25    2    1    2    0    0  0.57560799104E+02 -0.17532646116E+03  0.38382312152E+03  0.44387059920E+03  0.12509319187E+03 0.  0.
          5    1    3    3  502    0 -0.21502102114E+02 -0.10963649209E+02  0.74353688493E+01  0.25598810699E+02  0.41800000000E+01 0. -1.
         -5    1    3    3    0  502  0.79062901219E+02 -0.16436281195E+03  0.37638775267E+03  0.41827178851E+03  0.41800000000E+01 0. -1.
        -11    1    1    2    0    0 -0.19888123626E+02  0.16475482675E+03  0.52004548117E+03  0.54588184883E+03  0.00000000000E+00 0.  1.
         11    1    1    2    0    0 -0.37672675479E+02  0.10571634409E+02  0.99295327010E+02  0.10672652856E+03  0.00000000000E+00 0. -1.
</event>
<event>
 7    1  0.2693725E-009  0.1167684E+03  0.7561462E-02  0.1248525E+00
          1   -1    0    0  501    0  0.00000000000E+00  0.00000000000E+00  0.51021319778E+02  0.51021319778E+02  0.00000000000E+00 0. -1.
         -1   -1    0    0    0  501 -0.00000000000E+00 -0.00000000000E+00 -0.42414397802E+03  0.42414397802E+03  0.00000000000E+00 0.  1.
         25    2    1    2    0    0  0.96770266963E+02  0.22302626943E+01 -0.22832186899E+03  0.27775575004E+03  0.12509165513E+03 0.  0.
          5    1    3    3  502    0  0.92577086390E+02  0.52873669056E+01 -0.24381720277E+03  0.26088843198E+03  0.41800000000E+01 0.  1.
         -5    1    3    3    0  502  0.41931805731E+01 -0.30571042113E+01  0.15495333784E+02  0.16867318061E+02  0.41800000000E+01 0.  1.
        -11    1    1    2    0    0 -0.10839235530E+02  0.37749746981E+02 -0.46356274067E+02  0.60757193561E+02  0.00000000000E+00 0.  1.
         11    1    1    2    0    0 -0.85931031432E+02 -0.39980009675E+02 -0.98444515182E+02  0.13665235419E+03  0.00000000000E+00 0. -1.
</event>
<event>
 7    1  0.2693725E-009  0.1080171E+03  0.7561462E-02  0.1264287E+00
         -2   -1    0    0    0  501 -0.00000000000E+00  0.00000000000E+00  0.16402100844E+03  0.16402100844E+03  0.00000000000E+00 0.  1.
          2   -1    0    0  501    0  0.00000000000E+00 -0.00000000000E+00 -0.76479986663E+02  0.76479986663E+02  0.00000000000E+00 0. -1.
         25    2    1    2    0    0  0.25108915315E+02  0.40990066407E+01  0.40825184966E+02  0.13402035681E+03  0.12508997094E+03 0.  0.
          5    1    3    3  502    0  0.57322524394E+02  0.45432915556E+02  0.34791495032E+02  0.81104513718E+02  0.41800000000E+01 0.  1.
         -5    1    3    3    0  502 -0.32213609079E+02 -0.41333908915E+02  0.60336899336E+01  0.52915843094E+02  0.41800000000E+01 0.  1.
        -11    1    1    2    0    0 -0.47860190736E+02 -0.29404286547E+02  0.11168179552E+02  0.57270744356E+02  0.00000000000E+00 0. -1.
         11    1    1    2    0    0  0.22751275421E+02  0.25305279906E+02  0.35547657255E+02  0.49209893931E+02  0.00000000000E+00 0.  1.
</event>
<event>
 7    1  0.2693725E-009  0.1136519E+03  0.7561462E-02  0.1253953E+00
         -2   -1    0    0    0  501 -0.00000000000E+00  0.00000000000E+00  0.49080916412E+02  0.49080916412E+02  0.00000000000E+00 0.  1.
          2   -1    0    0  501    0  0.00000000000E+00 -0.00000000000E+00 -0.28986645784E+03  0.28986645784E+03  0.00000000000E+00 0. -1.
         25    2    1    2    0    0  0.25289275972E+02 -0.32086752216E+02 -0.93143202614E+02  0.16122170943E+03  0.12509067211E+03 0.  0.
          5    1    3    3  502    0  0.75451973673E+02 -0.18385322277E+02 -0.68013376478E+02  0.10331656298E+03  0.41800000000E+01 0. -1.
         -5    1    3    3    0  502 -0.50162697701E+02 -0.13701429938E+02 -0.25129826136E+02  0.57905146444E+02  0.41800000000E+01 0. -1.
        -11    1    1    2    0    0  0.20539329682E+02  0.45240633851E+02 -0.59522666248E+02  0.77534036477E+02  0.00000000000E+00 0.  1.
         11    1    1    2    0    0 -0.45828605654E+02 -0.13153881636E+02 -0.88119672561E+02  0.10019162835E+03  0.00000000000E+00 0. -1.
</event>
<event>
 7    1  0.2693725E-009  0.1155659E+03  0.7561462E-02  0.1250596E+00
          2   -1    0    0  501    0  0.00000000000E+00  0.00000000000E+00  0.23148906004E+03  0.23148906004E+03  0.00000000000E+00 0. -1.
         -2   -1    0    0    0  501 -0.00000000000E+00 -0.00000000000E+00 -0.59481235352E+02  0.59481235352E+02  0.00000000000E+00 0.  1.
         25    2    1    2    0    0 -0.22193078210E+02  0.39454068685E+02  0.86294983739E+02  0.15857186242E+03  0.12509618330E+03 0.  0.
          5    1    3    3  502    0 -0.67291895593E+02  0.50053990525E+02  0.69881182113E+02  0.10924492296E+03  0.41800000000E+01 0. -1.
         -5    1    3    3    0  502  0.45098817383E+02 -0.10599921840E+02  0.16413801626E+02  0.49326939457E+02  0.41800000000E+01 0. -1.
        -11    1    1    2    0    0 -0.33309095508E+02 -0.29005771810E+02  0.32893967073E+02  0.55071260306E+02  0.00000000000E+00 0.  1.
         11    1    1    2    0    0  0.55502173718E+02 -0.10448296875E+02  0.52818873876E+02  0.77327172666E+02  0.00000000000E+00 0. -1.
</event>
<event>
 7    1  0.2693725E-009  0.1761377E+03  0.7561462E-02  0.1171594E+00
         -2   -1    0    0    0  501 -0.00000000000E+00  0.00000000000E+00  0.28912313986E+02  0.28912313986E+02  0.00000000000E+00 0.  1.
          2   -1    0    0  501    0  0.00000000000E+00 -0.00000000000E+00 -0.12921243452E+04  0.12921243452E+04  0.00000000000E+00 0. -1.
         25    2    1    2    0    0  0.15036481960E+03 -0.24460303378E+02 -0.82968533882E+03  0.85277980076E+03  0.12509093378E+03 0.  0.
          5    1    3    3  502    0 -0.19457333661E+02 -0.18271050254E+02 -0.10408652343E+03  0.10753555631E+03  0.41800000000E+01 0. -1.
         -5    1    3    3    0  502  0.16982215326E+03 -0.61892531233E+01 -0.72559881539E+03  0.74524424445E+03  0.41800000000E+01 0. -1.
        -11    1    1    2    0    0 -0.63558855509E+02 -0.46165987513E+01 -0.75931281062E+02  0.99129211342E+02  0.00000000000E+00 0.  1.
         11    1    1    2    0    0 -0.86805964087E+02  0.29076902129E+02 -0.35759541138E+03  0.36912764713E+03  0.00000000000E+00 0. -1.
</event>
<event>
 7    1  0.2693725E-009  0.9226892E+02  0.7561462E-02  0.1297448E+00
          2   -1    0    0  501    0  0.00000000000E+00  0.00000000000E+00  0.29191313126E+03  0.29191313126E+03  0.00000000000E+00 0. -1.
         -2   -1    0    0    0  501 -0.00000000000E+00 -0.00000000000E+00 -0.46421093357E+02  0.46421093357E+02  0.00000000000E+00 0.  1.
         25    2    1    2    0    0  0.42429108497E+02 -0.10921486620E+02  0.14641547918E+03  0.19749772098E+03  0.12509336167E+03 0.  0.
          5    1    3    3  502    0 -0.37063087468E+02 -0.32972063779E+02  0.59826303337E+02  0.77829868389E+02  0.41800000000E+01 0. -1.
         -5    1    3    3    0  502  0.79492195965E+02  0.22050577159E+02  0.86589175839E+02  0.11966785260E+03  0.41800000000E+01 0. -1.
        -11    1    1    2    0    0 -0.78679024549E+01 -0.92460205634E+01 -0.15375608946E+02  0.19590868683E+02  0.00000000000E+00 0.  1.
         11    1    1    2    0    0 -0.34561206042E+02  0.20167507184E+02  0.11445216767E+03  0.12124563495E+03  0.00000000000E+00 0. -1.
</event>
<event>
 7    1  0.2693725E-009  0.2113720E+03  0.7561462E-02  0.1140484E+00
         -1   -1    0    0    0  501 -0.00000000000E+00  0.00000000000E+00  0.30192114512E+03  0.30192114512E+03  0.00000000000E+00 0.  1.
          1   -1    0    0  501    0  0.00000000000E+00 -0.00000000000E+00 -0.17664121618E+03  0.17664121618E+03  0.00000000000E+00 0. -1.
         25    2    1    2    0    0 -0.16649940287E+03 -0.11445248606E+03  0.34107183244E+02  0.24006682410E+03  0.12508939748E+03 0.  0.
          5    1    3    3  502    0 -0.12543768455E+03 -0.79377030818E+02 -0.34696219563E+02  0.15250123205E+03  0.41800000000E+01 0. -1.
         -5    1    3    3    0  502 -0.41061718323E+02 -0.35075455241E+02  0.68803402808E+02  0.87565592043E+02  0.41800000000E+01 0. -1.
        -11    1    1    2    0    0  0.47509489731E+02 -0.92872298314E+01  0.25309666782E+02  0.54625849971E+02  0.00000000000E+00 0. -1.
         11    1    1    2    0    0  0.11898991314E+03  0.12373971589E+03  0.65863078912E+02  0.18386968723E+03  0.00000000000E+00 0.  1.
</event>
