<event>
 7    1  0.6988825E-006  0.1305044E+03  0.7561462E-02  0.1226709E+00
          2   -1    0    0  501    0  0.00000000000E+00  0.00000000000E+00  0.90579674594E+03  0.90579674594E+03  0.00000000000E+00 0. -1.
         -2   -1    0    0    0  501 -0.00000000000E+00 -0.00000000000E+00 -0.23346236522E+02  0.23346236522E+02  0.00000000000E+00 0.  1.
         23    2    1    2    0    0 -0.26781335058E+02 -0.91977996010E+02  0.45003555207E+03  0.46893404055E+03  0.90498312700E+02 0.  0.
          5    1    1    2  502    0 -0.25451109895E+02 -0.20647564014E+02  0.10189074513E+03  0.10711338496E+03  0.41800000000E+01 0. -1.
         -5    1    1    2    0  502  0.52232444953E+02  0.11262556002E+03  0.33052421221E+03  0.35309555694E+03  0.41800000000E+01 0. -1.
        -11    1    3    3    0    0 -0.24730396439E+02 -0.20165133574E+02  0.33564665512E+02  0.46312113869E+02  0.00000000000E+00 0.  1.
         11    1    3    3    0    0 -0.20509386191E+01 -0.71812862436E+02  0.41647088656E+03  0.42262192668E+03  0.00000000000E+00 0. -1.
</event>
<event>
 7    1  0.6988825E-006  0.1378056E+03  0.7561462E-02  0.1216313E+00
          1   -1    0    0  501    0  0.00000000000E+00  0.00000000000E+00  0.62664842549E+03  0.62664842549E+03  0.00000000000E+00 0. -1.
         -1   -1    0    0    0  501 -0.00000000000E+00 -0.00000000000E+00 -0.57462975296E+02  0.57462975296E+02  0.00000000000E+00 0.  1.
         23    2    1    2    0    0 -0.12153507610E+03  0.25830787118E+02  0.10136922412E+03  0.18408749075E+03  0.90412832963E+02 0.  0.
          5    1    1    2  502    0  0.30596585468E+02 -0.38141841201E+02  0.33475058298E+03  0.33832879909E+03  0.41800000000E+01 0.  1.
         -5    1    1    2    0  502  0.90938490635E+02  0.12311054082E+02  0.13306564309E+03  0.16169511094E+03  0.41800000000E+01 0.  1.
        -11    1    3    3    0    0 -0.82490377900E+02  0.41813963157E+02  0.23339456396E+02  0.95382389286E+02  0.00000000000E+00 0.  1.
         11    1    3    3    0    0 -0.39044698203E+02 -0.15983176039E+02  0.78029767728E+02  0.88705101464E+02  0.00000000000E+00 0. -1.
</event>
<event>
 7    1  0.6988825E-006  0.1996897E+03  0.7561462E-02  0.1150001E+00
          2   -1    0    0  501    0  0.00000000000E+00  0.00000000000E+00  0.25239217945E+03  0.25239217945E+03  0.00000000000E+00 0. -1.
         -2   -1    0    0    0  501 -0.00000000000E+00 -0.00000000000E+00 -0.19933843672E+03  0.19933843672E+03  0.00000000000E+00 0.  1.
         23    2    1    2    0    0 -0.16911499973E+03 -0.88000592063E+02 -0.25022189276E+02  0.21071706616E+03  0.86206639409E+02 0.  0.
          5    1    1    2  502    0  0.15664330654E+03  0.81636626246E+02  0.10844297128E+03  0.20731380718E+03  0.41800000000E+01 0. -1.
         -5    1    1    2    0  502  0.12471693191E+02  0.63639658170E+01 -0.30367039275E+02  0.33699742823E+02  0.41800000000E+01 0. -1.
        -11    1    3    3    0    0 -0.13244676521E+03 -0.10367673777E+03 -0.28848486174E+02  0.17065534484E+03  0.00000000000E+00 0.  1.
         11    1    3    3    0    0 -0.36668234524E+02  0.15676145705E+02  0.38262968982E+01  0.40061721321E+02  0.00000000000E+00 0. -1.
</event>
<event>
 7    1  0.6988825E-006  0.8415923E+02  0.7561462E-02  0.1317646E+00
          1   -1    0    0  501    0  0.00000000000E+00  0.00000000000E+00  0.14732410753E+03  0.14732410753E+03  0.00000000000E+00 0. -1.
         -1   -1    0    0    0  501 -0.00000000000E+00 -0.00000000000E+00 -0.87834024107E+02  0.87834024107E+02  0.00000000000E+00 0.  1.
         23    2    1    2    0    0  0.20305281852E+02 -0.24985031436E+01 -0.37568981111E+01  0.93473838662E+02  0.91130111608E+02 0.  0.
          5    1    1    2  502    0  0.18390672777E+01  0.47749662460E+02  0.75702796374E+02  0.89620300225E+02  0.41800000000E+01 0. -1.
         -5    1    1    2    0  502 -0.22144349130E+02 -0.45251159316E+02 -0.12455814840E+02  0.52063992751E+02  0.41800000000E+01 0. -1.
        -11    1    3    3    0    0  0.16214137616E+02 -0.34192384344E+02 -0.32959971548E+02  0.50183434819E+02  0.00000000000E+00 0.  1.
         11    1    3    3    0    0  0.40911442362E+01  0.31693881201E+02  0.29203073437E+02  0.43290403843E+02  0.00000000000E+00 0. -1.
</event>
<event>
 6    1  0.6988825E-006  0.1951733E+03  0.7561462E-02  0.1153876E+00
          2   -1    0    0  501    0  0.00000000000E+00  0.00000000000E+00  0.49256207920E+03  0.49256207920E+03  0.00000000000E+00 0. -1.
         -2   -1    0    0    0  501 -0.00000000000E+00 -0.00000000000E+00 -0.12005969335E+03  0.12005969335E+03  0.00000000000E+00 0.  1.
          5    1    1    2  502    0  0.61167933572E+02  0.12071962255E+03  0.16658931282E+03  0.21467234315E+03  0.41800000000E+01 0. -1.
         -5    1    1    2    0  502  0.22755576603E+02 -0.12021088372E+03  0.62710878148E+02  0.13754489983E+03  0.41800000000E+01 0.  1.
        -11    1    1    2    0    0 -0.25035994132E+02 -0.49799735479E+02 -0.35374062885E+02  0.66016202412E+02  0.00000000000E+00 0.  1.
         11    1    1    2    0    0 -0.58887516043E+02  0.49290996648E+02  0.17857625777E+03  0.19438832716E+03  0.00000000000E+00 0. -1.
</event>
<event>
 7    1  0.6988825E-006  0.1526289E+03  0.7561462E-02  0.1197279E+00
          1   -1    0    0  501    0  0.00000000000E+00  0.00000000000E+00  0.11842766862E+04  0.11842766862E+04  0.00000000000E+00 0. -1.
         -1   -1    0    0    0  501 -0.00000000000E+00 -0.00000000000E+00 -0.28229464134E+02  0.28229464134E+02  0.00000000000E+00 0.  1.
         23    2    1    2    0    0  0.10904450697E+03 -0.77616492895E+02  0.34937216696E+03  0.38528804778E+03  0.92037732737E+02 0.  0.
          5    1    1    2  502    0 -0.10369457961E+03  0.17181190075E+02  0.32209784820E+03  0.33883957170E+03  0.41800000000E+01 0. -1.
         -5    1    1    2    0  502 -0.53499273613E+01  0.60435302820E+02  0.48457720689E+03  0.48837853084E+03  0.41800000000E+01 0. -1.
        -11    1    3    3    0    0  0.59256504380E+02 -0.64863288371E+02  0.11163941158E+03  0.14206314690E+03  0.00000000000E+00 0.  1.
         11    1    3    3    0    0  0.49788002588E+02 -0.12753204524E+02  0.23773275538E+03  0.24322490088E+03  0.00000000000E+00 0. -1.
</event>
<event>
 7    1  0.6988825E-006  0.1092604E+03  0.7561462E-02  0.1261946E+00
         -1   -1    0    0    0  501 -0.00000000000E+00  0.00000000000E+00  0.12773713745E+02  0.12773713745E+02  0.00000000000E+00 0.  1.
          1   -1    0    0  501    0  0.00000000000E+00 -0.00000000000E+00 -0.10937692281E+04  0.10937692281E+04  0.00000000000E+00 0. -1.
         23    2    1    2    0    0 -0.52018437921E+02 -0.27300088817E+02 -0.22804853518E+03  0.24247292132E+03  0.57756129055E+02 0.  0.
          5    1    1    2  502    0 -0.36112418644E+02  0.32989177648E+02 -0.34717751475E+03  0.35063099088E+03  0.41800000000E+01 0. -1.
         -5    1    1    2    0  502  0.88130856565E+02 -0.56890888306E+01 -0.50576946446E+03  0.51343902967E+03  0.41800000000E+01 0. -1.
        -11    1    3    3    0    0 -0.15157917401E+02 -0.39405053351E+02 -0.96716102213E+02  0.10552973570E+03  0.00000000000E+00 0.  1.
         11    1    3    3    0    0 -0.36860520520E+02  0.12104964534E+02 -0.13133243297E+03  0.13694318562E+03  0.00000000000E+00 0. -1.
</event>
<event>
 7    1  0.6988825E-006  0.5648281E+02  0.7561462E-02  0.1413214E+00
         -2   -1    0    0    0  501 -0.00000000000E+00  0.00000000000E+00  0.16600747703E+03  0.16600747703E+03  0.00000000000E+00 0.  1.
          2   -1    0    0  501    0  0.00000000000E+00 -0.00000000000E+00 -0.42986472333E+03  0.42986472333E+03  0.00000000000E+00 0. -1.
         23    2    1    2    0    0  0.30030729386E+02 -0.20883614930E+02  0.14052158715E+03  0.17281146066E+03  0.93699062974E+02 0.  0.
          5    1    1    2  502    0 -0.24883213863E+01  0.20477989452E+01 -0.38337687853E+03  0.38341320871E+03  0.41800000000E+01 0. -1.
         -5    1    1    2    0  502 -0.27542407999E+02  0.18835815985E+02 -0.21001954923E+02  0.39647530980E+02  0.41800000000E+01 0.  1.
        -11    1    3    3    0    0 -0.10063587477E+02 -0.31096992987E+02  0.75416644124E+01  0.33543635281E+02  0.00000000000E+00 0. -1.
         11    1    3    3    0    0  0.40094316863E+02  0.10213378057E+02  0.13297992274E+03  0.13926782538E+03  0.00000000000E+00 0.  1.
</event>
<event>
 7    1  0.6988825E-006  0.9036452E+02  0.7561462E-02  0.1301971E+00
         -1   -1    0    0    0  501 -0.00000000000E+00  0.00000000000E+00  0.20512936366E+03  0.20512936366E+03  0.00000000000E+00 0.  1.
          1   -1    0    0  501    0  0.00000000000E+00 -0.00000000000E+00 -0.71118020199E+02  0.71118020199E+02  0.00000000000E+00 0. -1.
         23    2    1    2    0    0 -0.28376637197E+02  0.37529596621E+02  0.67116136588E+02  0.12679527364E+03  0.96740691882E+02 0.  0.
          5    1    1    2  502    0  0.43864998420E+02 -0.43517530323E+01  0.93865334483E+02  0.10378462920E+03  0.41800000000E+01 0. -1.
         -5    1    1    2    0  502 -0.15488361222E+02 -0.33177843588E+02 -0.26970127616E+02  0.45667481013E+02  0.41800000000E+01 0. -1.
        -11    1    3    3    0    0  0.12057168510E+02  0.54448350778E+02  0.13195298626E+02  0.57307190829E+02  0.00000000000E+00 0. -1.
         11    1    3    3    0    0 -0.40433805707E+02 -0.16918754157E+02  0.53920837962E+02  0.69488082811E+02  0.00000000000E+00 0.  1.
</event>
<event>
 7    1  0.6988825E-006  0.1141251E+03  0.7561462E-02  0.1253116E+00
         -3   -1    0    0    0  501 -0.00000000000E+00  0.00000000000E+00  0.22740404645E+03  0.22740404645E+03  0.00000000000E+00 0.  1.
          3   -1    0    0  501    0  0.00000000000E+00 -0.00000000000E+00 -0.90369197776E+02  0.90369197776E+02  0.00000000000E+00 0. -1.
         23    2    1    2    0    0  0.78485948446E+02  0.52989403443E+02  0.10239819487E+03  0.16628636825E+03  0.90541951444E+02 0.  0.
          5    1    1    2  502    0 -0.73127826281E+02 -0.70279522846E+02 -0.11105502490E+02  0.10211608538E+03  0.41800000000E+01 0. -1.
         -5    1    1    2    0  502 -0.53581221652E+01  0.17290119402E+02  0.45742156292E+02  0.49370790598E+02  0.41800000000E+01 0.  1.
        -11    1    3    3    0    0  0.39011188273E+02 -0.35868873470E+01 -0.41073720445E+01  0.39390469360E+02  0.00000000000E+00 0. -1.
         11    1    3    3    0    0  0.39474760173E+02  0.56576290790E+02  0.10650556692E+03  0.12689589889E+03  0.00000000000E+00 0.  1.
</event>
<event>
 7    1  0.6988825E-006  0.9982767E+02  0.7561462E-02  0.1280659E+00
         -3   -1    0    0    0  501 -0.00000000000E+00  0.00000000000E+00  0.86120310393E+02  0.86120310393E+02  0.00000000000E+00 0.  1.
          3   -1    0    0  501    0  0.00000000000E+00 -0.00000000000E+00 -0.31873648392E+03  0.31873648392E+03  0.00000000000E+00 0. -1.
         23    2    1    2    0    0 -0.43855580160E+02 -0.51884941583E+02  0.19398773551E+02  0.11541719071E+03  0.91265855729E+02 0.  0.
          5    1    1    2  502    0  0.19729036389E+02  0.59719202704E+02 -0.25580194761E+03  0.26345346240E+03  0.41800000000E+01 0.  1.
         -5    1    1    2    0  502  0.24126543771E+02 -0.78342611206E+01  0.37870005333E+01  0.25986141204E+02  0.41800000000E+01 0.  1.
        -11    1    3    3    0    0  0.21072594205E+02 -0.39565967255E+02 -0.47011965666E+01  0.45073509299E+02  0.00000000000E+00 0.  1.
         11    1    3    3    0    0 -0.64928174365E+02 -0.12318974328E+02  0.24099970118E+02  0.70343681411E+02  0.00000000000E+00 0. -1.
</event>
<event>
 7    1  0.6988825E-006  0.1454685E+03  0.7561462E-02  0.1206154E+00
          1   -1    0    0  501    0  0.00000000000E+00  0.00000000000E+00  0.86832345503E+03  0.86832345503E+03  0.00000000000E+00 0. -1.
         -1   -1    0    0    0  501 -0.00000000000E+00 -0.00000000000E+00 -0.32525299629E+02  0.32525299629E+02  0.00000000000E+00 0.  1.
         23    2    1    2    0    0 -0.11455176368E+03  0.16423042436E+02  0.24064658379E+03  0.28178206661E+03  0.89991843471E+02 0.  0.
          5    1    1    2  502    0  0.12562966237E+03 -0.44577224604E+02  0.40280677177E+03  0.42431204179E+03  0.41800000000E+01 0. -1.
         -5    1    1    2    0  502 -0.11077898696E+02  0.28154182168E+02  0.19234479984E+03  0.19475464626E+03  0.41800000000E+01 0. -1.
        -11    1    3    3    0    0 -0.95145465538E+01  0.19763578008E+02  0.32620122305E+01  0.22175805185E+02  0.00000000000E+00 0.  1.
         11    1    3    3    0    0 -0.10503721712E+03 -0.33405355720E+01  0.23738457156E+03  0.25960626143E+03  0.00000000000E+00 0. -1.
</event>
<event>
 7    1  0.6988825E-006  0.1206714E+03  0.7561462E-02  0.1241994E+00
          2   -1    0    0  501    0  0.00000000000E+00  0.00000000000E+00  0.45889552607E+03  0.45889552607E+03  0.00000000000E+00 0. -1.
         -2   -1    0    0    0  501 -0.00000000000E+00 -0.00000000000E+00 -0.32697584136E+02  0.32697584136E+02  0.00000000000E+00 0.  1.
         23    2    1    2    0    0  0.39668226744E+02  0.38554137879E+02  0.15030746472E+03  0.18365802415E+03  0.89877394958E+02 0.  0.
          5    1    1    2  502    0  0.58563535831E+01  0.42377266345E+02  0.10376387645E+03  0.11231448720E+03  0.41800000000E+01 0. -1.
         -5    1    1    2    0  502 -0.45524580327E+02 -0.80931404224E+02  0.17212660077E+03  0.19562059886E+03  0.41800000000E+01 0. -1.
        -11    1    3    3    0    0  0.36430442327E+02 -0.23446324643E+02  0.66262096365E+02  0.79168002893E+02  0.00000000000E+00 0.  1.
         11    1    3    3    0    0  0.32377844175E+01  0.62000462522E+02  0.84045368351E+02  0.10449002126E+03  0.00000000000E+00 0. -1.
</event>
<event>
 7    1  0.6988825E-006  0.7789237E+02  0.7561462E-02  0.1335141E+00
         -1   -1    0    0    0  501 -0.00000000000E+00  0.00000000000E+00  0.90726748812E+02  0.90726748812E+02  0.00000000000E+00 0.  1.
          1   -1    0    0  501    0  0.00000000000E+00 -0.00000000000E+00 -0.13045164353E+03  0.13045164353E+03  0.00000000000E+00 0. -1.
         23    2    1    2    0    0 -0.93251943634E+00  0.76999399957E+01 -0.22519575810E+02  0.94667821958E+02  0.91622631217E+02 0.  0.
          5    1    1    2  502    0  0.35407466102E+01 -0.35349500596E+02  0.45455927863E+02  0.57843217899E+02  0.41800000000E+01 0. -1.
         -5    1    1    2    0  502 -0.26082271739E+01  0.27649560600E+02 -0.62661246769E+02  0.68667352483E+02  0.41800000000E+01 0. -1.
        -11    1    3    3    0    0  0.21616674838E+02  0.44098033916E+02 -0.10993652029E+02  0.50326708727E+02  0.00000000000E+00 0. -1.
         11    1    3    3    0    0 -0.22549194275E+02 -0.36398093921E+02 -0.11525923782E+02  0.44341113231E+02  0.00000000000E+00 0.  1.
</event>
<event>
 7    1  0.6988825E-006  0.6954907E+02  0.7561462E-02  0.1361633E+00
         -1   -1    0    0    0  501 -0.00000000000E+00  0.00000000000E+00  0.10633113728E+03  0.10633113728E+03  0.00000000000E+00 0.  1.
          1   -1    0    0  501    0  0.00000000000E+00 -0.00000000000E+00 -0.14843096403E+03  0.14843096403E+03  0.00000000000E+00 0. -1.
         23    2    1    2    0    0  0.26890993620E+02 -0.31799773809E+01  0.38071723976E+02  0.10373992402E+03  0.92624391358E+02 0.  0.
          5    1    1    2  502    0 -0.11376781870E+02 -0.18618523229E+02 -0.10913365894E+03  0.11137193760E+03  0.41800000000E+01 0. -1.
         -5    1    1    2    0  502 -0.15514211750E+02  0.21798500610E+02  0.28962108210E+02  0.39650239684E+02  0.41800000000E+01 0. -1.
        -11    1    3    3    0    0  0.39976700708E+02  0.32676480108E+02  0.27033272377E+01  0.51702968289E+02  0.00000000000E+00 0. -1.
         11    1    3    3    0    0 -0.13085707088E+02 -0.35856457488E+02  0.35368396738E+02  0.52036955728E+02  0.00000000000E+00 0.  1.
</event>
<event>
 7    1  0.6988825E-006  0.1131945E+03  0.7561462E-02  0.1254766E+00
          2   -1    0    0  501    0  0.00000000000E+00  0.00000000000E+00  0.11323924714E+03  0.11323924714E+03  0.00000000000E+00 0. -1.
         -2   -1    0    0    0  501 -0.00000000000E+00 -0.00000000000E+00 -0.13994981977E+03  0.13994981977E+03  0.00000000000E+00 0.  1.
         23    2    1    2    0    0  0.25401546124E+02 -0.51413957324E+02 -0.40213666787E+02  0.11490201060E+03  0.91086220093E+02 0.  0.
          5    1    1    2  502    0 -0.47648129934E+02 -0.24151744067E+02 -0.12879336659E+02  0.55108989652E+02  0.41800000000E+01 0. -1.
         -5    1    1    2    0  502  0.22246583810E+02  0.75565701390E+02  0.26382430812E+02  0.83178066661E+02  0.41800000000E+01 0. -1.
        -11    1    3    3    0    0 -0.23652243789E+02 -0.11361332380E+01  0.12782422074E+02  0.26909287413E+02  0.00000000000E+00 0. -1.
         11    1    3    3    0    0  0.49053789913E+02 -0.50277824086E+02 -0.52996088861E+02  0.87992723189E+02  0.00000000000E+00 0.  1.
</event>
<event>
 7    1  0.6988825E-006  0.9145675E+02  0.7561462E-02  0.1299362E+00
         -4   -1    0    0    0  501 -0.00000000000E+00  0.00000000000E+00  0.13393783744E+03  0.13393783744E+03  0.00000000000E+00 0.  1.
          4   -1    0    0  501    0  0.00000000000E+00 -0.00000000000E+00 -0.92119214244E+02  0.92119214244E+02  0.00000000000E+00 0. -1.
         23    2    1    2    0    0  0.69885209095E+01  0.25005342798E+02  0.16969832769E+02  0.96209280304E+02  0.91072190044E+02 0.  0.
          5    1    1    2  502    0 -0.31615050368E+01  0.49384250052E+02 -0.40830552140E+01  0.49829138134E+02  0.41800000000E+01 0.  1.
         -5    1    1    2    0  502 -0.38270158727E+01 -0.74389592849E+02  0.28931845646E+02  0.80018633251E+02  0.41800000000E+01 0.  1.
        -11    1    3    3    0    0  0.17539593663E+02 -0.11283236689E+02  0.44706468378E+02  0.49331704723E+02  0.00000000000E+00 0.  1.
         11    1    3    3    0    0 -0.10551072753E+02  0.36288579487E+02 -0.27736635610E+02  0.46877575581E+02  0.00000000000E+00 0. -1.
</event>
<event>
 7    1  0.6988825E-006  0.3275722E+03  0.7561462E-02  0.1072216E+00
         -2   -1    0    0    0  501 -0.00000000000E+00  0.00000000000E+00  0.14958581102E+03  0.14958581102E+03  0.00000000000E+00 0.  1.
          2   -1    0    0  501    0  0.00000000000E+00 -0.00000000000E+00 -0.78386033801E+03  0.78386033801E+03  0.00000000000E+00 0. -1.
         23    2    1    2    0    0  0.19557305144E+03  0.25875120617E+03 -0.29133256270E+03  0.44512451644E+03  0.89778437849E+02 0.  0.
          5    1    1    2  502    0 -0.10586967952E+03 -0.16016067659E+03 -0.28325931417E+03  0.34221797561E+03  0.41800000000E+01 0.  1.
         -5    1    1    2    0  502 -0.89703371915E+02 -0.98590529588E+02 -0.59682650131E+02  0.14610365698E+03  0.41800000000E+01 0.  1.
        -11    1    3    3    0    0  0.19844406452E+02  0.66004236266E+02 -0.27736244808E+02  0.74294407250E+02  0.00000000000E+00 0.  1.
         11    1    3    3    0    0  0.17572864498E+03  0.19274696991E+03 -0.26359631789E+03  0.37083010919E+03  0.00000000000E+00 0. -1.
</event>
<event>
 7    1  0.6988825E-006  0.1284058E+03  0.7561462E-02  0.1229841E+00
          1   -1    0    0  501    0  0.00000000000E+00  0.00000000000E+00  0.45874835314E+03  0.45874835314E+03  0.00000000000E+00 0. -1.
         -1   -1    0    0    0  501 -0.00000000000E+00 -0.00000000000E+00 -0.47387144593E+02  0.47387144593E+02  0.00000000000E+00 0.  1.
         23    2    1    2    0    0  0.39809064999E+02 -0.88692050898E+02  0.19634668762E+03  0.23905443767E+03  0.95624060171E+02 0.  0.
          5    1    1    2  502    0 -0.37465166047E+02 -0.23422244730E+02  0.80323831268E+02  0.91769441999E+02  0.41800000000E+01 0.  1.
         -5    1    1    2    0  502 -0.23438989517E+01  0.11211429563E+03  0.13469068966E+03  0.17531161806E+03  0.41800000000E+01 0.  1.
        -11    1    3    3    0    0  0.13191628954E+02 -0.58476931813E+02  0.28373426133E+02  0.66322107470E+02  0.00000000000E+00 0.  1.
         11    1    3    3    0    0  0.26617436045E+02 -0.30215119084E+02  0.16797326149E+03  0.17273233020E+03  0.00000000000E+00 0. -1.
</event>
<event>
 7    1  0.6988825E-006  0.8875076E+02  0.7561462E-02  0.1305905E+00
         -3   -1    0    0    0  501 -0.00000000000E+00  0.00000000000E+00  0.37708207874E+02  0.37708207874E+02  0.00000000000E+00 0.  1.
          3   -1    0    0  501    0  0.00000000000E+00 -0.00000000000E+00 -0.63775859517E+03  0.63775859517E+03  0.00000000000E+00 0. -1.
         23    2    1    2    0    0 -0.49350467638E+01 -0.45716701135E+02 -0.58520493091E+02  0.11778064791E+03  0.91286699259E+02 0.  0.
          5    1    1    2  502    0 -0.40140046320E+02 -0.62143190305E+01 -0.37852496206E+03  0.38072097444E+03  0.41800000000E+01 0. -1.
         -5    1    1    2    0  502  0.45075093084E+02  0.51931020166E+02 -0.16300493214E+03  0.17696518069E+03  0.41800000000E+01 0. -1.
        -11    1    3    3    0    0  0.15697990653E+02 -0.44409859074E+02  0.83057842457E+01  0.47829369068E+02  0.00000000000E+00 0.  1.
         11    1    3    3    0    0 -0.20633037416E+02 -0.13068420613E+01 -0.66826277337E+02  0.69951278844E+02  0.00000000000E+00 0. -1.
</event>
<event>
 7    1  0.6988825E-006  0.8390612E+02  0.7561462E-02  0.1318318E+00
         -2   -1    0    0    0  501 -0.00000000000E+00  0.00000000000E+00  0.21944325953E+02  0.21944325953E+02  0.00000000000E+00 0. -1.
          2   -1    0    0  501    0  0.00000000000E+00 -0.00000000000E+00 -0.66541752589E+03  0.66541752589E+03  0.00000000000E+00 0.  1.
         23    2    1    2    0    0 -0.88480515019E+01 -0.48208663934E+02 -0.21829231439E+03  0.24146003662E+03  0.90824288988E+02 0.  0.
          5    1    1    2  502    0 -0.99595315834E+01 -0.11828015004E+02 -0.33762857072E+03  0.33800831110E+03  0.41800000000E+01 0.  1.
         -5    1    1    2    0  502  0.18807583085E+02  0.60036678938E+02 -0.87552314827E+02  0.10789350412E+03  0.41800000000E+01 0.  1.
        -11    1    3    3    0    0 -0.32690164533E+02 -0.54973578700E+02 -0.20179418847E+03  0.21168758989E+03  0.00000000000E+00 0.  1.
         11    1    3    3    0    0  0.23842113031E+02  0.67649147660E+01 -0.16498125917E+02  0.29772446731E+02  0.00000000000E+00 0. -1.
</event>
<event>
 7    1  0.6988825E-006  0.7135635E+02  0.7561462E-02  0.1355541E+00
          2   -1    0    0  501    0  0.00000000000E+00  0.00000000000E+00  0.10753854465E+03  0.10753854465E+03  0.00000000000E+00 0. -1.
         -2   -1    0    0    0  501 -0.00000000000E+00 -0.00000000000E+00 -0.13394086872E+03  0.13394086872E+03  0.00000000000E+00 0.  1.
         23    2    1    2    0    0 -0.35634440558E+02  0.18818014249E+02 -0.44206088576E+02  0.10888830493E+03  0.90986557627E+02 0.  0.
          5    1    1    2  502    0  0.21034734908E+02 -0.19741634621E+02 -0.52829652679E+02  0.60337689816E+02  0.41800000000E+01 0.  1.
         -5    1    1    2    0  502  0.14599705650E+02  0.92362037261E+00  0.70633417190E+02  0.72253418629E+02  0.41800000000E+01 0.  1.
        -11    1    3    3    0    0 -0.21571311004E+02 -0.35883929250E+02 -0.10689722970E+02  0.43211665254E+02  0.00000000000E+00 0. -1.
         11    1    3    3    0    0 -0.14063129554E+02  0.54701943499E+02 -0.33516365606E+02  0.65676639674E+02  0.00000000000E+00 0.  1.
</event>
<event>
 7    1  0.6988825E-006  0.1225656E+03  0.7561462E-02  0.1238924E+00
          1   -1    0    0  501    0  0.00000000000E+00  0.00000000000E+00  0.76968724643E+02  0.76968724643E+02  0.00000000000E+00 0. -1.
         -1   -1    0    0    0  501 -0.00000000000E+00 -0.00000000000E+00 -0.23985610162E+03  0.23985610162E+03  0.00000000000E+00 0.  1.
         23    2    1    2    0    0 -0.28721361278E+02 -0.65050509908E+02 -0.12349110251E+03  0.16764182499E+03  0.88302002551E+02 0.  0.
          5    1    1    2  502    0  0.66942821271E+02  0.73325338437E+02 -0.95938268437E+01  0.99837169882E+02  0.41800000000E+01 0.  1.
         -5    1    1    2    0  502 -0.38221459993E+02 -0.82748285292E+01 -0.29802447631E+02  0.49345831394E+02  0.41800000000E+01 0.  1.
        -11    1    3    3    0    0 -0.55124125215E+02 -0.30684215959E+02 -0.43392795332E+02  0.76571045287E+02  0.00000000000E+00 0. -1.
         11    1    3    3    0    0  0.26402763937E+02 -0.34366293949E+02 -0.80098307173E+02  0.91070779701E+02  0.00000000000E+00 0.  1.
</event>
<event>
 7    1  0.6988825E-006  0.1050427E+03  0.7561462E-02  0.1270036E+00
         -2   -1    0    0    0  501 -0.00000000000E+00  0.00000000000E+00  0.15869436197E+02  0.15869436197E+02  0.00000000000E+00 0. -1.
          2   -1    0    0  501    0  0.00000000000E+00 -0.00000000000E+00 -0.12035143831E+04  0.12035143831E+04  0.00000000000E+00 0.  1.
         23    2    1    2    0    0 -0.62859252183E+02 -0.98097616625E+01 -0.28754052585E+03  0.30840558991E+03  0.91580220953E+02 0.  0.
          5    1    1    2  502    0  0.92936145059E+00  0.37606690145E+02 -0.66911372572E+03  0.67018339073E+03  0.41800000000E+01 0.  1.
         -5    1    1    2    0  502  0.61929890732E+02 -0.27796928482E+02 -0.23099069537E+03  0.24079483870E+03  0.41800000000E+01 0.  1.
        -11    1    3    3    0    0 -0.85880009694E+01 -0.40823624440E+02 -0.64855792052E+02  0.77114174026E+02  0.00000000000E+00 0. -1.
         11    1    3    3    0    0 -0.54271251214E+02  0.31013862777E+02 -0.22268473380E+03  0.23129141588E+03  0.00000000000E+00 0.  1.
</event>
<event>
 7    1  0.6988825E-006  0.2191436E+03  0.7561462E-02  0.1134523E+00
          1   -1    0    0  501    0  0.00000000000E+00  0.00000000000E+00  0.36113588394E+04  0.36113588394E+04  0.00000000000E+00 0. -1.
         -1   -1    0    0    0  501 -0.00000000000E+00 -0.00000000000E+00 -0.17584764772E+02  0.17584764772E+02  0.00000000000E+00 0.  1.
         23    2    1    2    0    0  0.19209296029E+03  0.96131166200E+02  0.12805144444E+04  0.13023682672E+04  0.10151332166E+03 0.  0.
          5    1    1    2  502    0 -0.14758788526E+03 -0.75430702449E+02  0.11106492877E+04  0.11229564940E+04  0.41800000000E+01 0.  1.
         -5    1    1    2    0  502 -0.44505075029E+02 -0.20700463751E+02  0.12026103424E+04  0.12036188429E+04  0.41800000000E+01 0.  1.
        -11    1    3    3    0    0  0.18278726194E+03  0.10463763039E+03  0.12648230997E+04  0.12822393265E+04  0.00000000000E+00 0.  1.
         11    1    3    3    0    0  0.93056983539E+01 -0.85064641928E+01  0.15691344741E+02  0.20128940724E+02  0.00000000000E+00 0. -1.
</event>
<event>
 7    1  0.6988825E-006  0.1387210E+03  0.7561462E-02  0.1215060E+00
         -2   -1    0    0    0  501 -0.00000000000E+00  0.00000000000E+00  0.11065999066E+03  0.11065999066E+03  0.00000000000E+00 0.  1.
          2   -1    0    0  501    0  0.00000000000E+00 -0.00000000000E+00 -0.23604190889E+03  0.23604190889E+03  0.00000000000E+00 0. -1.
         23    2    1    2    0    0 -0.24044342150E+02 -0.11611846745E+03 -0.97853338448E+02  0.17921918887E+03  0.92101101740E+02 0.  0.
          5    1    1    2  502    0  0.47582326720E+01 -0.37938138222E+01 -0.44206177697E+02  0.44818437591E+02  0.41800000000E+01 0. -1.
         -5    1    1    2    0  502  0.19286109478E+02  0.11991228128E+03  0.16677597908E+02  0.12266427309E+03  0.41800000000E+01 0.  1.
        -11    1    3    3    0    0  0.12643339574E+02 -0.11073381329E+03 -0.61520014602E+02  0.12730492385E+03  0.00000000000E+00 0. -1.
         11    1    3    3    0    0 -0.36687681724E+02 -0.53846541658E+01 -0.36333323846E+02  0.51914265019E+02  0.00000000000E+00 0.  1.
</event>
<event>
 7    1  0.6988825E-006  0.1072996E+03  0.7561462E-02  0.1265654E+00
         -2   -1    0    0    0  501 -0.00000000000E+00  0.00000000000E+00  0.35515487586E+02  0.35515487586E+02  0.00000000000E+00 0.  1.
          2   -1    0    0  501    0  0.00000000000E+00 -0.00000000000E+00 -0.45307586249E+03  0.45307586249E+03  0.00000000000E+00 0. -1.
         23    2    1    2    0    0  0.57995315025E+02  0.17976862385E+02 -0.13625651618E+03  0.17479818030E+03  0.91114990479E+02 0.  0.
          5    1    1    2  502    0 -0.27337664508E+02 -0.67744656408E+02 -0.20442386584E+03  0.21712502320E+03  0.41800000000E+01 0. -1.
         -5    1    1    2    0  502 -0.30657650517E+02  0.49767794022E+02 -0.76879992889E+02  0.96668146583E+02  0.41800000000E+01 0. -1.
        -11    1    3    3    0    0  0.30643972774E+02 -0.19579151600E+02 -0.64561277357E+01  0.36933424294E+02  0.00000000000E+00 0.  1.
         11    1    3    3    0    0  0.27351342251E+02  0.37556013985E+02 -0.12980038844E+03  0.13786475601E+03  0.00000000000E+00 0. -1.
</event>
<event>
 7    1  0.6988825E-006  0.1311807E+03  0.7561462E-02  0.1225714E+00
          1   -1    0    0  501    0  0.00000000000E+00  0.00000000000E+00  0.16778196129E+04  0.16778196129E+04  0.00000000000E+00 0. -1.
         -1   -1    0    0    0  501 -0.00000000000E+00 -0.00000000000E+00 -0.18910589940E+02  0.18910589940E+02  0.00000000000E+00 0.  1.
         23    2    1    2    0    0 -0.10641210040E+03  0.35330423038E+02  0.49834603521E+03  0.51893702717E+03  0.91515536706E+02 0.  0.
          5    1    1    2  502    0  0.69943840459E+02  0.11571270461E+01  0.10784854353E+04  0.10807598190E+04  0.41800000000E+01 0. -1.
         -5    1    1    2    0  502  0.36468259943E+02 -0.36487550084E+02  0.82077552457E+02  0.97033356696E+02  0.41800000000E+01 0.  1.
        -11    1    3    3    0    0 -0.10033565127E+03 -0.43050728624E+01  0.40645245291E+03  0.41867573735E+03  0.00000000000E+00 0.  1.
         11    1    3    3    0    0 -0.60764491284E+01  0.39635495900E+02  0.91893582298E+02  0.10026128982E+03  0.00000000000E+00 0. -1.
</event>
<event>
 7    1  0.6988825E-006  0.3036621E+03  0.7561462E-02  0.1083424E+00
          2   -1    0    0  501    0  0.00000000000E+00  0.00000000000E+00  0.22402255829E+04  0.22402255829E+04  0.00000000000E+00 0. -1.
         -2   -1    0    0    0  501 -0.00000000000E+00 -0.00000000000E+00 -0.51972206812E+02  0.51972206812E+02  0.00000000000E+00 0.  1.
         23    2    1    2    0    0  0.28081681005E+03  0.36254292336E+02  0.55501479079E+03  0.62988442325E+03  0.92414902104E+02 0.  0.
          5    1    1    2  502    0 -0.76109576250E+02 -0.68227542063E+02  0.53253455603E+03  0.54227132587E+03  0.41800000000E+01 0.  1.
         -5    1    1    2    0  502 -0.20470723380E+03  0.31973249727E+02  0.11007040293E+04  0.11200420406E+04  0.41800000000E+01 0.  1.
        -11    1    3    3    0    0  0.62933215759E+02  0.48669030564E+02  0.14303542813E+03  0.16367161600E+03  0.00000000000E+00 0. -1.
         11    1    3    3    0    0  0.21788359429E+03 -0.12414738228E+02  0.41197936266E+03  0.46621280725E+03  0.00000000000E+00 0.  1.
</event>
<event>
 7    1  0.6988825E-006  0.9765806E+02  0.7561462E-02  0.1285299E+00
          2   -1    0    0  501    0  0.00000000000E+00  0.00000000000E+00  0.20882029956E+03  0.20882029956E+03  0.00000000000E+00 0. -1.
         -2   -1    0    0    0  501 -0.00000000000E+00 -0.00000000000E+00 -0.56071700244E+02  0.56071700244E+02  0.00000000000E+00 0.  1.
         23    2    1    2    0    0  0.13197096279E+02 -0.35075950116E+01  0.63576769206E+02  0.11066314523E+03  0.89542501402E+02 0.  0.
          5    1    1    2  502    0 -0.29008560598E+02  0.49176556255E+02  0.54988158276E+01  0.57511213242E+02  0.41800000000E+01 0. -1.
         -5    1    1    2    0  502  0.15811464319E+02 -0.45668961243E+02  0.83673014284E+02  0.96717641329E+02  0.41800000000E+01 0. -1.
        -11    1    3    3    0    0 -0.37744303293E+02 -0.74244004154E+01  0.19214514583E+02  0.42999438638E+02  0.00000000000E+00 0.  1.
         11    1    3    3    0    0  0.50941399572E+02  0.39168054038E+01  0.44362254623E+02  0.67663706594E+02  0.00000000000E+00 0. -1.
</event>
<event>
 7    1  0.6988825E-006  0.1268682E+03  0.7561462E-02  0.1232178E+00
         -2   -1    0    0    0  501 -0.00000000000E+00  0.00000000000E+00  0.13929452965E+02  0.13929452965E+02  0.00000000000E+00 0.  1.
          2   -1    0    0  501    0  0.00000000000E+00 -0.00000000000E+00 -0.12366787679E+04  0.12366787679E+04  0.00000000000E+00 0. -1.
         23    2    1    2    0    0  0.68113174467E+02 -0.24065420834E+02 -0.43161077556E+03  0.44639180217E+03  0.88086494124E+02 0.  0.
          5    1    1    2  502    0  0.32917247714E+02  0.27502193241E+02 -0.25459532235E+03  0.25821728523E+03  0.41800000000E+01 0. -1.
         -5    1    1    2    0  502 -0.10103042218E+03 -0.34367724067E+01 -0.53654321704E+03  0.54599913348E+03  0.41800000000E+01 0. -1.
        -11    1    3    3    0    0  0.29158759147E+01 -0.41796647990E+02 -0.22931170519E+03  0.23310795836E+03  0.00000000000E+00 0. -1.
         11    1    3    3    0    0  0.65197298552E+02  0.17731227157E+02 -0.20229907037E+03  0.21328384381E+03  0.00000000000E+00 0.  1.
</event>
<event>
 7    1  0.6988825E-006  0.7648926E+02  0.7561462E-02  0.1339320E+00
          1   -1    0    0  501    0  0.00000000000E+00  0.00000000000E+00  0.10066278373E+04  0.10066278373E+04  0.00000000000E+00 0. -1.
         -1   -1    0    0    0  501 -0.00000000000E+00 -0.00000000000E+00 -0.12871811871E+02  0.12871811871E+02  0.00000000000E+00 0.  1.
         23    2    1    2    0    0  0.25340438911E+02 -0.15387904658E+02  0.28535625241E+03  0.30080885933E+03  0.90437014586E+02 0.  0.
          5    1    1    2  502    0 -0.16971290080E+02 -0.22272191812E+02  0.63529405195E+03  0.63592458677E+03  0.41800000000E+01 0. -1.
         -5    1    1    2    0  502 -0.83691488307E+01  0.37660096469E+02  0.73105721074E+02  0.82766203078E+02  0.41800000000E+01 0.  1.
        -11    1    3    3    0    0  0.49027457719E+02 -0.30523290640E+02  0.24442242339E+03  0.25115271039E+03  0.00000000000E+00 0. -1.
         11    1    3    3    0    0 -0.23687018808E+02  0.15135385982E+02  0.40933829015E+02  0.49656148931E+02  0.00000000000E+00 0.  1.
</event>
<event>
 7    1  0.6988825E-006  0.9319089E+02  0.7561462E-02  0.1295303E+00
          1   -1    0    0  501    0  0.00000000000E+00  0.00000000000E+00  0.34148754828E+02  0.34148754828E+02  0.00000000000E+00 0. -1.
         -1   -1    0    0    0  501 -0.00000000000E+00 -0.00000000000E+00 -0.37092208701E+03  0.37092208701E+03  0.00000000000E+00 0.  1.
         23    2    1    2    0    0  0.25750064744E+02 -0.17044267907E+02 -0.16547786962E+03  0.18756279011E+03  0.82724252777E+02 0.  0.
          5    1    1    2  502    0  0.27112297066E+02  0.45497662305E+02 -0.23813613826E+02  0.58220911457E+02  0.41800000000E+01 0. -1.
         -5    1    1    2    0  502 -0.52862361810E+02 -0.28453394397E+02 -0.14748184874E+03  0.15928714028E+03  0.41800000000E+01 0.  1.
        -11    1    3    3    0    0  0.48404705517E+02 -0.11604543244E+02 -0.53049277724E+02  0.72745493380E+02  0.00000000000E+00 0. -1.
         11    1    3    3    0    0 -0.22654640773E+02 -0.54397246631E+01 -0.11242859189E+03  0.11481729673E+03  0.00000000000E+00 0.  1.
</event>
<event>
 7    1  0.6988825E-006  0.1262907E+03  0.7561462E-02  0.1233066E+00
          1   -1    0    0  501    0  0.00000000000E+00  0.00000000000E+00  0.82313374564E+02  0.82313374564E+02  0.00000000000E+00 0. -1.
         -1   -1    0    0    0  501 -0.00000000000E+00 -0.00000000000E+00 -0.48067952681E+03  0.48067952681E+03  0.00000000000E+00 0.  1.
         23    2    1    2    0    0  0.22273004532E+02 -0.92801087661E+02 -0.38265332147E+03  0.40488024852E+03  0.91631449877E+02 0.  0.
          5    1    1    2  502    0 -0.59983126961E+02  0.96279867797E+02 -0.30018263054E+02  0.11741531834E+03  0.41800000000E+01 0.  1.
         -5    1    1    2    0  502  0.37710122430E+02 -0.34787801356E+01  0.14305432273E+02  0.40697334525E+02  0.41800000000E+01 0.  1.
        -11    1    3    3    0    0  0.30516854490E+02 -0.62303295947E+02 -0.35839752601E+03  0.36505036055E+03  0.00000000000E+00 0.  1.
         11    1    3    3    0    0 -0.82438499585E+01 -0.30497791715E+02 -0.24255795463E+02  0.39829887963E+02  0.00000000000E+00 0. -1.
</event>
<event>
 7    1  0.6988825E-006  0.1570506E+03  0.7561462E-02  0.1192067E+00
          1   -1    0    0  501    0  0.00000000000E+00  0.00000000000E+00  0.15016172180E+04  0.15016172180E+04  0.00000000000E+00 0. -1.
         -1   -1    0    0    0  501 -0.00000000000E+00 -0.00000000000E+00 -0.37026314501E+02  0.37026314501E+02  0.00000000000E+00 0.  1.
         23    2    1    2    0    0 -0.23465286524E+02 -0.13285680188E+03  0.18633996704E+03  0.24722033214E+03  0.90519389233E+02 0.  0.
          5    1    1    2  502    0 -0.10913426639E+02  0.11571042594E+03  0.11819500920E+04  0.11876579886E+04  0.41800000000E+01 0.  1.
         -5    1    1    2    0  502  0.34378713163E+02  0.17146375941E+02  0.96300844534E+02  0.10376521182E+03  0.41800000000E+01 0.  1.
        -11    1    3    3    0    0 -0.54985228490E+02 -0.71698315535E+02  0.80679224944E+02  0.12113282437E+03  0.00000000000E+00 0.  1.
         11    1    3    3    0    0  0.31519941967E+02 -0.61158486344E+02  0.10566074210E+03  0.12608750777E+03  0.00000000000E+00 0. -1.
</event>
<event>
 7    1  0.6988825E-006  0.1000216E+03  0.7561462E-02  0.1280251E+00
         -2   -1    0    0    0  501 -0.00000000000E+00  0.00000000000E+00  0.26600325918E+02  0.26600325918E+02  0.00000000000E+00 0.  1.
          2   -1    0    0  501    0  0.00000000000E+00 -0.00000000000E+00 -0.46243091162E+03  0.46243091162E+03  0.00000000000E+00 0. -1.
         23    2    1    2    0    0 -0.11695010208E+02  0.20470372848E+02 -0.12503371781E+03  0.15317940281E+03  0.85291789915E+02 0.  0.
          5    1    1    2  502    0 -0.37834377616E+02  0.34155301860E+02 -0.15936153204E+03  0.16736664862E+03  0.41800000000E+01 0. -1.
         -5    1    1    2    0  502  0.49529387824E+02 -0.54625674708E+02 -0.15143533585E+03  0.16848518611E+03  0.41800000000E+01 0. -1.
        -11    1    3    3    0    0  0.25569543263E+02 -0.94459869080E+01 -0.10740727437E+02  0.29298317993E+02  0.00000000000E+00 0.  1.
         11    1    3    3    0    0 -0.37264553471E+02  0.29916359756E+02 -0.11429299038E+03  0.12388108482E+03  0.00000000000E+00 0. -1.
</event>
<event>
 7    1  0.6988825E-006  0.1375537E+03  0.7561462E-02  0.1216659E+00
         -2   -1    0    0    0  501 -0.00000000000E+00  0.00000000000E+00  0.26389552953E+03  0.26389552953E+03  0.00000000000E+00 0.  1.
          2   -1    0    0  501    0  0.00000000000E+00 -0.00000000000E+00 -0.13456087265E+03  0.13456087265E+03  0.00000000000E+00 0. -1.
         23    2    1    2    0    0  0.59366796185E+02  0.12358581285E+03  0.11947933700E+03  0.21258700580E+03  0.11009111427E+03 0.  0.
          5    1    1    2  502    0 -0.87496259946E+01 -0.17762461902E+02  0.56153129369E+02  0.59688418859E+02  0.41800000000E+01 0. -1.
         -5    1    1    2    0  502 -0.50617170190E+02 -0.10582335095E+03 -0.46297809492E+02  0.12618097752E+03  0.41800000000E+01 0. -1.
        -11    1    3    3    0    0  0.29915442947E+02  0.50532645801E+02 -0.11413077617E+02  0.59822573992E+02  0.00000000000E+00 0. -1.
         11    1    3    3    0    0  0.29451353238E+02  0.73053167048E+02  0.13089241461E+03  0.15276443181E+03  0.00000000000E+00 0.  1.
</event>
<event>
 7    1  0.6988825E-006  0.1486730E+03  0.7561462E-02  0.1202113E+00
         -2   -1    0    0    0  501 -0.00000000000E+00  0.00000000000E+00  0.86082487251E+02  0.86082487251E+02  0.00000000000E+00 0.  1.
          2   -1    0    0  501    0  0.00000000000E+00 -0.00000000000E+00 -0.38476534200E+03  0.38476534200E+03  0.00000000000E+00 0. -1.
         23    2    1    2    0    0 -0.10139333175E+03 -0.80101012067E+02 -0.55073680626E+02  0.16804472295E+03  0.92244993121E+02 0.  0.
          5    1    1    2  502    0  0.51015892820E+02  0.71721138731E+02 -0.23482881076E+03  0.25081584045E+03  0.41800000000E+01 0. -1.
         -5    1    1    2    0  502  0.50377438927E+02  0.83798733362E+01 -0.87803633675E+01  0.51987265852E+02  0.41800000000E+01 0. -1.
        -11    1    3    3    0    0 -0.18016019159E+02  0.20525859744E+02 -0.15975047327E+02  0.31640006348E+02  0.00000000000E+00 0. -1.
         11    1    3    3    0    0 -0.83377312588E+02 -0.10062687181E+03 -0.39098633299E+02  0.13640471660E+03  0.00000000000E+00 0.  1.
</event>
<event>
 7    1  0.6988825E-006  0.1223091E+03  0.7561462E-02  0.1239336E+00
         -1   -1    0    0    0  501 -0.00000000000E+00  0.00000000000E+00  0.70572303296E+02  0.70572303296E+02  0.00000000000E+00 0.  1.
          1   -1    0    0  501    0  0.00000000000E+00 -0.00000000000E+00 -0.56553707125E+03  0.56553707125E+03  0.00000000000E+00 0. -1.
         23    2    1    2    0    0  0.25207509054E+02 -0.44231401070E+02  0.13519261451E+02  0.10127144942E+03  0.86494512452E+02 0.  0.
          5    1    1    2  502    0 -0.75174207794E+02 -0.24952340206E+02 -0.27504089149E+03  0.28624944575E+03  0.41800000000E+01 0. -1.
         -5    1    1    2    0  502  0.49966698740E+02  0.69183741276E+02 -0.23344313791E+03  0.24858847937E+03  0.41800000000E+01 0.  1.
        -11    1    3    3    0    0 -0.19836444567E+02 -0.58551681104E+01 -0.23629155426E+02  0.31402301075E+02  0.00000000000E+00 0. -1.
         11    1    3    3    0    0  0.45043953621E+02 -0.38376232960E+02  0.37148416878E+02  0.69869148345E+02  0.00000000000E+00 0.  1.
</event>
<event>
 7    1  0.6988825E-006  0.1986180E+03  0.7561462E-02  0.1150910E+00
         -1   -1    0    0    0  501 -0.00000000000E+00  0.00000000000E+00  0.18554544421E+02  0.18554544421E+02  0.00000000000E+00 0.  1.
          1   -1    0    0  501    0  0.00000000000E+00 -0.00000000000E+00 -0.24144885044E+04  0.24144885044E+04  0.00000000000E+00 0. -1.
         23    2    1    2    0    0  0.85154357287E+02  0.14513117531E+03 -0.76267113083E+03  0.78637701544E+03  0.91690970073E+02 0.  0.
          5    1    1    2  502    0 -0.10047293801E+03 -0.55976961708E+02 -0.10697563245E+04  0.10759295041E+04  0.41800000000E+01 0.  1.
         -5    1    1    2    0  502  0.15318580718E+02 -0.89154213597E+02 -0.56350650460E+03  0.57073652927E+03  0.41800000000E+01 0.  1.
        -11    1    3    3    0    0  0.65138053693E+02  0.24951080059E+02 -0.27000128521E+03  0.27886594710E+03  0.00000000000E+00 0.  1.
         11    1    3    3    0    0  0.20016303594E+02  0.12018009525E+03 -0.49266984562E+03  0.50751106834E+03  0.00000000000E+00 0. -1.
</event>
<event>
 7    1  0.6988825E-006  0.1596180E+03  0.7561462E-02  0.1189129E+00
          1   -1    0    0  501    0  0.00000000000E+00  0.00000000000E+00  0.24526494371E+03  0.24526494371E+03  0.00000000000E+00 0. -1.
         -1   -1    0    0    0  501 -0.00000000000E+00 -0.00000000000E+00 -0.12098960585E+03  0.12098960585E+03  0.00000000000E+00 0.  1.
         23    2    1    2    0    0 -0.22536713134E+02  0.12016296331E+03  0.47161232116E+01  0.15437752220E+03  0.94144231647E+02 0.  0.
          5    1    1    2  502    0 -0.28526426323E+02 -0.11133509593E+03  0.50931653142E+02  0.12578062759E+03  0.41800000000E+01 0.  1.
         -5    1    1    2    0  502  0.51063139457E+02 -0.88278673804E+01  0.68627561504E+02  0.86096399761E+02  0.41800000000E+01 0.  1.
        -11    1    3    3    0    0  0.27376956654E+00  0.12809039826E+03 -0.53790549608E+01  0.12820358539E+03  0.00000000000E+00 0.  1.
         11    1    3    3    0    0 -0.22810482701E+02 -0.79274349429E+01  0.10095178172E+02  0.26173936810E+02  0.00000000000E+00 0. -1.
</event>
<event>
 7    1  0.6988825E-006  0.1070418E+03  0.7561462E-02  0.1266148E+00
          2   -1    0    0  501    0  0.00000000000E+00  0.00000000000E+00  0.67289132888E+03  0.67289132888E+03  0.00000000000E+00 0. -1.
         -2   -1    0    0    0  501 -0.00000000000E+00 -0.00000000000E+00 -0.26748814685E+02  0.26748814685E+02  0.00000000000E+00 0.  1.
         23    2    1    2    0    0  0.51224834457E+02  0.17404221600E+02  0.16940364114E+03  0.20380314624E+03  0.99555201719E+02 0.  0.
          5    1    1    2  502    0 -0.32840440577E+02  0.53040179642E+02  0.24769943956E+03  0.25546866726E+03  0.41800000000E+01 0. -1.
         -5    1    1    2    0  502 -0.18384393880E+02 -0.70444401241E+02  0.22903943349E+03  0.24036833006E+03  0.41800000000E+01 0. -1.
        -11    1    3    3    0    0  0.56308095259E+02 -0.41784329333E+01  0.17241638511E+03  0.18142621295E+03  0.00000000000E+00 0. -1.
         11    1    3    3    0    0 -0.50832608019E+01  0.21582654533E+02 -0.30127439625E+01  0.22376933285E+02  0.00000000000E+00 0.  1.
</event>
<event>
 7    1  0.6988825E-006  0.1555278E+03  0.7561462E-02  0.1193840E+00
         -2   -1    0    0    0  501 -0.00000000000E+00  0.00000000000E+00  0.60259932290E+02  0.60259932290E+02  0.00000000000E+00 0.  1.
          2   -1    0    0  501    0  0.00000000000E+00 -0.00000000000E+00 -0.45693995847E+03  0.45693995847E+03  0.00000000000E+00 0. -1.
         23    2    1    2    0    0  0.38672247279E+02  0.12518634168E+03 -0.17667829674E+03  0.23849429326E+03  0.92179957299E+02 0.  0.
          5    1    1    2  502    0 -0.58399934535E+02 -0.20430860907E+02 -0.10419700077E+03  0.12125370015E+03  0.41800000000E+01 0. -1.
         -5    1    1    2    0  502  0.19727687256E+02 -0.10475548077E+03 -0.11580472866E+03  0.15745189734E+03  0.41800000000E+01 0.  1.
        -11    1    3    3    0    0  0.51472299993E+02  0.77840101854E+02 -0.57483099449E+02  0.10960285510E+03  0.00000000000E+00 0.  1.
         11    1    3    3    0    0 -0.12800052714E+02  0.47346239822E+02 -0.11919519729E+03  0.12889143817E+03  0.00000000000E+00 0. -1.
</event>
<event>
 7    1  0.6988825E-006  0.1118240E+03  0.7561462E-02  0.1257229E+00
          1   -1    0    0  501    0  0.00000000000E+00  0.00000000000E+00  0.86948682846E+03  0.86948682846E+03  0.00000000000E+00 0. -1.
         -1   -1    0    0    0  501 -0.00000000000E+00 -0.00000000000E+00 -0.18411631881E+02  0.18411631881E+02  0.00000000000E+00 0.  1.
         23    2    1    2    0    0 -0.31787474466E+01  0.67524295428E+02  0.38770788345E+03  0.40320684100E+03  0.87685339889E+02 0.  0.
          5    1    1    2  502    0  0.20781451956E+02 -0.86232247292E+02  0.18604306472E+03  0.20614888685E+03  0.41800000000E+01 0. -1.
         -5    1    1    2    0  502 -0.17602704509E+02  0.18707951863E+02  0.27732424841E+03  0.27854273249E+03  0.41800000000E+01 0. -1.
        -11    1    3    3    0    0 -0.44236316199E+02  0.33227451545E+02  0.15987166018E+03  0.16917406106E+03  0.00000000000E+00 0.  1.
         11    1    3    3    0    0  0.41057568752E+02  0.34296843884E+02  0.22783622327E+03  0.23403277994E+03  0.00000000000E+00 0. -1.
</event>
<event>
 7    1  0.6988825E-006  0.1824040E+03  0.7561462E-02  0.1165496E+00
          2   -1    0    0  501    0  0.00000000000E+00  0.00000000000E+00  0.11233699356E+04  0.11233699356E+04  0.00000000000E+00 0. -1.
         -2   -1    0    0    0  501 -0.00000000000E+00 -0.00000000000E+00 -0.30831856381E+02  0.30831856381E+02  0.00000000000E+00 0.  1.
         23    2    1    2    0    0  0.14040642585E+03 -0.47462711545E+02  0.43840869088E+03  0.47192614489E+03  0.92441508963E+02 0.  0.
          5    1    1    2  502    0 -0.15878724198E+03  0.22705186754E+02  0.50288105206E+03  0.52785958232E+03  0.41800000000E+01 0.  1.
         -5    1    1    2    0  502  0.18380816131E+02  0.24757524791E+02  0.15124833631E+03  0.15441606482E+03  0.41800000000E+01 0.  1.
        -11    1    3    3    0    0  0.78765736515E+02 -0.72166976806E+02  0.29895313420E+03  0.31746667579E+03  0.00000000000E+00 0.  1.
         11    1    3    3    0    0  0.61640689334E+02  0.24704265261E+02  0.13945555669E+03  0.15445946910E+03  0.00000000000E+00 0. -1.
</event>
<event>
 7    1  0.6988825E-006  0.1260050E+03  0.7561462E-02  0.1233507E+00
         -2   -1    0    0    0  501 -0.00000000000E+00  0.00000000000E+00  0.25336305082E+02  0.25336305082E+02  0.00000000000E+00 0.  1.
          2   -1    0    0  501    0  0.00000000000E+00 -0.00000000000E+00 -0.91940684174E+03  0.91940684174E+03  0.00000000000E+00 0. -1.
         23    2    1    2    0    0 -0.75291269948E+02  0.37874306452E+02 -0.22241749297E+03  0.25636220686E+03  0.95649367520E+02 0.  0.
          5    1    1    2  502    0  0.90890279915E+02 -0.67996295400E+02 -0.56775132831E+03  0.57900223002E+03  0.41800000000E+01 0. -1.
         -5    1    1    2    0  502 -0.15599009967E+02  0.30121988948E+02 -0.10390171538E+03  0.10937870994E+03  0.41800000000E+01 0. -1.
        -11    1    3    3    0    0 -0.55267994724E+02  0.54944957207E+02 -0.80565838641E+02  0.11209082888E+03  0.00000000000E+00 0.  1.
         11    1    3    3    0    0 -0.20023275224E+02 -0.17070650754E+02 -0.14185165433E+03  0.14427137798E+03  0.00000000000E+00 0. -1.
</event>
<event>
 7    1  0.6988825E-006  0.8249780E+02  0.7561462E-02  0.1322109E+00
         -2   -1    0    0    0  501 -0.00000000000E+00  0.00000000000E+00  0.28987996158E+03  0.28987996158E+03  0.00000000000E+00 0.  1.
          2   -1    0    0  501    0  0.00000000000E+00 -0.00000000000E+00 -0.50456415220E+02  0.50456415220E+02  0.00000000000E+00 0. -1.
         23    2    1    2    0    0 -0.29846799605E+00  0.53437201997E+02  0.10877221404E+03  0.15173175448E+03  0.91298998514E+02 0.  0.
          5    1    1    2  502    0  0.36657086535E+02  0.62269973017E+01  0.10914537903E+03  0.11538069012E+03  0.41800000000E+01 0. -1.
         -5    1    1    2    0  502 -0.36358618539E+02 -0.59664199298E+02  0.21505953284E+02  0.73223932198E+02  0.41800000000E+01 0. -1.
        -11    1    3    3    0    0  0.10542198555E+02  0.28757300515E+02  0.11901685031E+03  0.12289479624E+03  0.00000000000E+00 0.  1.
         11    1    3    3    0    0 -0.10840666551E+02  0.24679901482E+02 -0.10244636272E+02  0.28836958244E+02  0.00000000000E+00 0. -1.
</event>
<event>
 7    1  0.6988825E-006  0.1114477E+03  0.7561462E-02  0.1257912E+00
          1   -1    0    0  501    0  0.00000000000E+00  0.00000000000E+00  0.67254385611E+03  0.67254385611E+03  0.00000000000E+00 0. -1.
         -1   -1    0    0    0  501 -0.00000000000E+00 -0.00000000000E+00 -0.20558044396E+02  0.20558044396E+02  0.00000000000E+00 0.  1.
         23    2    1    2    0    0  0.22041405614E+02  0.33394899504E+01  0.29252011090E+03  0.31184225863E+03  0.10573837162E+03 0.  0.
          5    1    1    2  502    0  0.95925982984E+01  0.55344239196E+02  0.21228367297E+03  0.21962885276E+03  0.41800000000E+01 0. -1.
         -5    1    1    2    0  502 -0.31634003912E+02 -0.58683729146E+02  0.14718202785E+03  0.16163078912E+03  0.41800000000E+01 0. -1.
        -11    1    3    3    0    0 -0.32091923356E+02 -0.23086865181E+02  0.17916753388E+03  0.18347724678E+03  0.00000000000E+00 0. -1.
         11    1    3    3    0    0  0.54133328969E+02  0.26426355132E+02  0.11335257702E+03  0.12836501185E+03  0.00000000000E+00 0.  1.
</event>
<event>
 7    1  0.6988825E-006  0.1262247E+03  0.7561462E-02  0.1233168E+00
          2   -1    0    0  501    0  0.00000000000E+00  0.00000000000E+00  0.54219206826E+03  0.54219206826E+03  0.00000000000E+00 0.  1.
         -2   -1    0    0    0  501 -0.00000000000E+00 -0.00000000000E+00 -0.35383582345E+02  0.35383582345E+02  0.00000000000E+00 0. -1.
         23    2    1    2    0    0 -0.76243526484E+02  0.35191005272E+02  0.18090081229E+03  0.21852818892E+03  0.89319557101E+02 0.  0.
          5    1    1    2  502    0  0.85680711229E+01  0.40872257188E+02  0.14997228211E+03  0.15573410369E+03  0.41800000000E+01 0.  1.
         -5    1    1    2    0  502  0.67675455361E+02 -0.76063262460E+02  0.17593539151E+03  0.20331335800E+03  0.41800000000E+01 0.  1.
        -11    1    3    3    0    0 -0.73961137020E+02  0.64755867459E+00  0.68119088049E+02  0.10055286808E+03  0.00000000000E+00 0. -1.
         11    1    3    3    0    0 -0.22823894633E+01  0.34543446597E+02  0.11278172424E+03  0.11797532084E+03  0.00000000000E+00 0.  1.
</event>
<event>
 7    1  0.6988825E-006  0.2038135E+03  0.7561462E-02  0.1146561E+00
          1   -1    0    0  501    0  0.00000000000E+00  0.00000000000E+00  0.91168921574E+03  0.91168921574E+03  0.00000000000E+00 0. -1.
         -1   -1    0    0    0  501 -0.00000000000E+00 -0.00000000000E+00 -0.61253350185E+02  0.61253350185E+02  0.00000000000E+00 0.  1.
         23    2    1    2    0    0  0.15214155830E+03 -0.12872049660E+03  0.27466533576E+03  0.35094828256E+03  0.89485363910E+02 0.  0.
          5    1    1    2  502    0 -0.10828796539E+03  0.79268616229E+02  0.51464078033E+03  0.53186690266E+03  0.41800000000E+01 0.  1.
         -5    1    1    2    0  502 -0.43853592910E+02  0.49451880369E+02  0.61129749459E+02  0.90127380701E+02  0.41800000000E+01 0.  1.
        -11    1    3    3    0    0  0.12038538828E+03 -0.12750072208E+03  0.18088431226E+03  0.25192897861E+03  0.00000000000E+00 0.  1.
         11    1    3    3    0    0  0.31756170022E+02 -0.12197745129E+01  0.93781023506E+02  0.99019303947E+02  0.00000000000E+00 0. -1.
</event>
<event>
 7    1  0.6988825E-006  0.8864175E+02  0.7561462E-02  0.1306175E+00
          1   -1    0    0  501    0  0.00000000000E+00  0.00000000000E+00  0.16451410022E+03  0.16451410022E+03  0.00000000000E+00 0. -1.
         -1   -1    0    0    0  501 -0.00000000000E+00 -0.00000000000E+00 -0.77037071409E+02  0.77037071409E+02  0.00000000000E+00 0.  1.
         23    2    1    2    0    0 -0.23817888889E+02 -0.11028700481E+01  0.19532172115E+02  0.97217740615E+02  0.92202359999E+02 0.  0.
          5    1    1    2  502    0  0.93931260024E+01  0.47029167399E+02 -0.13177581497E+02  0.49910865114E+02  0.41800000000E+01 0.  1.
         -5    1    1    2    0  502  0.14424762887E+02 -0.45926297351E+02  0.81122438192E+02  0.94422565899E+02  0.41800000000E+01 0.  1.
        -11    1    3    3    0    0 -0.31714367799E+02  0.33029514137E+02 -0.14843008963E+02  0.48135899743E+02  0.00000000000E+00 0.  1.
         11    1    3    3    0    0  0.78964789097E+01 -0.34132384185E+02  0.34375181078E+02  0.49081840872E+02  0.00000000000E+00 0. -1.
</event>
<event>
 7    1  0.6988825E-006  0.1326313E+03  0.7561462E-02  0.1223603E+00
         -1   -1    0    0    0  501 -0.00000000000E+00  0.00000000000E+00  0.27656879603E+02  0.27656879603E+02  0.00000000000E+00 0.  1.
          1   -1    0    0  501    0  0.00000000000E+00 -0.00000000000E+00 -0.80469401910E+03  0.80469401910E+03  0.00000000000E+00 0. -1.
         23    2    1    2    0    0  0.84702123511E+02 -0.38306600836E+02 -0.24096938186E+03  0.27408758288E+03  0.91738294598E+02 0.  0.
          5    1    1    2  502    0 -0.67696980179E+02 -0.37510257366E+02 -0.24450743605E+03  0.25649806864E+03  0.41800000000E+01 0.  1.
         -5    1    1    2    0  502 -0.17005143332E+02  0.75816858202E+02 -0.29156032158E+03  0.30176524718E+03  0.41800000000E+01 0.  1.
        -11    1    3    3    0    0 -0.76539763180E+01 -0.11428600701E+02  0.90953348345E+00  0.13784901836E+02  0.00000000000E+00 0.  1.
         11    1    3    3    0    0  0.92356099829E+02 -0.26878000135E+02 -0.24187891535E+03  0.26030268104E+03  0.00000000000E+00 0. -1.
</event>
<event>
 7    1  0.6988825E-006  0.1025251E+03  0.7561462E-02  0.1275074E+00
          2   -1    0    0  501    0  0.00000000000E+00  0.00000000000E+00  0.30149041535E+03  0.30149041535E+03  0.00000000000E+00 0.  1.
         -2   -1    0    0    0  501 -0.00000000000E+00 -0.00000000000E+00 -0.40061440436E+02  0.40061440436E+02  0.00000000000E+00 0. -1.
         23    2    1    2    0    0  0.14301877441E+02  0.87553357624E+01  0.87334195810E+02  0.12653023317E+03  0.90007991560E+02 0.  0.
          5    1    1    2  502    0 -0.43927527539E+02 -0.55066516601E+02  0.10709453589E+03  0.12825233309E+03  0.41800000000E+01 0. -1.
         -5    1    1    2    0  502  0.29625650098E+02  0.46311180839E+02  0.67000243213E+02  0.86769289527E+02  0.41800000000E+01 0. -1.
        -11    1    3    3    0    0 -0.31594137320E+02 -0.36573514734E+01  0.60697308068E+01  0.32379119272E+02  0.00000000000E+00 0. -1.
         11    1    3    3    0    0  0.45896014760E+02  0.12412687236E+02  0.81264465004E+02  0.94151113895E+02  0.00000000000E+00 0.  1.
</event>
<event>
 7    1  0.6988825E-006  0.2854533E+03  0.7561462E-02  0.1092747E+00
          2   -1    0    0  501    0  0.00000000000E+00  0.00000000000E+00  0.17702865275E+03  0.17702865275E+03  0.00000000000E+00 0. -1.
         -2   -1    0    0    0  501 -0.00000000000E+00 -0.00000000000E+00 -0.46702990232E+03  0.46702990232E+03  0.00000000000E+00 0.  1.
         23    2    1    2    0    0  0.26544057408E+03 -0.98988581984E+01 -0.15760176410E+03  0.32198311399E+03  0.90984195817E+02 0.  0.
          5    1    1    2  502    0 -0.12125371629E+03  0.66495613716E+02 -0.55231099152E+02  0.14897005428E+03  0.41800000000E+01 0. -1.
         -5    1    1    2    0  502 -0.14418685778E+03 -0.56596755518E+02 -0.77168386313E+02  0.17310538680E+03  0.41800000000E+01 0. -1.
        -11    1    3    3    0    0  0.17402193324E+03 -0.44882031258E+02 -0.78412701010E+02  0.19607799891E+03  0.00000000000E+00 0. -1.
         11    1    3    3    0    0  0.91418640842E+02  0.34983173060E+02 -0.79189063091E+02  0.12590511508E+03  0.00000000000E+00 0.  1.
</event>
<event>
 7    1  0.6988825E-006  0.1101373E+03  0.7561462E-02  0.1260316E+00
          2   -1    0    0  501    0  0.00000000000E+00  0.00000000000E+00  0.59742373517E+03  0.59742373517E+03  0.00000000000E+00 0. -1.
         -2   -1    0    0    0  501 -0.00000000000E+00 -0.00000000000E+00 -0.25543921161E+02  0.25543921161E+02  0.00000000000E+00 0.  1.
         23    2    1    2    0    0 -0.40015771273E+02  0.38390651890E+02  0.20203329268E+03  0.22862177941E+03  0.91517006986E+02 0.  0.
          5    1    1    2  502    0  0.55973195129E+02  0.31788178939E+02  0.16322389559E+03  0.17550783283E+03  0.41800000000E+01 0. -1.
         -5    1    1    2    0  502 -0.15957423856E+02 -0.70178830829E+02  0.20662262574E+03  0.21883804409E+03  0.41800000000E+01 0. -1.
        -11    1    3    3    0    0  0.85403315501E+01  0.33848812237E+02  0.20136452762E+02  0.40300819876E+02  0.00000000000E+00 0.  1.
         11    1    3    3    0    0 -0.48556102823E+02  0.45418396536E+01  0.18189683992E+03  0.18832095954E+03  0.00000000000E+00 0. -1.
</event>
<event>
 7    1  0.6988825E-006  0.1062552E+03  0.7561462E-02  0.1267666E+00
          1   -1    0    0  501    0  0.00000000000E+00  0.00000000000E+00  0.12094291514E+03  0.12094291514E+03  0.00000000000E+00 0. -1.
         -1   -1    0    0    0  501 -0.00000000000E+00 -0.00000000000E+00 -0.12681010432E+03  0.12681010432E+03  0.00000000000E+00 0.  1.
         23    2    1    2    0    0  0.51278654526E+02 -0.75150770779E+01 -0.30085460071E+02  0.11020625465E+03  0.92489495963E+02 0.  0.
          5    1    1    2  502    0 -0.20494728305E+01  0.53486633023E+02 -0.19519247566E+02  0.57126996040E+02  0.41800000000E+01 0.  1.
         -5    1    1    2    0  502 -0.49229181695E+02 -0.45971555945E+02  0.43737518458E+02  0.80419768759E+02  0.41800000000E+01 0.  1.
        -11    1    3    3    0    0  0.35184672227E+02  0.32691128686E+02  0.12332401316E+02  0.49585876786E+02  0.00000000000E+00 0. -1.
         11    1    3    3    0    0  0.16093982299E+02 -0.40206205763E+02 -0.42417861387E+02  0.60620377867E+02  0.00000000000E+00 0.  1.
</event>
<event>
 7    1  0.6988825E-006  0.1388862E+03  0.7561462E-02  0.1214836E+00
         -3   -1    0    0    0  501 -0.00000000000E+00  0.00000000000E+00  0.25663019973E+03  0.25663019973E+03  0.00000000000E+00 0. -1.
          3   -1    0    0  501    0  0.00000000000E+00 -0.00000000000E+00 -0.10716538450E+03  0.10716538450E+03  0.00000000000E+00 0.  1.
         23    2    1    2    0    0  0.49119663436E+02 -0.11536634594E+03  0.70305203246E+02  0.16979706912E+03  0.90366409513E+02 0.  0.
          5    1    1    2  502    0 -0.31525646059E+02  0.44241362093E+02 -0.30201400474E+02  0.62295758041E+02  0.41800000000E+01 0.  1.
         -5    1    1    2    0  502 -0.17594017377E+02  0.71124983843E+02  0.10936101245E+03  0.13170275707E+03  0.41800000000E+01 0.  1.
        -11    1    3    3    0    0 -0.40209274668E+01 -0.91596779881E+02  0.22339108130E+02  0.94367227862E+02  0.00000000000E+00 0.  1.
         11    1    3    3    0    0  0.53140590903E+02 -0.23769566055E+02  0.47966095115E+02  0.75429841261E+02  0.00000000000E+00 0. -1.
</event>
<event>
 7    1  0.6988825E-006  0.1369390E+03  0.7561462E-02  0.1217508E+00
         -2   -1    0    0    0  501 -0.00000000000E+00  0.00000000000E+00  0.55246446854E+02  0.55246446854E+02  0.00000000000E+00 0.  1.
          2   -1    0    0  501    0  0.00000000000E+00 -0.00000000000E+00 -0.43223105144E+03  0.43223105144E+03  0.00000000000E+00 0. -1.
         23    2    1    2    0    0  0.89775972785E+02 -0.33887604005E+02 -0.86506041194E+02  0.15697266548E+03  0.89157319104E+02 0.  0.
          5    1    1    2  502    0  0.24965937531E+02  0.36188469421E+01 -0.12034985374E+03  0.12303639212E+03  0.41800000000E+01 0.  1.
         -5    1    1    2    0  502 -0.11474191032E+03  0.30268757063E+02 -0.17012870965E+03  0.20746844069E+03  0.41800000000E+01 0.  1.
        -11    1    3    3    0    0  0.32162057458E+02 -0.58623894996E+02 -0.33099198284E+02  0.74610427767E+02  0.00000000000E+00 0.  1.
         11    1    3    3    0    0  0.57613915328E+02  0.24736290992E+02 -0.53406842910E+02  0.82362237713E+02  0.00000000000E+00 0. -1.
</event>
<event>
 7    1  0.1153399E-005  0.1221608E+03  0.7561462E-02  0.1239574E+00
          2   -1    0    0  501    0  0.00000000000E+00  0.00000000000E+00  0.69879136906E+03  0.69879136906E+03  0.00000000000E+00 0. -1.
         -2   -1    0    0    0  501 -0.00000000000E+00 -0.00000000000E+00 -0.33055571389E+02  0.33055571389E+02  0.00000000000E+00 0.  1.
         23    2    1    2    0    0  0.10055589765E+03  0.83455320633E+01  0.22967190903E+03  0.26711015167E+03  0.91746993783E+02 0.  0.
          5    1    1    2  502    0 -0.27161180704E+02  0.31469273575E+02  0.33410186720E+02  0.53495400674E+02  0.41800000000E+01 0. -1.
         -5    1    1    2    0  502 -0.73394716946E+02 -0.39814805639E+02  0.40265370192E+03  0.41124138811E+03  0.41800000000E+01 0. -1.
        -11    1    3    3    0    0  0.18849204877E+02 -0.24470775613E+02  0.13530743967E+02  0.33722283670E+02  0.00000000000E+00 0.  1.
         11    1    3    3    0    0  0.81706692773E+02  0.32816307676E+02  0.21614116506E+03  0.23338786800E+03  0.00000000000E+00 0. -1.
</event>
<event>
 7    1  0.6988825E-006  0.2255206E+03  0.7561462E-02  0.1129833E+00
         -2   -1    0    0    0  501 -0.00000000000E+00  0.00000000000E+00  0.65691034172E+03  0.65691034172E+03  0.00000000000E+00 0. -1.
          2   -1    0    0  501    0  0.00000000000E+00 -0.00000000000E+00 -0.26078793570E+03  0.26078793570E+03  0.00000000000E+00 0.  1.
         23    2    1    2    0    0  0.13682829543E+03 -0.14925544911E+03  0.57708752573E+03  0.61870795936E+03  0.93650174082E+02 0.  0.
          5    1    1    2  502    0 -0.91762937464E+02  0.20149739014E+02 -0.38924637053E+02  0.10177941071E+03  0.41800000000E+01 0.  1.
         -5    1    1    2    0  502 -0.45065357970E+02  0.12910571009E+03 -0.14204048265E+03  0.19721090736E+03  0.41800000000E+01 0.  1.
        -11    1    3    3    0    0  0.75167832261E+01 -0.65930182921E+02  0.13113320194E+03  0.14696668909E+03  0.00000000000E+00 0.  1.
         11    1    3    3    0    0  0.12931151221E+03 -0.83325266187E+02  0.44595432379E+03  0.47174127027E+03  0.00000000000E+00 0. -1.
</event>
<event>
 7    1  0.6988825E-006  0.9922028E+02  0.7561462E-02  0.1281944E+00
         -2   -1    0    0    0  501 -0.00000000000E+00  0.00000000000E+00  0.69683970116E+02  0.69683970116E+02  0.00000000000E+00 0.  1.
          2   -1    0    0  501    0  0.00000000000E+00 -0.00000000000E+00 -0.16535692387E+03  0.16535692387E+03  0.00000000000E+00 0. -1.
         23    2    1    2    0    0  0.95267517093E+01 -0.58802457659E+01 -0.27755161827E+02  0.92261544582E+02  0.87272603446E+02 0.  0.
          5    1    1    2  502    0  0.57060960393E+02  0.14697407607E+01 -0.20439426320E+02  0.60772986492E+02  0.41800000000E+01 0.  1.
         -5    1    1    2    0  502 -0.66587712103E+02  0.44105050053E+01 -0.47478365607E+02  0.82006362913E+02  0.41800000000E+01 0.  1.
        -11    1    3    3    0    0  0.89905155445E+01 -0.39605902822E+02  0.98037960411E+01  0.41780035004E+02  0.00000000000E+00 0.  1.
         11    1    3    3    0    0  0.53623616479E+00  0.33725657056E+02 -0.37558957868E+02  0.50481509578E+02  0.00000000000E+00 0. -1.
</event>
<event>
 7    1  0.6988825E-006  0.1123507E+03  0.7561462E-02  0.1256278E+00
          2   -1    0    0  501    0  0.00000000000E+00  0.00000000000E+00  0.20308181525E+03  0.20308181525E+03  0.00000000000E+00 0. -1.
         -2   -1    0    0    0  501 -0.00000000000E+00 -0.00000000000E+00 -0.12110192072E+03  0.12110192072E+03  0.00000000000E+00 0.  1.
         23    2    1    2    0    0  0.13356175956E+02  0.20052794148E+00 -0.13965191091E+01  0.90986285248E+02  0.89989589342E+02 0.  0.
          5    1    1    2  502    0  0.54694747559E+02  0.36036050469E+02  0.12812476925E+03  0.14395673392E+03  0.41800000000E+01 0. -1.
         -5    1    1    2    0  502 -0.68050923515E+02 -0.36236578410E+02 -0.44748355611E+02  0.89240716806E+02  0.41800000000E+01 0.  1.
        -11    1    3    3    0    0  0.94598373582E+01 -0.40185999966E+02 -0.20552732565E+02  0.46117436312E+02  0.00000000000E+00 0.  1.
         11    1    3    3    0    0  0.38963385979E+01  0.40386527907E+02  0.19156213456E+02  0.44868848936E+02  0.00000000000E+00 0. -1.
</event>
<event>
 7    1  0.6988825E-006  0.1208207E+03  0.7561462E-02  0.1241749E+00
          1   -1    0    0  501    0  0.00000000000E+00  0.00000000000E+00  0.19172774574E+03  0.19172774574E+03  0.00000000000E+00 0. -1.
         -1   -1    0    0    0  501 -0.00000000000E+00 -0.00000000000E+00 -0.10623147636E+03  0.10623147636E+03  0.00000000000E+00 0.  1.
         23    2    1    2    0    0 -0.47800520419E+02 -0.67838118079E+02 -0.17266329084E+01  0.12434393558E+03  0.92582574157E+02 0.  0.
          5    1    1    2  502    0 -0.32053590350E+02 -0.13581268072E+02  0.12571639427E+02  0.37247845772E+02  0.41800000000E+01 0. -1.
         -5    1    1    2    0  502  0.79854110770E+02  0.81419386150E+02  0.74651262868E+02  0.13636744075E+03  0.41800000000E+01 0. -1.
        -11    1    3    3    0    0 -0.30342148400E+02 -0.68572860830E+02 -0.38012117733E+02  0.84070234367E+02  0.00000000000E+00 0.  1.
         11    1    3    3    0    0 -0.17458372019E+02  0.73474275130E+00  0.36285484824E+02  0.40273701213E+02  0.00000000000E+00 0. -1.
</event>
<event>
 7    1  0.6988825E-006  0.1876512E+03  0.7561462E-02  0.1160597E+00
         -2   -1    0    0    0  501 -0.00000000000E+00  0.00000000000E+00  0.23534585941E+03  0.23534585941E+03  0.00000000000E+00 0. -1.
          2   -1    0    0  501    0  0.00000000000E+00 -0.00000000000E+00 -0.22795158152E+03  0.22795158152E+03  0.00000000000E+00 0.  1.
         23    2    1    2    0    0  0.92018498999E+02 -0.13808091275E+03  0.12312707938E+03  0.22541254813E+03  0.90093265871E+02 0.  0.
          5    1    1    2  502    0 -0.16423356043E+02 -0.23711717898E+02 -0.18216349873E+02  0.34369754030E+02  0.41800000000E+01 0.  1.
         -5    1    1    2    0  502 -0.75595142956E+02  0.16179263065E+03 -0.97516451617E+02  0.20351513877E+03  0.41800000000E+01 0.  1.
        -11    1    3    3    0    0  0.39849739743E+02 -0.80524672718E+02  0.11696312759E+03  0.14748761945E+03  0.00000000000E+00 0. -1.
         11    1    3    3    0    0  0.52168759256E+02 -0.57556240033E+02  0.61639517852E+01  0.77924928686E+02  0.00000000000E+00 0.  1.
</event>
<event>
 7    1  0.6988825E-006  0.2280426E+03  0.7561462E-02  0.1128025E+00
          2   -1    0    0  501    0  0.00000000000E+00  0.00000000000E+00  0.16047724619E+04  0.16047724619E+04  0.00000000000E+00 0. -1.
         -2   -1    0    0    0  501 -0.00000000000E+00 -0.00000000000E+00 -0.33667574163E+02  0.33667574163E+02  0.00000000000E+00 0.  1.
         23    2    1    2    0    0 -0.20172846700E+03 -0.23119259049E+02  0.85467989896E+03  0.88336264045E+03  0.92859842317E+02 0.  0.
          5    1    1    2  502    0 -0.57953741109E+01  0.29947668473E+02  0.96038761777E+02  0.10085318722E+03  0.41800000000E+01 0.  1.
         -5    1    1    2    0  502  0.20752384111E+03 -0.68284094244E+01  0.62038622701E+03  0.65422420841E+03  0.41800000000E+01 0.  1.
        -11    1    3    3    0    0 -0.67865787382E+02  0.29218182676E+02  0.39088403972E+03  0.39780623400E+03  0.00000000000E+00 0.  1.
         11    1    3    3    0    0 -0.13386267962E+03 -0.52337441725E+02  0.46379585924E+03  0.48555640645E+03  0.00000000000E+00 0. -1.
</event>
<event>
 7    1  0.6988825E-006  0.1647266E+03  0.7561462E-02  0.1183461E+00
         -2   -1    0    0    0  501 -0.00000000000E+00  0.00000000000E+00  0.24816186206E+02  0.24816186206E+02  0.00000000000E+00 0.  1.
          2   -1    0    0  501    0  0.00000000000E+00 -0.00000000000E+00 -0.13604809030E+04  0.13604809030E+04  0.00000000000E+00 0. -1.
         23    2    1    2    0    0 -0.10410845367E+03 -0.70100267478E+02 -0.33215872497E+03  0.36626607442E+03  0.89826505395E+02 0.  0.
          5    1    1    2  502    0  0.41975314454E+02 -0.35122930737E+02 -0.32094695729E+03  0.32560707775E+03  0.41800000000E+01 0.  1.
         -5    1    1    2    0  502  0.62133139214E+02  0.10522319822E+03 -0.68255903454E+03  0.69342393704E+03  0.41800000000E+01 0.  1.
        -11    1    3    3    0    0 -0.59895729668E+02 -0.86434257592E+02 -0.20012465786E+03  0.22607135599E+03  0.00000000000E+00 0. -1.
         11    1    3    3    0    0 -0.44212724000E+02  0.16333990113E+02 -0.13203406711E+03  0.14019471843E+03  0.00000000000E+00 0.  1.
</event>
<event>
 7    1  0.6988825E-006  0.1435964E+03  0.7561462E-02  0.1208570E+00
         -1   -1    0    0    0  501 -0.00000000000E+00  0.00000000000E+00  0.30288059649E+02  0.30288059649E+02  0.00000000000E+00 0.  1.
          1   -1    0    0  501    0  0.00000000000E+00 -0.00000000000E+00 -0.89655150025E+03  0.89655150025E+03  0.00000000000E+00 0. -1.
         23    2    1    2    0    0  0.88539308194E+02  0.76062089586E+02 -0.52320785906E+03  0.54348558278E+03  0.89473260453E+02 0.  0.
          5    1    1    2  502    0 -0.10071432567E+03 -0.12611032767E+02 -0.16357543181E+03  0.19255338957E+03  0.41800000000E+01 0. -1.
         -5    1    1    2    0  502  0.12175017481E+02 -0.63451056820E+02 -0.17948014973E+03  0.19080058755E+03  0.41800000000E+01 0. -1.
        -11    1    3    3    0    0  0.84896162339E+01  0.23784578193E+02 -0.22792518640E+02  0.34018798473E+02  0.00000000000E+00 0.  1.
         11    1    3    3    0    0  0.80049691961E+02  0.52277511394E+02 -0.50041534042E+03  0.50946678430E+03  0.00000000000E+00 0. -1.
</event>
<event>
 7    1  0.6988825E-006  0.1095466E+03  0.7561462E-02  0.1261412E+00
         -1   -1    0    0    0  501 -0.00000000000E+00  0.00000000000E+00  0.75699419090E+01  0.75699419090E+01  0.00000000000E+00 0.  1.
          1   -1    0    0  501    0  0.00000000000E+00 -0.00000000000E+00 -0.23600382925E+04  0.23600382925E+04  0.00000000000E+00 0. -1.
         23    2    1    2    0    0 -0.16979067441E+01 -0.14609535250E+02 -0.39039091191E+03  0.40149238009E+03  0.92599923155E+02 0.  0.
          5    1    1    2  502    0 -0.40546989932E+02 -0.39637242202E+02 -0.94429433075E+03  0.94600445287E+03  0.41800000000E+01 0. -1.
         -5    1    1    2    0  502  0.42244896676E+02  0.54246777451E+02 -0.10177831079E+04  0.10201114014E+04  0.41800000000E+01 0. -1.
        -11    1    3    3    0    0  0.15547974668E+02  0.36360743673E+02 -0.18408345080E+03  0.18828319111E+03  0.00000000000E+00 0.  1.
         11    1    3    3    0    0 -0.17245881412E+02 -0.50970278922E+02 -0.20630746110E+03  0.21320918898E+03  0.00000000000E+00 0. -1.
</event>
<event>
 7    1  0.6988825E-006  0.8197969E+02  0.7561462E-02  0.1323525E+00
          2   -1    0    0  501    0  0.00000000000E+00  0.00000000000E+00  0.12964747233E+03  0.12964747233E+03  0.00000000000E+00 0. -1.
         -2   -1    0    0    0  501 -0.00000000000E+00 -0.00000000000E+00 -0.11393715823E+03  0.11393715823E+03  0.00000000000E+00 0.  1.
         23    2    1    2    0    0  0.30939566409E+02 -0.21110038298E+02 -0.33735857162E+02  0.10395698781E+03  0.90917857265E+02 0.  0.
          5    1    1    2  502    0 -0.76099608988E+01 -0.46805076598E+02  0.48113792731E+02  0.67683352098E+02  0.41800000000E+01 0. -1.
         -5    1    1    2    0  502 -0.23329605510E+02  0.67915114895E+02  0.13323785311E+01  0.71944290650E+02  0.41800000000E+01 0. -1.
        -11    1    3    3    0    0  0.19738958725E+02  0.86617561559E+00  0.29826184159E+02  0.35776780364E+02  0.00000000000E+00 0. -1.
         11    1    3    3    0    0  0.11200607684E+02 -0.21976213913E+02 -0.63562041321E+02  0.68180207446E+02  0.00000000000E+00 0.  1.
</event>
<event>
 7    1  0.6988825E-006  0.1549073E+03  0.7561462E-02  0.1194569E+00
          2   -1    0    0  501    0  0.00000000000E+00  0.00000000000E+00  0.13088079903E+04  0.13088079903E+04  0.00000000000E+00 0. -1.
         -2   -1    0    0    0  501 -0.00000000000E+00 -0.00000000000E+00 -0.30831857246E+02  0.30831857246E+02  0.00000000000E+00 0.  1.
         23    2    1    2    0    0 -0.18200338556E+01 -0.13695540641E+03  0.28291072408E+03  0.32743244326E+03  0.91724757984E+02 0.  0.
          5    1    1    2  502    0 -0.23440163578E+02  0.72887147245E+02  0.20065661565E+03  0.21480811741E+03  0.41800000000E+01 0.  1.
         -5    1    1    2    0  502  0.25260197434E+02  0.64068259165E+02  0.79440879333E+03  0.79739928689E+03  0.41800000000E+01 0.  1.
        -11    1    3    3    0    0  0.12799778397E+01  0.13547286353E+02  0.32858258118E+02  0.35564482807E+02  0.00000000000E+00 0.  1.
         11    1    3    3    0    0 -0.31000116952E+01 -0.15050269276E+03  0.25005246596E+03  0.29186796045E+03  0.00000000000E+00 0. -1.
</event>
<event>
 7    1  0.6988825E-006  0.9825958E+02  0.7561462E-02  0.1283999E+00
          2   -1    0    0  501    0  0.00000000000E+00  0.00000000000E+00  0.70428002496E+02  0.70428002496E+02  0.00000000000E+00 0. -1.
         -2   -1    0    0    0  501 -0.00000000000E+00 -0.00000000000E+00 -0.22923462542E+03  0.22923462542E+03  0.00000000000E+00 0.  1.
         23    2    1    2    0    0 -0.51878667642E+02  0.15007230634E+02 -0.11498383562E+03  0.15653545571E+03  0.91462852083E+02 0.  0.
          5    1    1    2  502    0 -0.13873560826E+02 -0.21658619332E+02 -0.67850851738E+02  0.72682748730E+02  0.41800000000E+01 0. -1.
         -5    1    1    2    0  502  0.65752228468E+02  0.66513886987E+01  0.24028064430E+02  0.70444423486E+02  0.41800000000E+01 0. -1.
        -11    1    3    3    0    0 -0.58657300754E+02 -0.24927925156E+02 -0.84494532834E+02  0.10583669715E+03  0.00000000000E+00 0.  1.
         11    1    3    3    0    0  0.67786331120E+01  0.39935155790E+02 -0.30489302787E+02  0.50698758558E+02  0.00000000000E+00 0. -1.
</event>
<event>
 7    1  0.6988825E-006  0.8099394E+02  0.7561462E-02  0.1326254E+00
          2   -1    0    0  501    0  0.00000000000E+00  0.00000000000E+00  0.12828198165E+03  0.12828198165E+03  0.00000000000E+00 0. -1.
         -2   -1    0    0    0  501 -0.00000000000E+00 -0.00000000000E+00 -0.10806943082E+03  0.10806943082E+03  0.00000000000E+00 0.  1.
         23    2    1    2    0    0  0.42171560074E+02 -0.52088677175E+00 -0.97351647253E+01  0.10098220680E+03  0.91235524089E+02 0.  0.
          5    1    1    2  502    0 -0.69706590435E+02  0.29470204323E+02 -0.12620539261E+02  0.76839131334E+02  0.41800000000E+01 0.  1.
         -5    1    1    2    0  502  0.27535030361E+02 -0.28949317551E+02  0.42568254817E+02  0.58530074336E+02  0.41800000000E+01 0.  1.
        -11    1    3    3    0    0  0.92554286757E+01 -0.80369512753E+01  0.39457385845E+02  0.41317560958E+02  0.00000000000E+00 0. -1.
         11    1    3    3    0    0  0.32916131398E+02  0.75160645035E+01 -0.49192550570E+02  0.59664645842E+02  0.00000000000E+00 0.  1.
</event>
<event>
 7    1  0.6988825E-006  0.1912648E+03  0.7561462E-02  0.1157326E+00
          2   -1    0    0  501    0  0.00000000000E+00  0.00000000000E+00  0.14795506355E+04  0.14795506355E+04  0.00000000000E+00 0.  1.
         -2   -1    0    0    0  501 -0.00000000000E+00 -0.00000000000E+00 -0.26743176083E+02  0.26743176083E+02  0.00000000000E+00 0. -1.
         23    2    1    2    0    0  0.49011668622E+02 -0.15813556957E+03  0.62809430296E+03  0.65587736314E+03  0.90904675575E+02 0.  0.
          5    1    1    2  502    0 -0.79261267236E+02  0.80482551106E+02  0.60338682548E+03  0.61388347679E+03  0.41800000000E+01 0. -1.
         -5    1    1    2    0  502  0.30249598615E+02  0.77653018466E+02  0.22132633093E+03  0.23653297160E+03  0.41800000000E+01 0. -1.
        -11    1    3    3    0    0  0.59570673002E+02 -0.51066968935E+02  0.21055427505E+03  0.22469891664E+03  0.00000000000E+00 0.  1.
         11    1    3    3    0    0 -0.10559004381E+02 -0.10706860064E+03  0.41754002791E+03  0.43117844650E+03  0.00000000000E+00 0. -1.
</event>
<event>
 7    1  0.6988825E-006  0.1053848E+03  0.7561462E-02  0.1269363E+00
         -2   -1    0    0    0  501 -0.00000000000E+00  0.00000000000E+00  0.41593834560E+02  0.41593834560E+02  0.00000000000E+00 0.  1.
          2   -1    0    0  501    0  0.00000000000E+00 -0.00000000000E+00 -0.38112580146E+03  0.38112580146E+03  0.00000000000E+00 0. -1.
         23    2    1    2    0    0  0.45437058942E+02 -0.55337391926E+01 -0.74479283197E+02  0.12608182051E+03  0.90853251146E+02 0.  0.
          5    1    1    2  502    0 -0.82678512814E+02 -0.11623669673E+02 -0.22113602343E+03  0.23640951639E+03  0.41800000000E+01 0. -1.
         -5    1    1    2    0  502  0.37241453873E+02  0.17157408866E+02 -0.43916660266E+02  0.60228299116E+02  0.41800000000E+01 0. -1.
        -11    1    3    3    0    0  0.57800345981E+02  0.17005376164E+02 -0.16208146413E+02  0.62392041352E+02  0.00000000000E+00 0.  1.
         11    1    3    3    0    0 -0.12363287039E+02 -0.22539115357E+02 -0.58271136784E+02  0.63689779161E+02  0.00000000000E+00 0. -1.
</event>
<event>
 7    1  0.6988825E-006  0.8118301E+02  0.7561462E-02  0.1325727E+00
         -1   -1    0    0    0  501 -0.00000000000E+00  0.00000000000E+00  0.32288064304E+02  0.32288064304E+02  0.00000000000E+00 0.  1.
          1   -1    0    0  501    0  0.00000000000E+00 -0.00000000000E+00 -0.51420742721E+03  0.51420742721E+03  0.00000000000E+00 0. -1.
         23    2    1    2    0    0 -0.15118259033E+01 -0.84497042374E+01 -0.63473358795E+02  0.10967069500E+03  0.89023092207E+02 0.  0.
          5    1    1    2  502    0  0.56117092809E+01 -0.56957533819E+02 -0.15392230312E+03  0.16427172531E+03  0.41800000000E+01 0.  1.
         -5    1    1    2    0  502 -0.40998833776E+01  0.65407238057E+02 -0.26452370099E+03  0.27255307120E+03  0.41800000000E+01 0.  1.
        -11    1    3    3    0    0  0.16816120743E+02 -0.11979425123E+02  0.17196207218E+02  0.26870022066E+02  0.00000000000E+00 0.  1.
         11    1    3    3    0    0 -0.18327946646E+02  0.35297208855E+01 -0.80669566013E+02  0.82800672936E+02  0.00000000000E+00 0. -1.
</event>
<event>
 7    1  0.6988825E-006  0.1185126E+03  0.7561462E-02  0.1245571E+00
          1   -1    0    0  501    0  0.00000000000E+00  0.00000000000E+00  0.28108514444E+02  0.28108514444E+02  0.00000000000E+00 0. -1.
         -1   -1    0    0    0  501 -0.00000000000E+00 -0.00000000000E+00 -0.57210730292E+03  0.57210730292E+03  0.00000000000E+00 0.  1.
         23    2    1    2    0    0  0.57097034902E+02 -0.32947756143E+02 -0.27708031903E+03  0.29815636028E+03  0.88193457535E+02 0.  0.
          5    1    1    2  502    0 -0.77832068455E+02  0.63523101380E+02 -0.22228696990E+03  0.24397127839E+03  0.41800000000E+01 0. -1.
         -5    1    1    2    0  502  0.20735033553E+02 -0.30575345237E+02 -0.44631499537E+02  0.58088178692E+02  0.41800000000E+01 0. -1.
        -11    1    3    3    0    0  0.93577086779E+00 -0.42343302139E+02 -0.18584351084E+03  0.19060860795E+03  0.00000000000E+00 0.  1.
         11    1    3    3    0    0  0.56161264034E+02  0.93955459962E+01 -0.91236808189E+02  0.10754775233E+03  0.00000000000E+00 0. -1.
</event>
<event>
 7    1  0.6988825E-006  0.1484586E+03  0.7561462E-02  0.1202380E+00
         -1   -1    0    0    0  501 -0.00000000000E+00  0.00000000000E+00  0.98965298941E+02  0.98965298941E+02  0.00000000000E+00 0.  1.
          1   -1    0    0  501    0  0.00000000000E+00 -0.00000000000E+00 -0.28968271281E+03  0.28968271281E+03  0.00000000000E+00 0. -1.
         23    2    1    2    0    0  0.12110658920E+03 -0.43786237734E+02 -0.71844480749E+02  0.17333374377E+03  0.91098390518E+02 0.  0.
          5    1    1    2  502    0 -0.13149808334E+03  0.96547770294E+01 -0.56864957983E+02  0.14365255476E+03  0.41800000000E+01 0. -1.
         -5    1    1    2    0  502  0.10391494147E+02  0.34131460705E+02 -0.62007975139E+02  0.71661713218E+02  0.41800000000E+01 0. -1.
        -11    1    3    3    0    0  0.84227586302E+02 -0.26120865164E+02 -0.92262274813E+02  0.12762802688E+03  0.00000000000E+00 0.  1.
         11    1    3    3    0    0  0.36879002895E+02 -0.17665372570E+02  0.20417794064E+02  0.45705716896E+02  0.00000000000E+00 0. -1.
</event>
<event>
 7    1  0.1628782E-005  0.1175734E+03  0.7561462E-02  0.1247155E+00
         -4   -1    0    0    0  501 -0.00000000000E+00  0.00000000000E+00  0.12527588375E+02  0.12527588375E+02  0.00000000000E+00 0. -1.
          4   -1    0    0  501    0  0.00000000000E+00 -0.00000000000E+00 -0.15495824250E+04  0.15495824250E+04  0.00000000000E+00 0.  1.
         23    2    1    2    0    0 -0.92897899277E+02 -0.23357575483E+02 -0.57714578871E+03  0.58935701980E+03  0.71195781761E+02 0.  0.
          5    1    1    2  502    0  0.41753902138E+02 -0.21968262531E+02 -0.75942274024E+03  0.76089839249E+03  0.41800000000E+01 0. -1.
         -5    1    1    2    0  502  0.51143997139E+02  0.45325838013E+02 -0.20048630769E+03  0.21185460109E+03  0.41800000000E+01 0. -1.
        -11    1    3    3    0    0 -0.25175146918E+02 -0.42094645912E+02 -0.23029664565E+03  0.23546187002E+03  0.00000000000E+00 0.  1.
         11    1    3    3    0    0 -0.67722752359E+02  0.18737070430E+02 -0.34684914306E+03  0.35389514978E+03  0.00000000000E+00 0. -1.
</event>
<event>
 7    1  0.6988825E-006  0.9711261E+02  0.7561462E-02  0.1286488E+00
          2   -1    0    0  501    0  0.00000000000E+00  0.00000000000E+00  0.15704669089E+03  0.15704669089E+03  0.00000000000E+00 0. -1.
         -2   -1    0    0    0  501 -0.00000000000E+00 -0.00000000000E+00 -0.12045954928E+03  0.12045954928E+03  0.00000000000E+00 0.  1.
         23    2    1    2    0    0  0.18285132616E+02 -0.54222307613E+02 -0.46362819959E+02  0.11687591307E+03  0.90752758983E+02 0.  0.
          5    1    1    2  502    0  0.49067286505E+02  0.17211124095E+01  0.15274237491E+02  0.51588133944E+02  0.41800000000E+01 0. -1.
         -5    1    1    2    0  502 -0.67352419121E+02  0.52501195204E+02  0.67675724078E+02  0.10904219316E+03  0.41800000000E+01 0. -1.
        -11    1    3    3    0    0 -0.91600272613E+00 -0.21434643678E+02 -0.69264795981E+02  0.72511343753E+02  0.00000000000E+00 0.  1.
         11    1    3    3    0    0  0.19201135342E+02 -0.32787663935E+02  0.22901976022E+02  0.44364569314E+02  0.00000000000E+00 0. -1.
</event>
<event>
 7    1  0.6988825E-006  0.9867583E+02  0.7561462E-02  0.1283105E+00
          3   -1    0    0  501    0  0.00000000000E+00  0.00000000000E+00  0.21564018701E+03  0.21564018701E+03  0.00000000000E+00 0. -1.
         -3   -1    0    0    0  501 -0.00000000000E+00 -0.00000000000E+00 -0.81888993756E+02  0.81888993756E+02  0.00000000000E+00 0.  1.
         23    2    1    2    0    0 -0.10824633541E+02  0.26099363526E+02 -0.21395257934E+02  0.96242982327E+02  0.89479635211E+02 0.  0.
          5    1    1    2  502    0 -0.33417885945E+02 -0.54627816824E+02  0.42773407725E+02  0.77123214925E+02  0.41800000000E+01 0.  1.
         -5    1    1    2    0  502  0.44242519487E+02  0.28528453298E+02  0.11237304347E+03  0.12416298352E+03  0.41800000000E+01 0.  1.
        -11    1    3    3    0    0  0.18536933034E+02  0.42762767176E+02 -0.36557045644E+02  0.59234193918E+02  0.00000000000E+00 0.  1.
         11    1    3    3    0    0 -0.29361566575E+02 -0.16663403650E+02  0.15161787711E+02  0.37008788410E+02  0.00000000000E+00 0. -1.
</event>
<event>
 7    1  0.6988825E-006  0.1219136E+03  0.7561462E-02  0.1239973E+00
         -2   -1    0    0    0  501 -0.00000000000E+00  0.00000000000E+00  0.24875721306E+02  0.24875721306E+02  0.00000000000E+00 0. -1.
          2   -1    0    0  501    0  0.00000000000E+00 -0.00000000000E+00 -0.98881898087E+03  0.98881898087E+03  0.00000000000E+00 0.  1.
         23    2    1    2    0    0  0.49873524810E+02  0.86197872537E+02 -0.27582366867E+03  0.30724380280E+03  0.91665786733E+02 0.  0.
          5    1    1    2  502    0 -0.34369896352E+02  0.17360369860E+02 -0.35819044828E+03  0.36027842269E+03  0.41800000000E+01 0. -1.
         -5    1    1    2    0  502 -0.15503628458E+02 -0.10355824240E+03 -0.32992914261E+03  0.34617247667E+03  0.41800000000E+01 0. -1.
        -11    1    3    3    0    0  0.36410652094E+02  0.51411804887E+02 -0.25859203583E+03  0.26615550016E+03  0.00000000000E+00 0.  1.
         11    1    3    3    0    0  0.13462872716E+02  0.34786067650E+02 -0.17231632836E+02  0.41088302648E+02  0.00000000000E+00 0. -1.
</event>
<event>
 7    1  0.6988825E-006  0.1213121E+03  0.7561462E-02  0.1240948E+00
          1   -1    0    0  501    0  0.00000000000E+00  0.00000000000E+00  0.46127586878E+03  0.46127586878E+03  0.00000000000E+00 0. -1.
         -1   -1    0    0    0  501 -0.00000000000E+00 -0.00000000000E+00 -0.36755289343E+02  0.36755289343E+02  0.00000000000E+00 0.  1.
         23    2    1    2    0    0  0.35065587242E+02  0.55886839667E+02  0.13243337878E+03  0.17350853372E+03  0.90629339638E+02 0.  0.
          5    1    1    2  502    0  0.32742827866E+01 -0.84021183093E+02  0.12468292374E+03  0.15044462107E+03  0.41800000000E+01 0.  1.
         -5    1    1    2    0  502 -0.38339870028E+02  0.28134343425E+02  0.16740427692E+03  0.17407800333E+03  0.41800000000E+01 0.  1.
        -11    1    3    3    0    0 -0.25864372371E+02 -0.29053393061E+01  0.43676208546E+02  0.50843071776E+02  0.00000000000E+00 0.  1.
         11    1    3    3    0    0  0.60929959613E+02  0.58792178974E+02  0.88757170233E+02  0.12266546195E+03  0.00000000000E+00 0. -1.
</event>
<event>
 7    1  0.6988825E-006  0.1445580E+03  0.7561462E-02  0.1207324E+00
         -1   -1    0    0    0  501 -0.00000000000E+00  0.00000000000E+00  0.51379586299E+03  0.51379586299E+03  0.00000000000E+00 0.  1.
          1   -1    0    0  501    0  0.00000000000E+00 -0.00000000000E+00 -0.43656114193E+02  0.43656114193E+02  0.00000000000E+00 0. -1.
         23    2    1    2    0    0  0.68311812276E+02 -0.51514036796E+02  0.25770586496E+03  0.29649891532E+03  0.11907600207E+03 0.  0.
          5    1    1    2  502    0 -0.59395329708E+02 -0.25790692648E+02  0.14109979204E+03  0.15530482521E+03  0.41800000000E+01 0.  1.
         -5    1    1    2    0  502 -0.89164825673E+01  0.77304729443E+02  0.71334091788E+02  0.10564823665E+03  0.41800000000E+01 0.  1.
        -11    1    3    3    0    0  0.91937729623E+02 -0.70607328568E+02  0.21190561936E+03  0.24154074706E+03  0.00000000000E+00 0.  1.
         11    1    3    3    0    0 -0.23625917347E+02  0.19093291773E+02  0.45800245605E+02  0.54958168261E+02  0.00000000000E+00 0. -1.
</event>
<event>
 7    1  0.6988825E-006  0.1115563E+03  0.7561462E-02  0.1257715E+00
          2   -1    0    0  501    0  0.00000000000E+00  0.00000000000E+00  0.24542804674E+03  0.24542804674E+03  0.00000000000E+00 0. -1.
         -2   -1    0    0    0  501 -0.00000000000E+00 -0.00000000000E+00 -0.61713800199E+02  0.61713800199E+02  0.00000000000E+00 0.  1.
         23    2    1    2    0    0  0.36185345325E+02 -0.16074459665E+02  0.33386848351E+02  0.10760665265E+03  0.94322545463E+02 0.  0.
          5    1    1    2  502    0  0.11069711753E+02 -0.48074926672E+02  0.41549271347E+02  0.64633980554E+02  0.41800000000E+01 0. -1.
         -5    1    1    2    0  502 -0.47255057078E+02  0.64149386337E+02  0.10877812685E+03  0.13490121373E+03  0.41800000000E+01 0. -1.
        -11    1    3    3    0    0  0.46987415300E+02  0.23683416003E+02  0.39715101802E+02  0.65924280059E+02  0.00000000000E+00 0. -1.
         11    1    3    3    0    0 -0.10802069975E+02 -0.39757875668E+02 -0.63282534510E+01  0.41682372595E+02  0.00000000000E+00 0.  1.
</event>
<event>
 7    1  0.6988825E-006  0.1554593E+03  0.7561462E-02  0.1193921E+00
          2   -1    0    0  501    0  0.00000000000E+00  0.00000000000E+00  0.32613036312E+02  0.32613036312E+02  0.00000000000E+00 0. -1.
         -2   -1    0    0    0  501 -0.00000000000E+00 -0.00000000000E+00 -0.90546775128E+03  0.90546775128E+03  0.00000000000E+00 0.  1.
         23    2    1    2    0    0  0.53206482034E+02 -0.11769838305E+03 -0.49066037243E+03  0.51570363528E+03  0.92297341595E+02 0.  0.
          5    1    1    2  502    0  0.29183915439E+02  0.22965769554E+02 -0.18377640364E+03  0.18753764002E+03  0.41800000000E+01 0.  1.
         -5    1    1    2    0  502 -0.82390397473E+02  0.94732613491E+02 -0.19841793890E+03  0.23483951229E+03  0.41800000000E+01 0.  1.
        -11    1    3    3    0    0  0.26438418273E+02  0.79466019211E+00 -0.33526677495E+02  0.42704327058E+02  0.00000000000E+00 0. -1.
         11    1    3    3    0    0  0.26768063760E+02 -0.11849304324E+03 -0.45713369493E+03  0.47299930822E+03  0.00000000000E+00 0.  1.
</event>
<event>
 7    1  0.6988825E-006  0.2372182E+03  0.7561462E-02  0.1121660E+00
         -2   -1    0    0    0  501 -0.00000000000E+00  0.00000000000E+00  0.11084658857E+03  0.11084658857E+03  0.00000000000E+00 0.  1.
          2   -1    0    0  501    0  0.00000000000E+00 -0.00000000000E+00 -0.19014073480E+04  0.19014073480E+04  0.00000000000E+00 0. -1.
         23    2    1    2    0    0 -0.76884708815E+02  0.19906332613E+03 -0.33873245826E+02  0.23389593076E+03  0.89568093577E+02 0.  0.
          5    1    1    2  502    0  0.98284871554E+02 -0.91126880988E+02 -0.13623731848E+04  0.13689566069E+04  0.41800000000E+01 0. -1.
         -5    1    1    2    0  502 -0.21400162739E+02 -0.10793644514E+03 -0.39431432878E+03  0.40940139892E+03  0.41800000000E+01 0.  1.
        -11    1    3    3    0    0 -0.19082448190E+02  0.15841605573E+03 -0.34415492204E+02  0.16323055059E+03  0.00000000000E+00 0. -1.
         11    1    3    3    0    0 -0.57802260625E+02  0.40647270396E+02  0.54224637815E+00  0.70665380174E+02  0.00000000000E+00 0.  1.
</event>
<event>
 7    1  0.6988825E-006  0.8990465E+02  0.7561462E-02  0.1303083E+00
         -1   -1    0    0    0  501 -0.00000000000E+00  0.00000000000E+00  0.46195594370E+03  0.46195594370E+03  0.00000000000E+00 0.  1.
          1   -1    0    0  501    0  0.00000000000E+00 -0.00000000000E+00 -0.26357166839E+02  0.26357166839E+02  0.00000000000E+00 0. -1.
         23    2    1    2    0    0  0.21801519930E+02  0.22465704648E+01  0.24091265920E+03  0.25586508243E+03  0.83352730574E+02 0.  0.
          5    1    1    2  502    0  0.27624396672E+01  0.54416317082E+02  0.46136933949E+02  0.71518219440E+02  0.41800000000E+01 0.  1.
         -5    1    1    2    0  502 -0.24563959597E+02 -0.56662887547E+02  0.14854918371E+03  0.16092980867E+03  0.41800000000E+01 0.  1.
        -11    1    3    3    0    0  0.26096788935E+02 -0.24726419068E+02  0.21576115767E+03  0.21873572034E+03  0.00000000000E+00 0.  1.
         11    1    3    3    0    0 -0.42952690045E+01  0.26972989533E+02  0.25151501530E+02  0.37129362093E+02  0.00000000000E+00 0. -1.
</event>
<event>
 7    1  0.6988825E-006  0.8997409E+02  0.7561462E-02  0.1302914E+00
         -2   -1    0    0    0  501 -0.00000000000E+00  0.00000000000E+00  0.34054408192E+02  0.34054408192E+02  0.00000000000E+00 0.  1.
          2   -1    0    0  501    0  0.00000000000E+00 -0.00000000000E+00 -0.47751786020E+03  0.47751786020E+03  0.00000000000E+00 0. -1.
         23    2    1    2    0    0  0.51525439945E+02  0.54273204484E+01 -0.10821410607E+03  0.15001301734E+03  0.90051573277E+02 0.  0.
          5    1    1    2  502    0 -0.80362721453E+01  0.34501044641E+02 -0.20188372545E+02  0.40987150880E+02  0.41800000000E+01 0.  1.
         -5    1    1    2    0  502 -0.43489167800E+02 -0.39928365089E+02 -0.31506097339E+03  0.32057210018E+03  0.41800000000E+01 0.  1.
        -11    1    3    3    0    0  0.31645494736E+02 -0.30550644652E+02 -0.12317764786E+02  0.45678294135E+02  0.00000000000E+00 0.  1.
         11    1    3    3    0    0  0.19879945209E+02  0.35977965100E+02 -0.95896341285E+02  0.10433472320E+03  0.00000000000E+00 0. -1.
</event>
<event>
 7    1  0.6988825E-006  0.1245013E+03  0.7561462E-02  0.1235851E+00
          1   -1    0    0  501    0  0.00000000000E+00  0.00000000000E+00  0.98505858711E+03  0.98505858711E+03  0.00000000000E+00 0. -1.
         -1   -1    0    0    0  501 -0.00000000000E+00 -0.00000000000E+00 -0.36698947735E+02  0.36698947735E+02  0.00000000000E+00 0.  1.
         23    2    1    2    0    0  0.42086341776E+02  0.63735878779E+02  0.83124387690E+02  0.14617899424E+03  0.92871481741E+02 0.  0.
          5    1    1    2  502    0 -0.67049063999E+02 -0.78156228004E+02  0.60466043778E+03  0.61338054287E+03  0.41800000000E+01 0. -1.
         -5    1    1    2    0  502  0.24962722224E+02  0.14420349225E+02  0.26057481391E+03  0.26219799773E+03  0.41800000000E+01 0.  1.
        -11    1    3    3    0    0  0.35251881576E+02  0.86307191010E+02  0.79081073685E+02  0.12225155455E+03  0.00000000000E+00 0.  1.
         11    1    3    3    0    0  0.68344601991E+01 -0.22571312231E+02  0.40433140048E+01  0.23927439691E+02  0.00000000000E+00 0. -1.
</event>
<event>
 7    1  0.6988825E-006  0.9879412E+02  0.7561462E-02  0.1282852E+00
         -4   -1    0    0    0  501 -0.00000000000E+00  0.00000000000E+00  0.15405086800E+03  0.15405086800E+03  0.00000000000E+00 0.  1.
          4   -1    0    0  501    0  0.00000000000E+00 -0.00000000000E+00 -0.89024736817E+02  0.89024736817E+02  0.00000000000E+00 0. -1.
         23    2    1    2    0    0  0.24638124926E+02 -0.14345202676E+02  0.67119320763E+02  0.11476271588E+03  0.88615211432E+02 0.  0.
          5    1    1    2  502    0 -0.22248034944E+02 -0.46194354168E+02  0.30074488766E+02  0.59588930939E+02  0.41800000000E+01 0.  1.
         -5    1    1    2    0  502 -0.23900899816E+01  0.60539556845E+02 -0.32167678343E+02  0.68723957999E+02  0.41800000000E+01 0.  1.
        -11    1    3    3    0    0  0.45077739926E+02  0.16846273840E+02  0.14483182897E+02  0.50254971555E+02  0.00000000000E+00 0. -1.
         11    1    3    3    0    0 -0.20439615001E+02 -0.31191476517E+02  0.52636137866E+02  0.64507744327E+02  0.00000000000E+00 0.  1.
</event>
<event>
 7    1  0.6988825E-006  0.1492227E+03  0.7561462E-02  0.1201431E+00
         -1   -1    0    0    0  501 -0.00000000000E+00  0.00000000000E+00  0.81026924970E+02  0.81026924970E+02  0.00000000000E+00 0.  1.
          1   -1    0    0  501    0  0.00000000000E+00 -0.00000000000E+00 -0.41158287907E+03  0.41158287907E+03  0.00000000000E+00 0. -1.
         23    2    1    2    0    0 -0.12652723614E+03 -0.66360497600E+02 -0.20442730633E+03  0.26464186071E+03  0.88498213216E+02 0.  0.
          5    1    1    2  502    0  0.11084812270E+03  0.58120851465E+02 -0.15161770022E+03  0.19664877091E+03  0.41800000000E+01 0.  1.
         -5    1    1    2    0  502  0.15679113437E+02  0.82396461352E+01  0.25489052441E+02  0.31319172418E+02  0.41800000000E+01 0.  1.
        -11    1    3    3    0    0 -0.99109723370E+02 -0.77102327540E+02 -0.11420570283E+03  0.16973640958E+03  0.00000000000E+00 0.  1.
         11    1    3    3    0    0 -0.27417512771E+02  0.10741829941E+02 -0.90221603496E+02  0.94905451131E+02  0.00000000000E+00 0. -1.
</event>
<event>
 7    1  0.6988825E-006  0.1057145E+03  0.7561462E-02  0.1268718E+00
         -2   -1    0    0    0  501 -0.00000000000E+00  0.00000000000E+00  0.20858703160E+02  0.20858703160E+02  0.00000000000E+00 0.  1.
          2   -1    0    0  501    0  0.00000000000E+00 -0.00000000000E+00 -0.58062596101E+03  0.58062596101E+03  0.00000000000E+00 0. -1.
         23    2    1    2    0    0 -0.90693229729E+01 -0.35038365147E+01 -0.19822610413E+03  0.21879118510E+03  0.92094868634E+02 0.  0.
          5    1    1    2  502    0 -0.22790219903E+02 -0.54117595183E+02 -0.18961069115E+03  0.19853915189E+03  0.41800000000E+01 0.  1.
         -5    1    1    2    0  502  0.31859542875E+02  0.57621431697E+02 -0.17193046257E+03  0.18415432719E+03  0.41800000000E+01 0.  1.
        -11    1    3    3    0    0  0.38153168587E+02  0.53892935588E+01 -0.50986342711E+02  0.63908652789E+02  0.00000000000E+00 0.  1.
         11    1    3    3    0    0 -0.47222491560E+02 -0.88931300736E+01 -0.14723976142E+03  0.15488253231E+03  0.00000000000E+00 0. -1.
</event>
<event>
 7    1  0.6988825E-006  0.1366980E+03  0.7561462E-02  0.1217842E+00
         -1   -1    0    0    0  501 -0.00000000000E+00  0.00000000000E+00  0.29601009894E+02  0.29601009894E+02  0.00000000000E+00 0.  1.
          1   -1    0    0  501    0  0.00000000000E+00 -0.00000000000E+00 -0.99867698001E+03  0.99867698001E+03  0.00000000000E+00 0. -1.
         23    2    1    2    0    0 -0.65636177381E+02 -0.10529815539E+03 -0.30903816968E+03  0.34512848504E+03  0.90627101660E+02 0.  0.
          5    1    1    2  502    0  0.42362198112E+02  0.65121862838E+02 -0.13322666172E+03  0.15427970911E+03  0.41800000000E+01 0. -1.
         -5    1    1    2    0  502  0.23273979269E+02  0.40176292553E+02 -0.52681113871E+03  0.52886979575E+03  0.41800000000E+01 0. -1.
        -11    1    3    3    0    0  0.53811350911E+01 -0.69021679415E+02 -0.10212121478E+03  0.12337621874E+03  0.00000000000E+00 0.  1.
         11    1    3    3    0    0 -0.71017312472E+02 -0.36276475977E+02 -0.20691695491E+03  0.22175226630E+03  0.00000000000E+00 0. -1.
</event>
<event>
 7    1  0.6988825E-006  0.2204576E+03  0.7561462E-02  0.1133542E+00
         -1   -1    0    0    0  501 -0.00000000000E+00  0.00000000000E+00  0.64424235171E+02  0.64424235171E+02  0.00000000000E+00 0.  1.
          1   -1    0    0  501    0  0.00000000000E+00 -0.00000000000E+00 -0.93871263436E+03  0.93871263436E+03  0.00000000000E+00 0. -1.
         23    2    1    2    0    0  0.18163786664E+03 -0.90042004067E+02 -0.24652849137E+03  0.33169804286E+03  0.90263046072E+02 0.  0.
          5    1    1    2  502    0 -0.92256928954E+02  0.93513492340E+02 -0.24162379448E+03  0.27505571190E+03  0.41800000000E+01 0. -1.
         -5    1    1    2    0  502 -0.89380937685E+02 -0.34714882727E+01 -0.38613611334E+03  0.39638311477E+03  0.41800000000E+01 0. -1.
        -11    1    3    3    0    0  0.15836737632E+03 -0.37897375366E+02 -0.16205207121E+03  0.22973312936E+03  0.00000000000E+00 0.  1.
         11    1    3    3    0    0  0.23270490320E+02 -0.52144628702E+02 -0.84476420160E+02  0.10196491350E+03  0.00000000000E+00 0. -1.
</event>
<event>
 7    1  0.6988825E-006  0.8869630E+02  0.7561462E-02  0.1306040E+00
         -1   -1    0    0    0  501 -0.00000000000E+00  0.00000000000E+00  0.81380507395E+02  0.81380507395E+02  0.00000000000E+00 0.  1.
          1   -1    0    0  501    0  0.00000000000E+00 -0.00000000000E+00 -0.26703828091E+03  0.26703828091E+03  0.00000000000E+00 0. -1.
         23    2    1    2    0    0  0.23929481881E+02 -0.26605539577E+02  0.24065282151E+02  0.10161695265E+03  0.92013001369E+02 0.  0.
          5    1    1    2  502    0 -0.10796489842E+02  0.53327527312E+02 -0.20975272880E+03  0.21673502025E+03  0.41800000000E+01 0. -1.
         -5    1    1    2    0  502 -0.13132992039E+02 -0.26721987735E+02  0.29673134043E-01  0.30066815410E+02  0.41800000000E+01 0. -1.
        -11    1    3    3    0    0 -0.16214952539E+02 -0.45561689279E+02 -0.48997066172E+01  0.48608634425E+02  0.00000000000E+00 0. -1.
         11    1    3    3    0    0  0.40144434419E+02  0.18956149701E+02  0.28964988769E+02  0.53008318222E+02  0.00000000000E+00 0.  1.
</event>
<event>
 7    1  0.6988825E-006  0.5760335E+02  0.7561462E-02  0.1408174E+00
          1   -1    0    0  501    0  0.00000000000E+00  0.00000000000E+00  0.39801199504E+02  0.39801199504E+02  0.00000000000E+00 0. -1.
         -1   -1    0    0    0  501 -0.00000000000E+00 -0.00000000000E+00 -0.39659264567E+03  0.39659264567E+03  0.00000000000E+00 0.  1.
         23    2    1    2    0    0 -0.29922617111E+01  0.19807135895E+01 -0.25117688938E+03  0.26704224748E+03  0.90602733538E+02 0.  0.
          5    1    1    2  502    0 -0.64291557335E+01 -0.93957457140E+01  0.30408196388E+02  0.32737515003E+02  0.41800000000E+01 0. -1.
         -5    1    1    2    0  502  0.94214174446E+01  0.74150321245E+01 -0.13602275318E+03  0.13661408269E+03  0.41800000000E+01 0.  1.
        -11    1    3    3    0    0 -0.38009999859E+02  0.27616268426E+02 -0.14123916243E+03  0.14884864586E+03  0.00000000000E+00 0.  1.
         11    1    3    3    0    0  0.35017738147E+02 -0.25635554837E+02 -0.10993772695E+03  0.11819360162E+03  0.00000000000E+00 0. -1.
</event>
<event>
 7    1  0.6988825E-006  0.1032967E+03  0.7561462E-02  0.1273512E+00
         -2   -1    0    0    0  501 -0.00000000000E+00  0.00000000000E+00  0.70187523319E+02  0.70187523319E+02  0.00000000000E+00 0.  1.
          2   -1    0    0  501    0  0.00000000000E+00 -0.00000000000E+00 -0.11711538802E+04  0.11711538802E+04  0.00000000000E+00 0. -1.
         23    2    1    2    0    0  0.70126493666E+02  0.45247964228E+02  0.74836185977E+01  0.12273791388E+03  0.89685492554E+02 0.  0.
          5    1    1    2  502    0 -0.40735321962E+02 -0.29993689650E+02 -0.10505253074E+04  0.10517508649E+04  0.41800000000E+01 0.  1.
         -5    1    1    2    0  502 -0.29391171704E+02 -0.15254274578E+02 -0.57924668097E+02  0.66852624789E+02  0.41800000000E+01 0.  1.
        -11    1    3    3    0    0  0.13929253341E+02 -0.27324798669E+02  0.34221515291E+01  0.30860652003E+02  0.00000000000E+00 0.  1.
         11    1    3    3    0    0  0.56197240325E+02  0.72572762897E+02  0.40614670686E+01  0.91877261873E+02  0.00000000000E+00 0. -1.
</event>
<event>
 7    1  0.6988825E-006  0.1184559E+03  0.7561462E-02  0.1245666E+00
          3   -1    0    0  501    0  0.00000000000E+00  0.00000000000E+00  0.31566574586E+03  0.31566574586E+03  0.00000000000E+00 0. -1.
         -3   -1    0    0    0  501 -0.00000000000E+00 -0.00000000000E+00 -0.62126276814E+02  0.62126276814E+02  0.00000000000E+00 0.  1.
         23    2    1    2    0    0  0.46626090916E+02 -0.35706714678E+02  0.30137645444E+02  0.11437375754E+03  0.93402981285E+02 0.  0.
          5    1    1    2  502    0 -0.83965523684E+02  0.11283594184E+02  0.94681480018E+02  0.12712035134E+03  0.41800000000E+01 0. -1.
         -5    1    1    2    0  502  0.37339432768E+02  0.24423120494E+02  0.12872034358E+03  0.13629791380E+03  0.41800000000E+01 0.  1.
        -11    1    3    3    0    0  0.70822299899E+02 -0.41914290340E+02  0.34101292231E+02  0.89081446045E+02  0.00000000000E+00 0. -1.
         11    1    3    3    0    0 -0.24196208983E+02  0.62075756620E+01 -0.39636467872E+01  0.25292311492E+02  0.00000000000E+00 0.  1.
</event>
<event>
 7    1  0.6988825E-006  0.8754604E+02  0.7561462E-02  0.1308906E+00
         -2   -1    0    0    0  501 -0.00000000000E+00  0.00000000000E+00  0.41932351014E+03  0.41932351014E+03  0.00000000000E+00 0.  1.
          2   -1    0    0  501    0  0.00000000000E+00 -0.00000000000E+00 -0.33435039348E+02  0.33435039348E+02  0.00000000000E+00 0. -1.
         23    2    1    2    0    0  0.45668442508E+02  0.19402164005E+02  0.21347098792E+03  0.23404118104E+03  0.82117970802E+02 0.  0.
          5    1    1    2  502    0 -0.34745156452E+02  0.29309190376E+02  0.16098761598E+03  0.16733421478E+03  0.41800000000E+01 0. -1.
         -5    1    1    2    0  502 -0.10923286056E+02 -0.48711354381E+02  0.11429866893E+02  0.51383153670E+02  0.41800000000E+01 0. -1.
        -11    1    3    3    0    0  0.60117927059E+02  0.74139892632E+01  0.20440595546E+03  0.21319223020E+03  0.00000000000E+00 0.  1.
         11    1    3    3    0    0 -0.14449484551E+02  0.11988174742E+02  0.90650324596E+01  0.20848950836E+02  0.00000000000E+00 0. -1.
</event>
<event>
 7    1  0.6988825E-006  0.8135882E+02  0.7561462E-02  0.1325239E+00
          2   -1    0    0  501    0  0.00000000000E+00  0.00000000000E+00  0.31465055142E+03  0.31465055142E+03  0.00000000000E+00 0. -1.
         -2   -1    0    0    0  501 -0.00000000000E+00 -0.00000000000E+00 -0.43245941638E+02  0.43245941638E+02  0.00000000000E+00 0.  1.
         23    2    1    2    0    0  0.30707989624E+02  0.69472994364E+01  0.74802092130E+02  0.12275558874E+03  0.92099598177E+02 0.  0.
          5    1    1    2  502    0  0.57973478906E+01 -0.43179497765E+02  0.14870140092E+02  0.46224146679E+02  0.41800000000E+01 0. -1.
         -5    1    1    2    0  502 -0.36505337515E+02  0.36232198329E+02  0.18173237756E+03  0.18891675764E+03  0.41800000000E+01 0. -1.
        -11    1    3    3    0    0  0.23867394386E+02  0.32822765236E+02 -0.27883260270E+01  0.40678756059E+02  0.00000000000E+00 0.  1.
         11    1    3    3    0    0  0.68405952378E+01 -0.25875465799E+02  0.77590418157E+02  0.82076832683E+02  0.00000000000E+00 0. -1.
</event>
<event>
 7    1  0.6988825E-006  0.1216089E+03  0.7561462E-02  0.1240466E+00
         -1   -1    0    0    0  501 -0.00000000000E+00  0.00000000000E+00  0.21311817413E+02  0.21311817413E+02  0.00000000000E+00 0.  1.
          1   -1    0    0  501    0  0.00000000000E+00 -0.00000000000E+00 -0.78645692766E+03  0.78645692766E+03  0.00000000000E+00 0. -1.
         23    2    1    2    0    0  0.18974350367E+02 -0.64433047730E+02 -0.28941839278E+03  0.31130491508E+03  0.92930621769E+02 0.  0.
          5    1    1    2  502    0  0.39937579801E+02  0.61018411278E+02 -0.16941447199E+03  0.18449117192E+03  0.41800000000E+01 0. -1.
         -5    1    1    2    0  502 -0.58911930168E+02  0.34146364521E+01 -0.30631224548E+03  0.31197265808E+03  0.41800000000E+01 0. -1.
        -11    1    3    3    0    0  0.52017527998E+02 -0.56955104442E+02 -0.23364520544E+03  0.24604834721E+03  0.00000000000E+00 0. -1.
         11    1    3    3    0    0 -0.33043177632E+02 -0.74779432882E+01 -0.55773187339E+02  0.65256567867E+02  0.00000000000E+00 0.  1.
</event>
<event>
 7    1  0.6988825E-006  0.9822285E+02  0.7561462E-02  0.1284078E+00
          2   -1    0    0  501    0  0.00000000000E+00  0.00000000000E+00  0.47013488031E+03  0.47013488031E+03  0.00000000000E+00 0. -1.
         -2   -1    0    0    0  501 -0.00000000000E+00 -0.00000000000E+00 -0.28750078071E+02  0.28750078071E+02  0.00000000000E+00 0.  1.
         23    2    1    2    0    0  0.34888977351E+02 -0.19856398993E+02  0.16451943812E+03  0.19243214963E+03  0.91389109701E+02 0.  0.
          5    1    1    2  502    0 -0.20388245333E+02 -0.44386028509E+02  0.49351820299E+02  0.69562020107E+02  0.41800000000E+01 0. -1.
         -5    1    1    2    0  502 -0.14500732018E+02  0.64242427502E+02  0.22751354382E+03  0.23689078864E+03  0.41800000000E+01 0. -1.
        -11    1    3    3    0    0  0.36778758871E+02 -0.43924555867E+02  0.15703138320E+03  0.16715531407E+03  0.00000000000E+00 0. -1.
         11    1    3    3    0    0 -0.18897815195E+01  0.24068156874E+02  0.74880549160E+01  0.25276835560E+02  0.00000000000E+00 0.  1.
</event>
<event>
 7    1  0.6988825E-006  0.1079809E+03  0.7561462E-02  0.1264355E+00
          1   -1    0    0  501    0  0.00000000000E+00  0.00000000000E+00  0.18660689669E+03  0.18660689669E+03  0.00000000000E+00 0. -1.
         -1   -1    0    0    0  501 -0.00000000000E+00 -0.00000000000E+00 -0.21523674184E+03  0.21523674184E+03  0.00000000000E+00 0.  1.
         23    2    1    2    0    0 -0.23228289608E+01  0.69087453718E+02 -0.16732113976E+03  0.20267325403E+03  0.91113183978E+02 0.  0.
          5    1    1    2  502    0  0.51299625485E+01  0.21564748507E+02 -0.10219317023E+02  0.24764121917E+02  0.41800000000E+01 0.  1.
         -5    1    1    2    0  502 -0.28071335877E+01 -0.90652202225E+02  0.14891061164E+03  0.17440626257E+03  0.41800000000E+01 0.  1.
        -11    1    3    3    0    0  0.30853322576E+02  0.61411159908E+01 -0.99576058946E+02  0.10442716282E+03  0.00000000000E+00 0.  1.
         11    1    3    3    0    0 -0.33176151537E+02  0.62946337728E+02 -0.67745080813E+02  0.98246091212E+02  0.00000000000E+00 0. -1.
</event>
<event>
 7    1  0.6988825E-006  0.1147613E+03  0.7561462E-02  0.1251998E+00
          2   -1    0    0  501    0  0.00000000000E+00  0.00000000000E+00  0.10428353945E+04  0.10428353945E+04  0.00000000000E+00 0. -1.
         -2   -1    0    0    0  501 -0.00000000000E+00 -0.00000000000E+00 -0.25218827945E+02  0.25218827945E+02  0.00000000000E+00 0.  1.
         23    2    1    2    0    0 -0.81286807652E+02 -0.25020473340E+02  0.19597018059E+03  0.23259901893E+03  0.92002297484E+02 0.  0.
          5    1    1    2  502    0  0.69729316535E+02 -0.38474139726E+02  0.32627038992E+03  0.33587538872E+03  0.41800000000E+01 0.  1.
         -5    1    1    2    0  502  0.11557491117E+02  0.63494613066E+02  0.49537599609E+03  0.49957981483E+03  0.41800000000E+01 0.  1.
        -11    1    3    3    0    0 -0.29017002106E+02 -0.74744041111E+01  0.99802879027E+00  0.29980813690E+02  0.00000000000E+00 0.  1.
         11    1    3    3    0    0 -0.52269805546E+02 -0.17546069229E+02  0.19497215180E+03  0.20261820524E+03  0.00000000000E+00 0. -1.
</event>
<event>
 7    1  0.6988825E-006  0.1150987E+03  0.7561462E-02  0.1251409E+00
          1   -1    0    0  501    0  0.00000000000E+00  0.00000000000E+00  0.15012776312E+03  0.15012776312E+03  0.00000000000E+00 0. -1.
         -1   -1    0    0    0  501 -0.00000000000E+00 -0.00000000000E+00 -0.92198293276E+02  0.92198293276E+02  0.00000000000E+00 0.  1.
         23    2    1    2    0    0  0.38443608029E+02 -0.44186985078E+02  0.12531701260E+02  0.96939554524E+02  0.76222260831E+02 0.  0.
          5    1    1    2  502    0 -0.25180638059E+01  0.82000132428E+02  0.11268633657E+02  0.82914515424E+02  0.41800000000E+01 0. -1.
         -5    1    1    2    0  502 -0.35925544223E+02 -0.37813147350E+02  0.34129134929E+02  0.62471986452E+02  0.41800000000E+01 0. -1.
        -11    1    3    3    0    0  0.61107239900E+02 -0.38952657430E+02  0.56685978703E+01  0.72687944605E+02  0.00000000000E+00 0.  1.
         11    1    3    3    0    0 -0.22663631871E+02 -0.52343276482E+01  0.68631033899E+01  0.24251609919E+02  0.00000000000E+00 0. -1.
</event>
<event>
 7    1  0.6988825E-006  0.2710411E+03  0.7561462E-02  0.1100685E+00
         -2   -1    0    0    0  501 -0.00000000000E+00  0.00000000000E+00  0.13105998560E+03  0.13105998560E+03  0.00000000000E+00 0.  1.
          2   -1    0    0  501    0  0.00000000000E+00 -0.00000000000E+00 -0.60471792473E+03  0.60471792473E+03  0.00000000000E+00 0. -1.
         23    2    1    2    0    0  0.25484574091E+03  0.18920586265E+02 -0.17358624476E+03  0.32226300304E+03  0.91743765547E+02 0.  0.
          5    1    1    2  502    0 -0.13641149804E+03 -0.54331054561E+02 -0.97958358800E+02  0.17655954448E+03  0.41800000000E+01 0.  1.
         -5    1    1    2    0  502 -0.11843424287E+03  0.35410468297E+02 -0.20211333557E+03  0.23695536281E+03  0.41800000000E+01 0.  1.
        -11    1    3    3    0    0  0.10889410323E+03 -0.37290951827E+02 -0.72083206511E+02  0.13581063827E+03  0.00000000000E+00 0.  1.
         11    1    3    3    0    0  0.14595163768E+03  0.56211538092E+02 -0.10150303825E+03  0.18645236477E+03  0.00000000000E+00 0. -1.
</event>
<event>
 7    1  0.6988825E-006  0.2789888E+03  0.7561462E-02  0.1096243E+00
         -2   -1    0    0    0  501 -0.00000000000E+00  0.00000000000E+00  0.43993454609E+02  0.43993454609E+02  0.00000000000E+00 0.  1.
          2   -1    0    0  501    0  0.00000000000E+00 -0.00000000000E+00 -0.23512540521E+04  0.23512540521E+04  0.00000000000E+00 0. -1.
         23    2    1    2    0    0  0.18203611724E+03 -0.18794256517E+03 -0.56983213285E+03  0.63378075688E+03  0.92248752720E+02 0.  0.
          5    1    1    2  502    0 -0.12212832267E+03  0.47181732941E+02 -0.98153127809E+03  0.99023359132E+03  0.41800000000E+01 0.  1.
         -5    1    1    2    0  502 -0.59907794572E+02  0.14076083223E+03 -0.75589718657E+03  0.77123315853E+03  0.41800000000E+01 0.  1.
        -11    1    3    3    0    0  0.70508930052E+02 -0.21719264406E+02 -0.20131087320E+03  0.21440453198E+03  0.00000000000E+00 0. -1.
         11    1    3    3    0    0  0.11152718719E+03 -0.16622330077E+03 -0.36852125965E+03  0.41937622491E+03  0.00000000000E+00 0.  1.
</event>
<event>
 7    1  0.6988825E-006  0.8781009E+02  0.7561462E-02  0.1308243E+00
         -1   -1    0    0    0  501 -0.00000000000E+00  0.00000000000E+00  0.10808074077E+03  0.10808074077E+03  0.00000000000E+00 0.  1.
          1   -1    0    0  501    0  0.00000000000E+00 -0.00000000000E+00 -0.11068899515E+03  0.11068899515E+03  0.00000000000E+00 0. -1.
         23    2    1    2    0    0 -0.56940381789E+01  0.30290667499E+00  0.57111742044E+01  0.93272057622E+02  0.92922254595E+02 0.  0.
          5    1    1    2  502    0 -0.23377938750E+02 -0.55309788082E+02 -0.16980214118E+02  0.62541991888E+02  0.41800000000E+01 0.  1.
         -5    1    1    2    0  502  0.29071976929E+02  0.55006881407E+02  0.86607855372E+01  0.62955686405E+02  0.41800000000E+01 0.  1.
        -11    1    3    3    0    0  0.63821636602E+01 -0.24588948972E+02 -0.35489179217E+02  0.43644361217E+02  0.00000000000E+00 0. -1.
         11    1    3    3    0    0 -0.12076201839E+02  0.24891855647E+02  0.41200353422E+02  0.49627696405E+02  0.00000000000E+00 0.  1.
</event>
<event>
 7    1  0.6988825E-006  0.1207775E+03  0.7561462E-02  0.1241820E+00
          1   -1    0    0  501    0  0.00000000000E+00  0.00000000000E+00  0.27843019845E+04  0.27843019845E+04  0.00000000000E+00 0. -1.
         -1   -1    0    0    0  501 -0.00000000000E+00 -0.00000000000E+00 -0.12779915915E+02  0.12779915915E+02  0.00000000000E+00 0.  1.
         23    2    1    2    0    0  0.63708652709E+02 -0.71899355504E+02  0.42387912750E+03  0.44414706011E+03  0.91459206856E+02 0.  0.
          5    1    1    2  502    0 -0.43824004819E+02  0.36764911884E+01  0.23640038729E+03  0.24049256849E+03  0.41800000000E+01 0.  1.
         -5    1    1    2    0  502 -0.19884647890E+02  0.68222864315E+02  0.21112425538E+04  0.21124422718E+04  0.41800000000E+01 0.  1.
        -11    1    3    3    0    0  0.14344387636E+02 -0.75356018818E+02  0.18640092218E+03  0.20156784173E+03  0.00000000000E+00 0. -1.
         11    1    3    3    0    0  0.49364265073E+02  0.34566633144E+01  0.23747820532E+03  0.24257921838E+03  0.00000000000E+00 0.  1.
</event>
<event>
 7    1  0.6988825E-006  0.3310069E+03  0.7561462E-02  0.1070692E+00
          1   -1    0    0  501    0  0.00000000000E+00  0.00000000000E+00  0.34366048358E+03  0.34366048358E+03  0.00000000000E+00 0. -1.
         -1   -1    0    0    0  501 -0.00000000000E+00 -0.00000000000E+00 -0.34959610942E+03  0.34959610942E+03  0.00000000000E+00 0.  1.
         23    2    1    2    0    0  0.29835238927E+03 -0.11554433663E+03 -0.79286443513E+02  0.34198398465E+03  0.91115661239E+02 0.  0.
          5    1    1    2  502    0 -0.26579688819E+03  0.66256519503E+02  0.92308106534E+02  0.28909543594E+03  0.41800000000E+01 0. -1.
         -5    1    1    2    0  502 -0.32555501081E+02  0.49287817132E+02 -0.18957288861E+02  0.62177172413E+02  0.41800000000E+01 0. -1.
        -11    1    3    3    0    0  0.47396072915E+02  0.96736112210E+01  0.62347542599E+01  0.48773339464E+02  0.00000000000E+00 0.  1.
         11    1    3    3    0    0  0.25095631635E+03 -0.12521794786E+03 -0.85521197773E+02  0.29321064519E+03  0.00000000000E+00 0. -1.
</event>
<event>
 7    1  0.6988825E-006  0.9001003E+02  0.7561462E-02  0.1302827E+00
          1   -1    0    0  501    0  0.00000000000E+00  0.00000000000E+00  0.37864576264E+03  0.37864576264E+03  0.00000000000E+00 0. -1.
         -1   -1    0    0    0  501 -0.00000000000E+00 -0.00000000000E+00 -0.37707501253E+02  0.37707501253E+02  0.00000000000E+00 0.  1.
         23    2    1    2    0    0  0.33493034730E+02  0.33244868545E+02  0.12649601859E+03  0.16364777612E+03  0.92478901642E+02 0.  0.
          5    1    1    2  502    0 -0.34273034769E+02  0.89330955832E+01  0.16182214578E+01  0.35700590327E+02  0.41800000000E+01 0. -1.
         -5    1    1    2    0  502  0.78000003936E+00 -0.42177964129E+02  0.21282402134E+03  0.21700489745E+03  0.41800000000E+01 0. -1.
        -11    1    3    3    0    0  0.50939942529E+02 -0.12970635871E+02  0.49733798008E+02  0.72364119590E+02  0.00000000000E+00 0.  1.
         11    1    3    3    0    0 -0.17446907799E+02  0.46215504417E+02  0.76762220586E+02  0.91283656530E+02  0.00000000000E+00 0. -1.
</event>
<event>
 7    1  0.6988825E-006  0.9538023E+02  0.7561462E-02  0.1290322E+00
          1   -1    0    0  501    0  0.00000000000E+00  0.00000000000E+00  0.96685769880E+03  0.96685769880E+03  0.00000000000E+00 0. -1.
         -1   -1    0    0    0  501 -0.00000000000E+00 -0.00000000000E+00 -0.18972776162E+02  0.18972776162E+02  0.00000000000E+00 0.  1.
         23    2    1    2    0    0  0.25313716777E+02  0.25854659669E+02  0.19731863077E+03  0.22028160083E+03  0.90995021474E+02 0.  0.
          5    1    1    2  502    0 -0.21537636071E+02 -0.61551639654E+02  0.70188334872E+03  0.70491856389E+03  0.41800000000E+01 0. -1.
         -5    1    1    2    0  502 -0.37760807060E+01  0.35696979986E+02  0.48682943147E+02  0.60630310234E+02  0.41800000000E+01 0.  1.
        -11    1    3    3    0    0 -0.20549717108E+02 -0.16876856488E+02  0.10757618575E+03  0.11081405551E+03  0.00000000000E+00 0.  1.
         11    1    3    3    0    0  0.45863433885E+02  0.42731516157E+02  0.89742445021E+02  0.10946754532E+03  0.00000000000E+00 0. -1.
</event>
<event>
 7    1  0.6988825E-006  0.5815436E+02  0.7561462E-02  0.1405744E+00
         -1   -1    0    0    0  501 -0.00000000000E+00  0.00000000000E+00  0.22974431874E+02  0.22974431874E+02  0.00000000000E+00 0.  1.
          1   -1    0    0  501    0  0.00000000000E+00 -0.00000000000E+00 -0.88761823488E+03  0.88761823488E+03  0.00000000000E+00 0. -1.
         23    2    1    2    0    0 -0.10075181232E+02  0.42960078731E+02 -0.13842880601E+03  0.17236327794E+03  0.92733422265E+02 0.  0.
          5    1    1    2  502    0  0.17906384588E+01  0.47311187112E+01  0.31282358816E+01  0.72696719376E+01  0.41800000000E+01 0.  1.
         -5    1    1    2    0  502  0.82845427732E+01 -0.47691197442E+02 -0.72934323287E+03  0.73095971688E+03  0.41800000000E+01 0.  1.
        -11    1    3    3    0    0 -0.26789847976E+02  0.25377827825E+02 -0.14299345789E+03  0.14767822825E+03  0.00000000000E+00 0. -1.
         11    1    3    3    0    0  0.16714666744E+02  0.17582250906E+02  0.45646518756E+01  0.24685049687E+02  0.00000000000E+00 0.  1.
</event>
<event>
 7    1  0.6988825E-006  0.1030408E+03  0.7561462E-02  0.1274029E+00
          2   -1    0    0  501    0  0.00000000000E+00  0.00000000000E+00  0.18074401290E+03  0.18074401290E+03  0.00000000000E+00 0.  1.
         -2   -1    0    0    0  501 -0.00000000000E+00 -0.00000000000E+00 -0.10441938486E+03  0.10441938486E+03  0.00000000000E+00 0. -1.
         23    2    1    2    0    0  0.18769325731E+02  0.68238427189E+02 -0.11413298403E+02  0.11677872003E+03  0.92185874940E+02 0.  0.
          5    1    1    2  502    0  0.88058847484E+01  0.19977939925E+02  0.70953768483E+02  0.74354363368E+02  0.41800000000E+01 0.  1.
         -5    1    1    2    0  502 -0.27575210479E+02 -0.88216367114E+02  0.16784157962E+02  0.94030314358E+02  0.41800000000E+01 0.  1.
        -11    1    3    3    0    0  0.39472616445E+02  0.38855795779E+02 -0.42056361722E+02  0.69545653177E+02  0.00000000000E+00 0. -1.
         11    1    3    3    0    0 -0.20703290714E+02  0.29382631410E+02  0.30643063319E+02  0.47233066856E+02  0.00000000000E+00 0.  1.
</event>
<event>
 7    1  0.6988825E-006  0.1451271E+03  0.7561462E-02  0.1206592E+00
         -2   -1    0    0    0  501 -0.00000000000E+00  0.00000000000E+00  0.74921213746E+02  0.74921213746E+02  0.00000000000E+00 0.  1.
          2   -1    0    0  501    0  0.00000000000E+00 -0.00000000000E+00 -0.43486659951E+03  0.43486659951E+03  0.00000000000E+00 0. -1.
         23    2    1    2    0    0  0.13999954695E+03  0.34184746602E+02 -0.15922313619E+03  0.23283387280E+03  0.89950737520E+02 0.  0.
          5    1    1    2  502    0 -0.98849059892E+02 -0.16706214044E+02 -0.20849504517E+03  0.23138256307E+03  0.41800000000E+01 0.  1.
         -5    1    1    2    0  502 -0.41150487058E+02 -0.17478532558E+02  0.77727955967E+01  0.45571377387E+02  0.41800000000E+01 0.  1.
        -11    1    3    3    0    0  0.10032502012E+03  0.16909302076E+02 -0.46062297670E+02  0.11168155365E+03  0.00000000000E+00 0.  1.
         11    1    3    3    0    0  0.39674526833E+02  0.17275444526E+02 -0.11316083852E+03  0.12115231916E+03  0.00000000000E+00 0. -1.
</event>
<event>
 7    1  0.6988825E-006  0.1242331E+03  0.7561462E-02  0.1236273E+00
         -1   -1    0    0    0  501 -0.00000000000E+00  0.00000000000E+00  0.32595072897E+02  0.32595072897E+02  0.00000000000E+00 0.  1.
          1   -1    0    0  501    0  0.00000000000E+00 -0.00000000000E+00 -0.64043955454E+03  0.64043955454E+03  0.00000000000E+00 0. -1.
         23    2    1    2    0    0 -0.54373267058E+02 -0.69208007554E+02 -0.17261738335E+03  0.21335517489E+03  0.89316678930E+02 0.  0.
          5    1    1    2  502    0  0.73079482171E+02  0.28947656976E+02 -0.38300649368E+03  0.39101153968E+03  0.41800000000E+01 0. -1.
         -5    1    1    2    0  502 -0.18706215112E+02  0.40260350579E+02 -0.52220604604E+02  0.68667912869E+02  0.41800000000E+01 0.  1.
        -11    1    3    3    0    0 -0.23668045170E+02  0.19892900072E+02 -0.48415047520E+02  0.57444935911E+02  0.00000000000E+00 0. -1.
         11    1    3    3    0    0 -0.30705221888E+02 -0.89100907627E+02 -0.12420233583E+03  0.15591023898E+03  0.00000000000E+00 0.  1.
</event>
<event>
 7    1  0.6988825E-006  0.8551449E+02  0.7561462E-02  0.1314093E+00
          2   -1    0    0  501    0  0.00000000000E+00  0.00000000000E+00  0.39833095588E+03  0.39833095588E+03  0.00000000000E+00 0.  1.
         -2   -1    0    0    0  501 -0.00000000000E+00 -0.00000000000E+00 -0.32149134128E+02  0.32149134128E+02  0.00000000000E+00 0. -1.
         23    2    1    2    0    0 -0.27799194095E+02  0.10033764073E+01  0.13277504463E+03  0.16420125649E+03  0.92515070121E+02 0.  0.
          5    1    1    2  502    0  0.10012884125E+02 -0.36953855048E+02  0.22064453418E+03  0.22398064228E+03  0.41800000000E+01 0.  1.
         -5    1    1    2    0  502  0.17786309970E+02  0.35950478640E+02  0.12762242932E+02  0.42298191232E+02  0.41800000000E+01 0.  1.
        -11    1    3    3    0    0 -0.37752635408E+02  0.38185273803E+02  0.10059846530E+03  0.11403257357E+03  0.00000000000E+00 0.  1.
         11    1    3    3    0    0  0.99534413123E+01 -0.37181897396E+02  0.32176579333E+02  0.50168682916E+02  0.00000000000E+00 0. -1.
</event>
<event>
 7    1  0.6988825E-006  0.1138320E+03  0.7561462E-02  0.1253634E+00
          1   -1    0    0  501    0  0.00000000000E+00  0.00000000000E+00  0.87203658228E+02  0.87203658228E+02  0.00000000000E+00 0. -1.
         -1   -1    0    0    0  501 -0.00000000000E+00 -0.00000000000E+00 -0.15806968545E+03  0.15806968545E+03  0.00000000000E+00 0.  1.
         23    2    1    2    0    0 -0.46337818430E+02  0.10630604012E+01 -0.27710234013E+02  0.10506100826E+03  0.90120113584E+02 0.  0.
          5    1    1    2  502    0  0.56787741449E+01 -0.59624240503E+02 -0.31668460944E+02  0.67879763921E+02  0.41800000000E+01 0.  1.
         -5    1    1    2    0  502  0.40659044285E+02  0.58561180102E+02 -0.11487332263E+02  0.72332571499E+02  0.41800000000E+01 0.  1.
        -11    1    3    3    0    0 -0.36303984486E+02  0.41156188597E+02  0.74143038081E+00  0.54884978532E+02  0.00000000000E+00 0.  1.
         11    1    3    3    0    0 -0.10033833943E+02 -0.40093128196E+02 -0.28451664394E+02  0.50176029724E+02  0.00000000000E+00 0. -1.
</event>
<event>
 7    1  0.1057324E-005  0.4485946E+03  0.7561462E-02  0.1028142E+00
         -1   -1    0    0    0  501 -0.00000000000E+00  0.00000000000E+00  0.73583244884E+02  0.73583244884E+02  0.00000000000E+00 0.  1.
          1   -1    0    0  501    0  0.00000000000E+00 -0.00000000000E+00 -0.27713493069E+04  0.27713493069E+04  0.00000000000E+00 0. -1.
         23    2    1    2    0    0 -0.14687030275E+03 -0.41227368758E+03 -0.13323695599E+04  0.14056633255E+04  0.95604713749E+02 0.  0.
          5    1    1    2  502    0  0.13837164557E+03  0.20323131955E+03 -0.73061846944E+03  0.77088942257E+03  0.41800000000E+01 0.  1.
         -5    1    1    2    0  502  0.84986571843E+01  0.20904236803E+03 -0.63477803269E+03  0.66837980370E+03  0.41800000000E+01 0.  1.
        -11    1    3    3    0    0 -0.91964806785E+02 -0.16660015565E+03 -0.46301488904E+03  0.50059557032E+03  0.00000000000E+00 0.  1.
         11    1    3    3    0    0 -0.54905495966E+02 -0.24567353192E+03 -0.86935467082E+03  0.90506775517E+03  0.00000000000E+00 0. -1.
</event>
<event>
 7    1  0.6988825E-006  0.1303782E+03  0.7561462E-02  0.1226896E+00
         -2   -1    0    0    0  501 -0.00000000000E+00  0.00000000000E+00  0.10911015130E+03  0.10911015130E+03  0.00000000000E+00 0.  1.
          2   -1    0    0  501    0  0.00000000000E+00 -0.00000000000E+00 -0.20725652159E+03  0.20725652159E+03  0.00000000000E+00 0. -1.
         23    2    1    2    0    0  0.29330062782E+02 -0.95483799588E+02 -0.11091508359E+02  0.13414839409E+03  0.88855846807E+02 0.  0.
          5    1    1    2  502    0  0.42541405096E+02  0.69962171528E+02 -0.58299432449E+02  0.10060205175E+03  0.41800000000E+01 0.  1.
         -5    1    1    2    0  502 -0.71871467878E+02  0.25521628061E+02 -0.28755429486E+02  0.81616227055E+02  0.41800000000E+01 0.  1.
        -11    1    3    3    0    0  0.18735874309E+02 -0.25710223153E+02  0.36962988659E+02  0.48767930972E+02  0.00000000000E+00 0.  1.
         11    1    3    3    0    0  0.10594188473E+02 -0.69773576435E+02 -0.48054497019E+02  0.85380463115E+02  0.00000000000E+00 0. -1.
</event>
<event>
 7    1  0.6988825E-006  0.1067044E+03  0.7561462E-02  0.1266797E+00
         -2   -1    0    0    0  501 -0.00000000000E+00  0.00000000000E+00  0.15197088530E+03  0.15197088530E+03  0.00000000000E+00 0.  1.
          2   -1    0    0  501    0  0.00000000000E+00 -0.00000000000E+00 -0.81606881323E+02  0.81606881323E+02  0.00000000000E+00 0. -1.
         23    2    1    2    0    0  0.14987493426E+02 -0.24261718470E+02  0.25354123687E+02  0.97612916694E+02  0.89845389283E+02 0.  0.
          5    1    1    2  502    0  0.41570755893E+02 -0.21236293205E+02 -0.58542445027E+01  0.47231901013E+02  0.41800000000E+01 0.  1.
         -5    1    1    2    0  502 -0.56558249318E+02  0.45498011676E+02  0.50864124795E+02  0.88732948917E+02  0.41800000000E+01 0.  1.
        -11    1    3    3    0    0  0.45862381192E+02  0.10798641162E+02  0.17381712474E+02  0.50220439943E+02  0.00000000000E+00 0. -1.
         11    1    3    3    0    0 -0.30874887766E+02 -0.35060359633E+02  0.79724112129E+01  0.47392476752E+02  0.00000000000E+00 0.  1.
</event>
<event>
 7    1  0.6988825E-006  0.9203102E+02  0.7561462E-02  0.1298007E+00
          1   -1    0    0  501    0  0.00000000000E+00  0.00000000000E+00  0.46913906411E+03  0.46913906411E+03  0.00000000000E+00 0. -1.
         -1   -1    0    0    0  501 -0.00000000000E+00 -0.00000000000E+00 -0.28669620392E+02  0.28669620392E+02  0.00000000000E+00 0.  1.
         23    2    1    2    0    0 -0.36401717673E+02 -0.34578792636E+02  0.17889264192E+03  0.20354510252E+03  0.83109887971E+02 0.  0.
          5    1    1    2  502    0  0.57046050676E+02 -0.17274349972E+02  0.58518512302E+02  0.83633388947E+02  0.41800000000E+01 0. -1.
         -5    1    1    2    0  502 -0.20644333003E+02  0.51853142608E+02  0.20305828949E+03  0.21063019303E+03  0.41800000000E+01 0. -1.
        -11    1    3    3    0    0 -0.34027709810E+02 -0.34693519505E+00  0.16969242145E+02  0.38025788328E+02  0.00000000000E+00 0.  1.
         11    1    3    3    0    0 -0.23740078622E+01 -0.34231857441E+02  0.16192339978E+03  0.16551931420E+03  0.00000000000E+00 0. -1.
</event>
<event>
 7    1  0.6988825E-006  0.1118235E+03  0.7561462E-02  0.1257230E+00
          1   -1    0    0  501    0  0.00000000000E+00  0.00000000000E+00  0.73000753309E+03  0.73000753309E+03  0.00000000000E+00 0. -1.
         -1   -1    0    0    0  501 -0.00000000000E+00 -0.00000000000E+00 -0.20830245724E+02  0.20830245724E+02  0.00000000000E+00 0.  1.
         23    2    1    2    0    0  0.20628505004E+02  0.32752510492E+02  0.16801988225E+03  0.19406440838E+03  0.89062066039E+02 0.  0.
          5    1    1    2  502    0  0.32161335259E+01 -0.77100992533E+02  0.38380241369E+03  0.39150564711E+03  0.41800000000E+01 0.  1.
         -5    1    1    2    0  502 -0.23844638530E+02  0.44348482041E+02  0.15735499143E+03  0.16526772332E+03  0.41800000000E+01 0.  1.
        -11    1    3    3    0    0  0.29526600967E+02  0.60165027725E+02  0.10224649994E+03  0.12225382397E+03  0.00000000000E+00 0.  1.
         11    1    3    3    0    0 -0.88980959621E+01 -0.27412517233E+02  0.65773382310E+02  0.71810584410E+02  0.00000000000E+00 0. -1.
</event>
<event>
 7    1  0.6988825E-006  0.9950400E+02  0.7561462E-02  0.1281342E+00
          1   -1    0    0  501    0  0.00000000000E+00  0.00000000000E+00  0.53199340164E+03  0.53199340164E+03  0.00000000000E+00 0. -1.
         -1   -1    0    0    0  501 -0.00000000000E+00 -0.00000000000E+00 -0.29782916575E+02  0.29782916575E+02  0.00000000000E+00 0.  1.
         23    2    1    2    0    0  0.46044980971E+02  0.38673314049E+02  0.27093449915E+03  0.29205077496E+03  0.90952662589E+02 0.  0.
          5    1    1    2  502    0 -0.82196836331E+02 -0.52500831063E+02  0.14188720101E+03  0.17222690665E+03  0.41800000000E+01 0. -1.
         -5    1    1    2    0  502  0.36151855360E+02  0.13827517014E+02  0.89388784915E+02  0.97498636613E+02  0.41800000000E+01 0. -1.
        -11    1    3    3    0    0  0.14464585485E+02  0.29296469387E+01 -0.20774460095E+01  0.14903786309E+02  0.00000000000E+00 0.  1.
         11    1    3    3    0    0  0.31580395486E+02  0.35743667110E+02  0.27301194516E+03  0.27714698865E+03  0.00000000000E+00 0. -1.
</event>
<event>
 7    1  0.6988825E-006  0.1132979E+03  0.7561462E-02  0.1254582E+00
          2   -1    0    0  501    0  0.00000000000E+00  0.00000000000E+00  0.59844955141E+03  0.59844955141E+03  0.00000000000E+00 0. -1.
         -2   -1    0    0    0  501 -0.00000000000E+00 -0.00000000000E+00 -0.34444769429E+02  0.34444769429E+02  0.00000000000E+00 0.  1.
         23    2    1    2    0    0 -0.75279044008E+02  0.51149400859E+02  0.17673358459E+03  0.21586932939E+03  0.84152312928E+02 0.  0.
          5    1    1    2  502    0  0.82500862727E+02 -0.56489272742E+02  0.15472633646E+03  0.18426921034E+03  0.41800000000E+01 0.  1.
         -5    1    1    2    0  502 -0.72218187195E+01  0.53398718833E+01  0.23254486092E+03  0.23275578111E+03  0.41800000000E+01 0.  1.
        -11    1    3    3    0    0 -0.22540428635E+02  0.59125476637E+02  0.13150495470E+03  0.14593644514E+03  0.00000000000E+00 0.  1.
         11    1    3    3    0    0 -0.52738615373E+02 -0.79760757788E+01  0.45228629893E+02  0.69932884241E+02  0.00000000000E+00 0. -1.
</event>
<event>
 7    1  0.6988825E-006  0.5318576E+02  0.7561462E-02  0.1428879E+00
          1   -1    0    0  501    0  0.00000000000E+00  0.00000000000E+00  0.90142837435E+03  0.90142837435E+03  0.00000000000E+00 0. -1.
         -1   -1    0    0    0  501 -0.00000000000E+00 -0.00000000000E+00 -0.14958491972E+02  0.14958491972E+02  0.00000000000E+00 0.  1.
         23    2    1    2    0    0  0.14571020742E+02  0.34185120494E+02  0.28498787149E+03  0.30091322074E+03  0.89161328010E+02 0.  0.
          5    1    1    2  502    0 -0.17604933809E+02 -0.76689079363E+01  0.77468064351E+01  0.21124186453E+02  0.41800000000E+01 0.  1.
         -5    1    1    2    0  502  0.30339130675E+01 -0.26516212558E+02  0.59373520446E+03  0.59434945913E+03  0.41800000000E+01 0.  1.
        -11    1    3    3    0    0  0.23898592209E+02  0.41473971382E+02  0.28508454963E+03  0.28907513461E+03  0.00000000000E+00 0. -1.
         11    1    3    3    0    0 -0.93275714670E+01 -0.72888508882E+01 -0.96678135174E-01  0.11838086138E+02  0.00000000000E+00 0.  1.
</event>
<event>
 7    1  0.6988825E-006  0.1448035E+03  0.7561462E-02  0.1207008E+00
          1   -1    0    0  501    0  0.00000000000E+00  0.00000000000E+00  0.73303708563E+03  0.73303708563E+03  0.00000000000E+00 0. -1.
         -1   -1    0    0    0  501 -0.00000000000E+00 -0.00000000000E+00 -0.10504526935E+03  0.10504526935E+03  0.00000000000E+00 0.  1.
         23    2    1    2    0    0 -0.51558099002E+02  0.66347987460E+02 -0.53199702478E+02  0.13518329401E+03  0.91564303215E+02 0.  0.
          5    1    1    2  502    0  0.10330024672E+03 -0.48854923241E+02  0.38250494494E+03  0.39923082271E+03  0.41800000000E+01 0. -1.
         -5    1    1    2    0  502 -0.51742147716E+02 -0.17493064219E+02  0.29868657382E+03  0.30366823826E+03  0.41800000000E+01 0.  1.
        -11    1    3    3    0    0 -0.73971094415E+02  0.64235066240E+02 -0.55426718068E+02  0.11256103953E+03  0.00000000000E+00 0.  1.
         11    1    3    3    0    0  0.22412995413E+02  0.21129212199E+01  0.22270155903E+01  0.22622254483E+02  0.00000000000E+00 0. -1.
</event>
<event>
 7    1  0.6988825E-006  0.1219161E+03  0.7561462E-02  0.1239969E+00
         -1   -1    0    0    0  501 -0.00000000000E+00  0.00000000000E+00  0.25586022447E+03  0.25586022447E+03  0.00000000000E+00 0.  1.
          1   -1    0    0  501    0  0.00000000000E+00 -0.00000000000E+00 -0.68579296930E+02  0.68579296930E+02  0.00000000000E+00 0. -1.
         23    2    1    2    0    0 -0.68695294250E+02 -0.30776670674E+02  0.10249134608E+03  0.15561434754E+03  0.89694493861E+02 0.  0.
          5    1    1    2  502    0  0.94184917513E+02  0.56085526531E+02  0.60689129712E+02  0.12536757092E+03  0.41800000000E+01 0.  1.
         -5    1    1    2    0  502 -0.25489623262E+02 -0.25308855857E+02  0.24100451744E+02  0.43457602938E+02  0.41800000000E+01 0.  1.
        -11    1    3    3    0    0 -0.80321914728E+02 -0.31601469732E+02  0.11141257048E+03  0.14093623997E+03  0.00000000000E+00 0.  1.
         11    1    3    3    0    0  0.11626620477E+02  0.82479905727E+00 -0.89212243984E+01  0.14678107575E+02  0.00000000000E+00 0. -1.
</event>
<event>
 7    1  0.6988825E-006  0.9491404E+02  0.7561462E-02  0.1291370E+00
          2   -1    0    0  501    0  0.00000000000E+00  0.00000000000E+00  0.36623191454E+03  0.36623191454E+03  0.00000000000E+00 0. -1.
         -2   -1    0    0    0  501 -0.00000000000E+00 -0.00000000000E+00 -0.52392530397E+02  0.52392530397E+02  0.00000000000E+00 0.  1.
         23    2    1    2    0    0  0.34301763733E+02 -0.20540194860E+02  0.27373747593E+02  0.10349144462E+03  0.91447506537E+02 0.  0.
          5    1    1    2  502    0 -0.26174130194E+02  0.59857052777E+02  0.73713555178E+02  0.98585559163E+02  0.41800000000E+01 0. -1.
         -5    1    1    2    0  502 -0.81276335385E+01 -0.39316857917E+02  0.21275208137E+03  0.21654744115E+03  0.41800000000E+01 0. -1.
        -11    1    3    3    0    0  0.53397222925E+02  0.32474286029E+01  0.43534131431E+02  0.68971224492E+02  0.00000000000E+00 0. -1.
         11    1    3    3    0    0 -0.19095459192E+02 -0.23787623463E+02 -0.16160383837E+02  0.34520220126E+02  0.00000000000E+00 0.  1.
</event>
<event>
 7    1  0.6988825E-006  0.1334563E+03  0.7561462E-02  0.1222416E+00
          2   -1    0    0  501    0  0.00000000000E+00  0.00000000000E+00  0.64341321222E+02  0.64341321222E+02  0.00000000000E+00 0. -1.
         -2   -1    0    0    0  501 -0.00000000000E+00 -0.00000000000E+00 -0.34837832068E+03  0.34837832068E+03  0.00000000000E+00 0.  1.
         23    2    1    2    0    0 -0.61258303882E+02 -0.81550958615E+02 -0.14590942270E+03  0.20028439074E+03  0.91766763566E+02 0.  0.
          5    1    1    2  502    0  0.68373019721E+02  0.94450115049E+02 -0.15210631484E+03  0.19170158443E+03  0.41800000000E+01 0. -1.
         -5    1    1    2    0  502 -0.71147158391E+01 -0.12899156434E+02  0.13978738078E+02  0.20733666739E+02  0.41800000000E+01 0. -1.
        -11    1    3    3    0    0  0.21074377364E+02 -0.32874595500E+01 -0.11260522441E+02  0.24119206812E+02  0.00000000000E+00 0. -1.
         11    1    3    3    0    0 -0.82332681246E+02 -0.78263499065E+02 -0.13464890025E+03  0.17616518392E+03  0.00000000000E+00 0.  1.
</event>
<event>
 7    1  0.6988825E-006  0.1260664E+03  0.7561462E-02  0.1233412E+00
         -1   -1    0    0    0  501 -0.00000000000E+00  0.00000000000E+00  0.63756369263E+02  0.63756369263E+02  0.00000000000E+00 0.  1.
          1   -1    0    0  501    0  0.00000000000E+00 -0.00000000000E+00 -0.43057007812E+03  0.43057007812E+03  0.00000000000E+00 0. -1.
         23    2    1    2    0    0  0.67512771192E+02  0.14915415862E+02 -0.43865170974E+02  0.12544568220E+03  0.95036950986E+02 0.  0.
          5    1    1    2  502    0 -0.92385109164E+02  0.21763143140E+02 -0.30737371545E+03  0.32172148847E+03  0.41800000000E+01 0. -1.
         -5    1    1    2    0  502  0.24872337972E+02 -0.36678559002E+02 -0.15574822435E+02  0.47159276718E+02  0.41800000000E+01 0.  1.
        -11    1    3    3    0    0 -0.21688734285E+02  0.81009347121E+01  0.47408728883E+01  0.23632651435E+02  0.00000000000E+00 0. -1.
         11    1    3    3    0    0  0.89201505477E+02  0.68144811496E+01 -0.48606043862E+02  0.10181303076E+03  0.00000000000E+00 0.  1.
</event>
<event>
 7    1  0.6988825E-006  0.2636901E+03  0.7561462E-02  0.1104946E+00
         -2   -1    0    0    0  501 -0.00000000000E+00  0.00000000000E+00  0.16089739797E+03  0.16089739797E+03  0.00000000000E+00 0.  1.
          2   -1    0    0  501    0  0.00000000000E+00 -0.00000000000E+00 -0.44525064419E+03  0.44525064419E+03  0.00000000000E+00 0. -1.
         23    2    1    2    0    0  0.40916740386E+02  0.23972409430E+03 -0.11549952717E+03  0.28474285482E+03  0.92717482499E+02 0.  0.
          5    1    1    2  502    0  0.19407966291E+02 -0.20019558522E+03 -0.12710489029E+03  0.23796652502E+03  0.41800000000E+01 0. -1.
         -5    1    1    2    0  502 -0.60324706676E+02 -0.39528509088E+02 -0.41748828763E+02  0.83438662318E+02  0.41800000000E+01 0. -1.
        -11    1    3    3    0    0  0.76111843242E+01  0.20742546963E+03 -0.11710422189E+03  0.23832048666E+03  0.00000000000E+00 0. -1.
         11    1    3    3    0    0  0.33305556062E+02  0.32298624672E+02  0.16046947169E+01  0.46422368158E+02  0.00000000000E+00 0.  1.
</event>
<event>
 7    1  0.6988825E-006  0.1355580E+03  0.7561462E-02  0.1219434E+00
          2   -1    0    0  501    0  0.00000000000E+00  0.00000000000E+00  0.15346653379E+03  0.15346653379E+03  0.00000000000E+00 0. -1.
         -2   -1    0    0    0  501 -0.00000000000E+00 -0.00000000000E+00 -0.15172974921E+03  0.15172974921E+03  0.00000000000E+00 0.  1.
         23    2    1    2    0    0  0.46344577356E+02 -0.80166117505E+02 -0.51382765004E+02  0.14074614961E+03  0.92708488520E+02 0.  0.
          5    1    1    2  502    0  0.32916788466E+02  0.65762967516E+02  0.35997792222E+02  0.81985342009E+02  0.41800000000E+01 0. -1.
         -5    1    1    2    0  502 -0.79261365822E+02  0.14403149989E+02  0.17121757362E+02  0.82464791377E+02  0.41800000000E+01 0. -1.
        -11    1    3    3    0    0  0.40715676994E+02 -0.45566532397E+01 -0.50360188810E+02  0.64920551899E+02  0.00000000000E+00 0.  1.
         11    1    3    3    0    0  0.56289003621E+01 -0.75609464265E+02 -0.10225761942E+01  0.75825597708E+02  0.00000000000E+00 0. -1.
</event>
<event>
 7    1  0.6988825E-006  0.1484143E+03  0.7561462E-02  0.1202435E+00
         -2   -1    0    0    0  501 -0.00000000000E+00  0.00000000000E+00  0.21810103161E+02  0.21810103161E+02  0.00000000000E+00 0.  1.
          2   -1    0    0  501    0  0.00000000000E+00 -0.00000000000E+00 -0.11928288828E+04  0.11928288828E+04  0.00000000000E+00 0. -1.
         23    2    1    2    0    0 -0.74321926941E+02 -0.93087930604E+02 -0.55112974941E+03  0.57113977171E+03  0.90925939630E+02 0.  0.
          5    1    1    2  502    0  0.95912675152E+02  0.85846444518E+02 -0.35569454524E+03  0.37829212945E+03  0.41800000000E+01 0. -1.
         -5    1    1    2    0  502 -0.21590748212E+02  0.72414860855E+01 -0.26419448501E+03  0.26520708482E+03  0.41800000000E+01 0. -1.
        -11    1    3    3    0    0 -0.38891528929E+02 -0.10130741392E+03 -0.46774575654E+03  0.48016854947E+03  0.00000000000E+00 0. -1.
         11    1    3    3    0    0 -0.35430398012E+02  0.82194833193E+01 -0.83383992871E+02  0.90971222243E+02  0.00000000000E+00 0.  1.
</event>
<event>
 7    1  0.6988825E-006  0.1165599E+03  0.7561462E-02  0.1248882E+00
         -2   -1    0    0    0  501 -0.00000000000E+00  0.00000000000E+00  0.41800989134E+03  0.41800989134E+03  0.00000000000E+00 0.  1.
          2   -1    0    0  501    0  0.00000000000E+00 -0.00000000000E+00 -0.37922546136E+02  0.37922546136E+02  0.00000000000E+00 0. -1.
         23    2    1    2    0    0 -0.46065554788E+02  0.21318176897E+02  0.24352940370E+03  0.26391059850E+03  0.88123399453E+02 0.  0.
          5    1    1    2  502    0 -0.33336532542E+02 -0.40504148622E+02  0.44919931708E+02  0.69189472626E+02  0.41800000000E+01 0. -1.
         -5    1    1    2    0  502  0.79402087330E+02  0.19185971725E+02  0.91638009793E+02  0.12283236635E+03  0.41800000000E+01 0. -1.
        -11    1    3    3    0    0  0.25125702153E+02  0.70206665344E+01  0.95970990676E+02  0.99453615916E+02  0.00000000000E+00 0.  1.
         11    1    3    3    0    0 -0.71191256941E+02  0.14297510362E+02  0.14755841302E+03  0.16445698259E+03  0.00000000000E+00 0. -1.
</event>
<event>
 7    1  0.6988825E-006  0.1022181E+03  0.7561462E-02  0.1275700E+00
          1   -1    0    0  501    0  0.00000000000E+00  0.00000000000E+00  0.72823990242E+03  0.72823990242E+03  0.00000000000E+00 0. -1.
         -1   -1    0    0    0  501 -0.00000000000E+00 -0.00000000000E+00 -0.22882996546E+02  0.22882996546E+02  0.00000000000E+00 0.  1.
         23    2    1    2    0    0 -0.25969987349E+02 -0.31599195343E+02  0.14928365360E+03  0.17968696338E+03  0.91262512502E+02 0.  0.
          5    1    1    2  502    0  0.49494728706E+02 -0.16475739489E+02  0.44502828939E+03  0.44809466513E+03  0.41800000000E+01 0.  1.
         -5    1    1    2    0  502 -0.23524741357E+02  0.48074934832E+02  0.11104496289E+03  0.12334127046E+03  0.41800000000E+01 0.  1.
        -11    1    3    3    0    0  0.32752071872E+02 -0.20553389002E+02  0.74753667254E+02  0.84162050707E+02  0.00000000000E+00 0. -1.
         11    1    3    3    0    0 -0.58722059221E+02 -0.11045806341E+02  0.74529986349E+02  0.95524912677E+02  0.00000000000E+00 0.  1.
</event>
<event>
 7    1  0.6988825E-006  0.1392768E+03  0.7561462E-02  0.1214305E+00
         -2   -1    0    0    0  501 -0.00000000000E+00  0.00000000000E+00  0.36081935621E+03  0.36081935621E+03  0.00000000000E+00 0.  1.
          2   -1    0    0  501    0  0.00000000000E+00 -0.00000000000E+00 -0.13731727251E+03  0.13731727251E+03  0.00000000000E+00 0. -1.
         23    2    1    2    0    0  0.37284242699E+02  0.12964144730E+03  0.26555583949E+03  0.30942180474E+03  0.83814854011E+02 0.  0.
          5    1    1    2  502    0 -0.19472197001E+02 -0.12234236918E+03 -0.78900008278E+02  0.14693367708E+03  0.41800000000E+01 0. -1.
         -5    1    1    2    0  502 -0.17812045698E+02 -0.72990781156E+01  0.36846252495E+02  0.41781146899E+02  0.41800000000E+01 0. -1.
        -11    1    3    3    0    0  0.34247520152E+02  0.11771309683E+03  0.26984460476E+03  0.29638720707E+03  0.00000000000E+00 0.  1.
         11    1    3    3    0    0  0.30367225466E+01  0.11928350471E+02 -0.42887652707E+01  0.13034597666E+02  0.00000000000E+00 0. -1.
</event>
<event>
 7    1  0.6988825E-006  0.1086965E+03  0.7561462E-02  0.1263003E+00
          1   -1    0    0  501    0  0.00000000000E+00  0.00000000000E+00  0.44946260565E+04  0.44946260565E+04  0.00000000000E+00 0. -1.
         -1   -1    0    0    0  501 -0.00000000000E+00 -0.00000000000E+00 -0.18590185959E+02  0.18590185959E+02  0.00000000000E+00 0.  1.
         23    2    1    2    0    0 -0.22532760439E+02 -0.39338100492E+02  0.12817738690E+03  0.16346988960E+03  0.90762056238E+02 0.  0.
          5    1    1    2  502    0 -0.22387731403E+02 -0.34300432661E+02  0.12129437950E+04  0.12136423906E+04  0.41800000000E+01 0. -1.
         -5    1    1    2    0  502  0.44920491841E+02  0.73638533153E+02  0.31349146887E+04  0.31361039622E+04  0.41800000000E+01 0.  1.
        -11    1    3    3    0    0 -0.28995414895E+02 -0.60846735368E+02  0.55219522524E+02  0.87133546683E+02  0.00000000000E+00 0.  1.
         11    1    3    3    0    0  0.64626544568E+01  0.21508634876E+02  0.72957864372E+02  0.76336342921E+02  0.00000000000E+00 0. -1.
</event>
<event>
 7    1  0.6988825E-006  0.1758959E+03  0.7561462E-02  0.1171835E+00
          1   -1    0    0  501    0  0.00000000000E+00  0.00000000000E+00  0.10027423004E+03  0.10027423004E+03  0.00000000000E+00 0. -1.
         -1   -1    0    0    0  501 -0.00000000000E+00 -0.00000000000E+00 -0.36490786187E+03  0.36490786187E+03  0.00000000000E+00 0.  1.
         23    2    1    2    0    0  0.61207443387E+01  0.15633587776E+03 -0.14549098872E+03  0.23210956146E+03  0.90713011939E+02 0.  0.
          5    1    1    2  502    0  0.46968271419E+02 -0.12298510029E+03 -0.10553983901E+03  0.16878235522E+03  0.41800000000E+01 0.  1.
         -5    1    1    2    0  502 -0.53089015758E+02 -0.33350777473E+02 -0.13602804107E+02  0.64290175236E+02  0.41800000000E+01 0.  1.
        -11    1    3    3    0    0  0.70461732751E+01  0.27040658400E+02  0.10184002171E+02  0.29741547787E+02  0.00000000000E+00 0. -1.
         11    1    3    3    0    0 -0.92542893637E+00  0.12929521936E+03 -0.15567499089E+03  0.20236801367E+03  0.00000000000E+00 0.  1.
</event>
<event>
 7    1  0.6988825E-006  0.1042623E+03  0.7561462E-02  0.1271580E+00
          1   -1    0    0  501    0  0.00000000000E+00  0.00000000000E+00  0.19957919748E+03  0.19957919748E+03  0.00000000000E+00 0. -1.
         -1   -1    0    0    0  501 -0.00000000000E+00 -0.00000000000E+00 -0.12481003804E+03  0.12481003804E+03  0.00000000000E+00 0.  1.
         23    2    1    2    0    0  0.41164682826E+02 -0.77908780482E+02 -0.40128204654E+02  0.13305261048E+03  0.91260150996E+02 0.  0.
          5    1    1    2  502    0 -0.38503527749E+02  0.51920817519E+02 -0.83237732390E+01  0.65307354424E+02  0.41800000000E+01 0.  1.
         -5    1    1    2    0  502 -0.26611550771E+01  0.25987962963E+02  0.12322113733E+03  0.12602927061E+03  0.41800000000E+01 0.  1.
        -11    1    3    3    0    0  0.64203361436E+02 -0.62328872005E+02 -0.69380655507E+01  0.89750190299E+02  0.00000000000E+00 0. -1.
         11    1    3    3    0    0 -0.23038678610E+02 -0.15579908477E+02 -0.33190139103E+02  0.43302420186E+02  0.00000000000E+00 0.  1.
</event>
<event>
 7    1  0.6988825E-006  0.9342965E+02  0.7561462E-02  0.1294753E+00
          2   -1    0    0  501    0  0.00000000000E+00  0.00000000000E+00  0.28044061230E+03  0.28044061230E+03  0.00000000000E+00 0. -1.
         -2   -1    0    0    0  501 -0.00000000000E+00 -0.00000000000E+00 -0.57680335432E+02  0.57680335432E+02  0.00000000000E+00 0.  1.
         23    2    1    2    0    0  0.15885244888E+02  0.46382638867E+02 -0.88063643703E+00  0.77223893193E+02  0.59657891062E+02 0.  0.
          5    1    1    2  502    0  0.37467746697E+02 -0.42368024244E+02  0.39546162906E+02  0.69139373164E+02  0.41800000000E+01 0.  1.
         -5    1    1    2    0  502 -0.53352991585E+02 -0.40146146224E+01  0.18409475040E+03  0.19175768137E+03  0.41800000000E+01 0.  1.
        -11    1    3    3    0    0  0.37733884512E+02  0.36504341133E+02 -0.55547458387E+01  0.52794584602E+02  0.00000000000E+00 0.  1.
         11    1    3    3    0    0 -0.21848639624E+02  0.98782977337E+01  0.46741094016E+01  0.24429308591E+02  0.00000000000E+00 0. -1.
</event>
<event>
 7    1  0.6988825E-006  0.8007963E+02  0.7561462E-02  0.1328826E+00
          1   -1    0    0  501    0  0.00000000000E+00  0.00000000000E+00  0.99937311115E+02  0.99937311115E+02  0.00000000000E+00 0. -1.
         -1   -1    0    0    0  501 -0.00000000000E+00 -0.00000000000E+00 -0.15525955879E+03  0.15525955879E+03  0.00000000000E+00 0.  1.
         23    2    1    2    0    0  0.54819060346E+02  0.16383186155E+02 -0.41548727093E+02  0.11695343809E+03  0.93157242293E+02 0.  0.
          5    1    1    2  502    0 -0.96242623939E+01  0.20064327336E+02  0.48178899360E+02  0.53234222091E+02  0.41800000000E+01 0.  1.
         -5    1    1    2    0  502 -0.45194797952E+02 -0.36447513491E+02 -0.61952419938E+02  0.85009209724E+02  0.41800000000E+01 0.  1.
        -11    1    3    3    0    0  0.16008319577E+02  0.33316153234E+02 -0.60233491008E+02  0.70670402581E+02  0.00000000000E+00 0.  1.
         11    1    3    3    0    0  0.38810740769E+02 -0.16932967080E+02  0.18684763915E+02  0.46283035506E+02  0.00000000000E+00 0. -1.
</event>
<event>
 7    1  0.6988825E-006  0.1406389E+03  0.7561462E-02  0.1212472E+00
         -2   -1    0    0    0  501 -0.00000000000E+00  0.00000000000E+00  0.16822429576E+03  0.16822429576E+03  0.00000000000E+00 0.  1.
          2   -1    0    0  501    0  0.00000000000E+00 -0.00000000000E+00 -0.12578101724E+03  0.12578101724E+03  0.00000000000E+00 0. -1.
         23    2    1    2    0    0  0.62107160752E+02  0.70429887553E+02  0.31238834788E+02  0.13717036135E+03  0.94985129141E+02 0.  0.
          5    1    1    2  502    0  0.27503663591E+02  0.94839964519E+01  0.21259047286E+02  0.36274194562E+02  0.41800000000E+01 0. -1.
         -5    1    1    2    0  502 -0.89610824342E+02 -0.79913884005E+02 -0.10054603549E+02  0.12056075708E+03  0.41800000000E+01 0. -1.
        -11    1    3    3    0    0  0.53621918040E+02  0.93156147549E+02  0.34046168501E+02  0.11274980936E+03  0.00000000000E+00 0.  1.
         11    1    3    3    0    0  0.84852427123E+01 -0.22726259996E+02 -0.28073337129E+01  0.24420551998E+02  0.00000000000E+00 0. -1.
</event>
<event>
 7    1  0.6988825E-006  0.8713182E+02  0.7561462E-02  0.1309950E+00
         -1   -1    0    0    0  501 -0.00000000000E+00  0.00000000000E+00  0.11713017549E+03  0.11713017549E+03  0.00000000000E+00 0.  1.
          1   -1    0    0  501    0  0.00000000000E+00 -0.00000000000E+00 -0.12346196342E+03  0.12346196342E+03  0.00000000000E+00 0. -1.
         23    2    1    2    0    0 -0.85779361582E+01 -0.29795576674E+02  0.39420686134E+02  0.10383064935E+03  0.90914552582E+02 0.  0.
          5    1    1    2  502    0 -0.20185260398E+02 -0.32920037864E+02  0.17925222150E+02  0.42778027297E+02  0.41800000000E+01 0.  1.
         -5    1    1    2    0  502  0.28763196556E+02  0.62715614538E+02 -0.63677696212E+02  0.93983462257E+02  0.41800000000E+01 0.  1.
        -11    1    3    3    0    0  0.37715529671E+01 -0.45872003479E+02  0.59548870992E+02  0.75263094219E+02  0.00000000000E+00 0.  1.
         11    1    3    3    0    0 -0.12349489125E+02  0.16076426806E+02 -0.20128184858E+02  0.28567555131E+02  0.00000000000E+00 0. -1.
</event>
<event>
 7    1  0.6988825E-006  0.2081971E+03  0.7561462E-02  0.1143002E+00
          2   -1    0    0  501    0  0.00000000000E+00  0.00000000000E+00  0.57982842402E+03  0.57982842402E+03  0.00000000000E+00 0.  1.
         -2   -1    0    0    0  501 -0.00000000000E+00 -0.00000000000E+00 -0.16738845183E+03  0.16738845183E+03  0.00000000000E+00 0. -1.
         23    2    1    2    0    0 -0.17834345502E+03 -0.75878395865E+02 -0.58765910510E+02  0.22257781063E+03  0.92322969187E+02 0.  0.
          5    1    1    2  502    0  0.47693877259E+02  0.61034470655E+02  0.77988202129E+02  0.10999793001E+03  0.41800000000E+01 0. -1.
         -5    1    1    2    0  502  0.13064957776E+03  0.14843925211E+02  0.39321768057E+03  0.41464113520E+03  0.41800000000E+01 0. -1.
        -11    1    3    3    0    0 -0.89303675119E+02 -0.77452952152E+02 -0.61961883699E+02  0.13346677946E+03  0.00000000000E+00 0. -1.
         11    1    3    3    0    0 -0.89039779900E+02  0.15745562870E+01  0.31959731898E+01  0.89111031173E+02  0.00000000000E+00 0.  1.
</event>
<event>
 7    1  0.6988825E-006  0.1158707E+03  0.7561462E-02  0.1250069E+00
         -1   -1    0    0    0  501 -0.00000000000E+00  0.00000000000E+00  0.23437551157E+03  0.23437551157E+03  0.00000000000E+00 0.  1.
          1   -1    0    0  501    0  0.00000000000E+00 -0.00000000000E+00 -0.20325273029E+03  0.20325273029E+03  0.00000000000E+00 0. -1.
         23    2    1    2    0    0  0.43516571832E+01 -0.71814579967E+02  0.19091979321E+03  0.22107678506E+03  0.85136987494E+02 0.  0.
          5    1    1    2  502    0 -0.20083158945E+02  0.10607812232E+03 -0.12278895600E+03  0.16355580523E+03  0.41800000000E+01 0. -1.
         -5    1    1    2    0  502  0.15731501762E+02 -0.34263542354E+02 -0.37008055921E+02  0.52995651571E+02  0.41800000000E+01 0.  1.
        -11    1    3    3    0    0  0.24021677699E+02 -0.23524776312E+02  0.13632810894E+02  0.36280981697E+02  0.00000000000E+00 0. -1.
         11    1    3    3    0    0 -0.19670020516E+02 -0.48289803655E+02  0.17728698231E+03  0.18479580337E+03  0.00000000000E+00 0.  1.
</event>
<event>
 7    1  0.6988825E-006  0.8947810E+02  0.7561462E-02  0.1304120E+00
          2   -1    0    0  501    0  0.00000000000E+00  0.00000000000E+00  0.81963796512E+03  0.81963796512E+03  0.00000000000E+00 0.  1.
         -2   -1    0    0    0  501 -0.00000000000E+00 -0.00000000000E+00 -0.19903909376E+02  0.19903909376E+02  0.00000000000E+00 0. -1.
         23    2    1    2    0    0 -0.61488928762E+02 -0.16534527288E+02  0.31167572961E+03  0.33170010514E+03  0.93962334852E+02 0.  0.
          5    1    1    2  502    0  0.44858352685E+02  0.27477321594E+02  0.48428651093E+03  0.48715313001E+03  0.41800000000E+01 0.  1.
         -5    1    1    2    0  502  0.16630576077E+02 -0.10942794306E+02  0.37718151990E+01  0.20688639341E+02  0.41800000000E+01 0.  1.
        -11    1    3    3    0    0 -0.69633894298E+01 -0.44169356010E+02  0.19409009546E+03  0.19917426028E+03  0.00000000000E+00 0.  1.
         11    1    3    3    0    0 -0.54525539333E+02  0.27634828722E+02  0.11758563415E+03  0.13252584487E+03  0.00000000000E+00 0. -1.
</event>
<event>
 7    1  0.6988825E-006  0.8408059E+02  0.7561462E-02  0.1317855E+00
          2   -1    0    0  501    0  0.00000000000E+00  0.00000000000E+00  0.18828588586E+03  0.18828588586E+03  0.00000000000E+00 0. -1.
         -2   -1    0    0    0  501 -0.00000000000E+00 -0.00000000000E+00 -0.84331736406E+02  0.84331736406E+02  0.00000000000E+00 0.  1.
         23    2    1    2    0    0  0.25774204601E+02  0.31910104219E+02 -0.71909859884E+01  0.10032832174E+03  0.91277037031E+02 0.  0.
          5    1    1    2  502    0 -0.25343125640E+02 -0.76147364476E+02  0.96326763250E+02  0.12544725127E+03  0.41800000000E+01 0.  1.
         -5    1    1    2    0  502 -0.43107896179E+00  0.44237260256E+02  0.14818372194E+02  0.46842049257E+02  0.41800000000E+01 0.  1.
        -11    1    3    3    0    0  0.18229464405E+02  0.11381059443E+02 -0.48799283468E+02  0.53321777479E+02  0.00000000000E+00 0.  1.
         11    1    3    3    0    0  0.75447401966E+01  0.20529044776E+02  0.41608297479E+02  0.47006544259E+02  0.00000000000E+00 0. -1.
</event>
<event>
 7    1  0.6988825E-006  0.1263188E+03  0.7561462E-02  0.1233022E+00
          2   -1    0    0  501    0  0.00000000000E+00  0.00000000000E+00  0.26221246989E+03  0.26221246989E+03  0.00000000000E+00 0. -1.
         -2   -1    0    0    0  501 -0.00000000000E+00 -0.00000000000E+00 -0.69216560474E+02  0.69216560474E+02  0.00000000000E+00 0.  1.
         23    2    1    2    0    0 -0.60870724211E+02 -0.42520888158E+02  0.52365655754E+02  0.12909879959E+03  0.91711870315E+02 0.  0.
          5    1    1    2  502    0  0.44949137574E+02 -0.38953201202E+02  0.78389721831E+02  0.98489581892E+02  0.41800000000E+01 0. -1.
         -5    1    1    2    0  502  0.15921586637E+02  0.81474089360E+02  0.62240531827E+02  0.10384064888E+03  0.41800000000E+01 0. -1.
        -11    1    3    3    0    0 -0.81084216984E+02 -0.35163185910E+02  0.59376956086E+02  0.10647404755E+03  0.00000000000E+00 0. -1.
         11    1    3    3    0    0  0.20213492773E+02 -0.73577022477E+01 -0.70113003322E+01  0.22624752039E+02  0.00000000000E+00 0.  1.
</event>
<event>
 7    1  0.6988825E-006  0.1586062E+03  0.7561462E-02  0.1190279E+00
          1   -1    0    0  501    0  0.00000000000E+00  0.00000000000E+00  0.86760169194E+03  0.86760169194E+03  0.00000000000E+00 0. -1.
         -1   -1    0    0    0  501 -0.00000000000E+00 -0.00000000000E+00 -0.42483784039E+02  0.42483784039E+02  0.00000000000E+00 0.  1.
         23    2    1    2    0    0  0.58656368417E+02 -0.13329909873E+03  0.24652527312E+03  0.30047339980E+03  0.91106171159E+02 0.  0.
          5    1    1    2  502    0 -0.82057601412E+02  0.96171587519E+02  0.27329570696E+03  0.30114853484E+03  0.41800000000E+01 0.  1.
         -5    1    1    2    0  502  0.23401232995E+02  0.37127511215E+02  0.30529692782E+03  0.30846354133E+03  0.41800000000E+01 0.  1.
        -11    1    3    3    0    0  0.50211843554E+02 -0.12537484179E+03  0.25330091637E+03  0.28705650040E+03  0.00000000000E+00 0. -1.
         11    1    3    3    0    0  0.84445248636E+01 -0.79242569409E+01 -0.67756432478E+01  0.13416899406E+02  0.00000000000E+00 0.  1.
</event>
<event>
 7    1  0.6988825E-006  0.1475366E+03  0.7561462E-02  0.1203533E+00
         -2   -1    0    0    0  501 -0.00000000000E+00  0.00000000000E+00  0.24786733551E+02  0.24786733551E+02  0.00000000000E+00 0. -1.
          2   -1    0    0  501    0  0.00000000000E+00 -0.00000000000E+00 -0.13594845880E+04  0.13594845880E+04  0.00000000000E+00 0.  1.
         23    2    1    2    0    0  0.84204680176E+02  0.67262222325E+02 -0.25156221290E+03  0.28862086683E+03  0.91672368220E+02 0.  0.
          5    1    1    2  502    0 -0.62228360589E+02  0.18596221999E+02 -0.66663543696E+03  0.66980479734E+03  0.41800000000E+01 0.  1.
         -5    1    1    2    0  502 -0.21976319587E+02 -0.85858444324E+02 -0.41650020455E+03  0.42584565734E+03  0.41800000000E+01 0.  1.
        -11    1    3    3    0    0  0.13530696173E+02  0.69254804241E+02 -0.11760839067E+03  0.13715334923E+03  0.00000000000E+00 0. -1.
         11    1    3    3    0    0  0.70673984003E+02 -0.19925819163E+01 -0.13395382223E+03  0.15146751760E+03  0.00000000000E+00 0.  1.
</event>
<event>
 7    1  0.6988825E-006  0.1391360E+03  0.7561462E-02  0.1214496E+00
          2   -1    0    0  501    0  0.00000000000E+00  0.00000000000E+00  0.87816920296E+03  0.87816920296E+03  0.00000000000E+00 0. -1.
         -2   -1    0    0    0  501 -0.00000000000E+00 -0.00000000000E+00 -0.28854211426E+02  0.28854211426E+02  0.00000000000E+00 0.  1.
         23    2    1    2    0    0  0.77541672337E+02  0.70060381468E+02  0.24881979657E+03  0.28480075971E+03  0.90989084888E+02 0.  0.
          5    1    1    2  502    0 -0.10009767937E+03 -0.35281300402E+02  0.28799756310E+03  0.30695990671E+03  0.41800000000E+01 0. -1.
         -5    1    1    2    0  502  0.22556007036E+02 -0.34779081065E+02  0.31249763187E+03  0.31526274797E+03  0.41800000000E+01 0. -1.
        -11    1    3    3    0    0  0.22604906144E+02 -0.16419542673E+02  0.10207193266E+03  0.10582656850E+03  0.00000000000E+00 0.  1.
         11    1    3    3    0    0  0.54936766193E+02  0.86479924140E+02  0.14674786391E+03  0.17897419121E+03  0.00000000000E+00 0. -1.
</event>
<event>
 7    1  0.6988825E-006  0.1022694E+03  0.7561462E-02  0.1275595E+00
          2   -1    0    0  501    0  0.00000000000E+00  0.00000000000E+00  0.44095097296E+02  0.44095097296E+02  0.00000000000E+00 0.  1.
         -2   -1    0    0    0  501 -0.00000000000E+00 -0.00000000000E+00 -0.45297628190E+03  0.45297628190E+03  0.00000000000E+00 0. -1.
         23    2    1    2    0    0  0.61290540219E+02 -0.63615996808E+02 -0.22254245060E+03  0.25587751965E+03  0.90247644715E+02 0.  0.
          5    1    1    2  502    0 -0.13974101387E+02  0.41306427168E+02 -0.18348028159E+03  0.18863717175E+03  0.41800000000E+01 0. -1.
         -5    1    1    2    0  502 -0.47316438833E+02  0.22309569639E+02 -0.28584524211E+01  0.52556687791E+02  0.41800000000E+01 0. -1.
        -11    1    3    3    0    0  0.55444039568E+01  0.12635189512E+02  0.34423908089E+00  0.13802424779E+02  0.00000000000E+00 0.  1.
         11    1    3    3    0    0  0.55746136263E+02 -0.76251186320E+02 -0.22288668968E+03  0.24207509487E+03  0.00000000000E+00 0. -1.
</event>
<event>
 7    1  0.6988825E-006  0.1201976E+03  0.7561462E-02  0.1242771E+00
         -1   -1    0    0    0  501 -0.00000000000E+00  0.00000000000E+00  0.33202451910E+02  0.33202451910E+02  0.00000000000E+00 0.  1.
          1   -1    0    0  501    0  0.00000000000E+00 -0.00000000000E+00 -0.67431221083E+03  0.67431221083E+03  0.00000000000E+00 0. -1.
         23    2    1    2    0    0  0.88106337574E+02 -0.12249663581E+02 -0.17451677727E+03  0.21632304232E+03  0.91797451531E+02 0.  0.
          5    1    1    2  502    0  0.15490149618E+02 -0.33439814707E+02 -0.16244575102E+03  0.16662610950E+03  0.41800000000E+01 0.  1.
         -5    1    1    2    0  502 -0.10359648719E+03  0.45689478289E+02 -0.30414723063E+03  0.32456551093E+03  0.41800000000E+01 0.  1.
        -11    1    3    3    0    0  0.34978467514E+02  0.18813483689E+01 -0.15353476982E+03  0.15748002478E+03  0.00000000000E+00 0. -1.
         11    1    3    3    0    0  0.53127870060E+02 -0.14131011950E+02 -0.20982007457E+02  0.58843017537E+02  0.00000000000E+00 0.  1.
</event>
<event>
 7    1  0.6988825E-006  0.7708959E+02  0.7561462E-02  0.1337520E+00
          2   -1    0    0  501    0  0.00000000000E+00  0.00000000000E+00  0.85546414255E+03  0.85546414255E+03  0.00000000000E+00 0. -1.
         -2   -1    0    0    0  501 -0.00000000000E+00 -0.00000000000E+00 -0.17196006987E+02  0.17196006987E+02  0.00000000000E+00 0.  1.
         23    2    1    2    0    0  0.36215305974E+02 -0.57074184059E+01  0.24241154413E+03  0.26271676991E+03  0.94406681188E+02 0.  0.
          5    1    1    2  502    0 -0.17049645932E+00  0.17821729502E+02  0.54965466116E+03  0.54995941854E+03  0.41800000000E+01 0.  1.
         -5    1    1    2    0  502 -0.36044809514E+02 -0.12114311096E+02  0.46201930279E+02  0.59983961088E+02  0.41800000000E+01 0.  1.
        -11    1    3    3    0    0  0.66682494005E+02 -0.74707842609E+01  0.19602704665E+03  0.20719307576E+03  0.00000000000E+00 0.  1.
         11    1    3    3    0    0 -0.30467188032E+02  0.17633658550E+01  0.46384497477E+02  0.55523694149E+02  0.00000000000E+00 0. -1.
</event>
<event>
 7    1  0.6988825E-006  0.1487068E+03  0.7561462E-02  0.1202071E+00
          2   -1    0    0  501    0  0.00000000000E+00  0.00000000000E+00  0.15573020656E+04  0.15573020656E+04  0.00000000000E+00 0. -1.
         -2   -1    0    0    0  501 -0.00000000000E+00 -0.00000000000E+00 -0.28812590657E+02  0.28812590657E+02  0.00000000000E+00 0.  1.
         23    2    1    2    0    0  0.77575596036E+02  0.84463594887E+02  0.20865953189E+03  0.25541918464E+03  0.92455868767E+02 0.  0.
          5    1    1    2  502    0 -0.73408983149E+02  0.29893977732E+01  0.40117691856E+03  0.40787033195E+03  0.41800000000E+01 0. -1.
         -5    1    1    2    0  502 -0.41666128877E+01 -0.87452992660E+02  0.91865302451E+03  0.92282513968E+03  0.41800000000E+01 0. -1.
        -11    1    3    3    0    0  0.20879655632E+02 -0.12146391157E+02  0.77087603542E+01  0.25355863694E+02  0.00000000000E+00 0.  1.
         11    1    3    3    0    0  0.56695940404E+02  0.96609986044E+02  0.20095077154E+03  0.23006332094E+03  0.00000000000E+00 0. -1.
</event>
<event>
 7    1  0.6988825E-006  0.1814718E+03  0.7561462E-02  0.1166386E+00
         -2   -1    0    0    0  501 -0.00000000000E+00  0.00000000000E+00  0.26001237559E+02  0.26001237559E+02  0.00000000000E+00 0.  1.
          2   -1    0    0  501    0  0.00000000000E+00 -0.00000000000E+00 -0.16692799029E+04  0.16692799029E+04  0.00000000000E+00 0. -1.
         23    2    1    2    0    0  0.14309076330E+03  0.56401393457E+02 -0.42554851539E+03  0.46151833279E+03  0.90838036236E+02 0.  0.
          5    1    1    2  502    0 -0.32495272682E+02 -0.70954555965E+02 -0.68629545354E+03  0.69073107191E+03  0.41800000000E+01 0. -1.
         -5    1    1    2    0  502 -0.11059549062E+03  0.14553162508E+02 -0.53143469645E+03  0.54303173579E+03  0.41800000000E+01 0. -1.
        -11    1    3    3    0    0  0.21024999854E+02 -0.20115104192E+02 -0.12336624106E+03  0.12675132137E+03  0.00000000000E+00 0. -1.
         11    1    3    3    0    0  0.12206576345E+03  0.76516497649E+02 -0.30218227432E+03  0.33476701142E+03  0.00000000000E+00 0.  1.
</event>
<event>
 7    1  0.6988825E-006  0.1171092E+03  0.7561462E-02  0.1247944E+00
         -2   -1    0    0    0  501 -0.00000000000E+00  0.00000000000E+00  0.38036139208E+02  0.38036139208E+02  0.00000000000E+00 0.  1.
          2   -1    0    0  501    0  0.00000000000E+00 -0.00000000000E+00 -0.40853282953E+03  0.40853282953E+03  0.00000000000E+00 0. -1.
         23    2    1    2    0    0 -0.10013340794E+02  0.60943296232E+02 -0.16099716885E+03  0.19486984333E+03  0.90773427351E+02 0.  0.
          5    1    1    2  502    0 -0.49037707841E+02 -0.51114215477E+01 -0.39809356968E+02  0.63506540787E+02  0.41800000000E+01 0.  1.
         -5    1    1    2    0  502  0.59051048635E+02 -0.55831874685E+02 -0.16969016450E+03  0.18819258461E+03  0.41800000000E+01 0.  1.
        -11    1    3    3    0    0  0.15740085539E+02  0.73178563676E+02 -0.14226434367E+03  0.16075445858E+03  0.00000000000E+00 0. -1.
         11    1    3    3    0    0 -0.25753426333E+02 -0.12235267444E+02 -0.18732825178E+02  0.34115384747E+02  0.00000000000E+00 0.  1.
</event>
<event>
 7    1  0.6988825E-006  0.1050054E+03  0.7561462E-02  0.1270109E+00
          1   -1    0    0  501    0  0.00000000000E+00  0.00000000000E+00  0.29829080077E+03  0.29829080077E+03  0.00000000000E+00 0. -1.
         -1   -1    0    0    0  501 -0.00000000000E+00 -0.00000000000E+00 -0.51141016869E+02  0.51141016869E+02  0.00000000000E+00 0.  1.
         23    2    1    2    0    0  0.45017030669E+02 -0.17732032110E+02  0.45346540602E+02  0.10712492281E+03  0.84133716958E+02 0.  0.
          5    1    1    2  502    0 -0.73729731490E+02 -0.28793351734E+02  0.11696936059E+03  0.14129555593E+03  0.41800000000E+01 0. -1.
         -5    1    1    2    0  502  0.28712700820E+02  0.46525383844E+02  0.84833882714E+02  0.10101133890E+03  0.41800000000E+01 0. -1.
        -11    1    3    3    0    0  0.48119908416E+02 -0.34278969036E+02  0.35006533315E+00  0.59082111082E+02  0.00000000000E+00 0.  1.
         11    1    3    3    0    0 -0.31028777473E+01  0.16546936927E+02  0.44996475269E+02  0.48042811726E+02  0.00000000000E+00 0. -1.
</event>
<event>
 7    1  0.6988825E-006  0.9365014E+02  0.7561462E-02  0.1294246E+00
          1   -1    0    0  501    0  0.00000000000E+00  0.00000000000E+00  0.10473056527E+04  0.10473056527E+04  0.00000000000E+00 0. -1.
         -1   -1    0    0    0  501 -0.00000000000E+00 -0.00000000000E+00 -0.13029868471E+02  0.13029868471E+02  0.00000000000E+00 0.  1.
         23    2    1    2    0    0 -0.19730555565E+02 -0.32433612513E+00  0.23719205526E+03  0.25325892213E+03  0.86548313341E+02 0.  0.
          5    1    1    2  502    0 -0.36403814964E+02 -0.32738368975E+02  0.52397851811E+03  0.52627749181E+03  0.41800000000E+01 0. -1.
         -5    1    1    2    0  502  0.56134370529E+02  0.33062705100E+02  0.27310521086E+03  0.28079910723E+03  0.41800000000E+01 0. -1.
        -11    1    3    3    0    0  0.24067202928E+02 -0.12909613709E+02  0.27820307359E+02  0.38985354743E+02  0.00000000000E+00 0.  1.
         11    1    3    3    0    0 -0.43797758493E+02  0.12585277583E+02  0.20937174790E+03  0.21427356739E+03  0.00000000000E+00 0. -1.
</event>
<event>
 6    1  0.6988825E-006  0.1473044E+03  0.7561462E-02  0.1203825E+00
          2   -1    0    0  501    0  0.00000000000E+00  0.00000000000E+00  0.12778505100E+04  0.12778505100E+04  0.00000000000E+00 0. -1.
         -2   -1    0    0    0  501 -0.00000000000E+00 -0.00000000000E+00 -0.20672236507E+02  0.20672236507E+02  0.00000000000E+00 0.  1.
          5    1    1    2  502    0 -0.58983177174E+02 -0.81534103016E+02  0.68669177092E+03  0.69403882153E+03  0.41800000000E+01 0. -1.
         -5    1    1    2    0  502 -0.11003750916E+02  0.28753993120E+02  0.61566634292E+02  0.68962290512E+02  0.41800000000E+01 0.  1.
        -11    1    1    2    0    0  0.57037105608E+02  0.99308737897E+02  0.30060399595E+03  0.32168030593E+03  0.00000000000E+00 0.  1.
         11    1    1    2    0    0  0.12949822481E+02 -0.46528628000E+02  0.20831587231E+03  0.21384132851E+03  0.00000000000E+00 0. -1.
</event>
<event>
 7    1  0.6988825E-006  0.9578636E+02  0.7561462E-02  0.1289415E+00
          4   -1    0    0  501    0  0.00000000000E+00  0.00000000000E+00  0.29927509822E+02  0.29927509822E+02  0.00000000000E+00 0. -1.
         -4   -1    0    0    0  501 -0.00000000000E+00 -0.00000000000E+00 -0.59509918888E+03  0.59509918888E+03  0.00000000000E+00 0.  1.
         23    2    1    2    0    0  0.91938750591E+01  0.59201934444E+02 -0.37096601881E+03  0.38637596393E+03  0.89895506089E+02 0.  0.
          5    1    1    2  502    0 -0.47823694323E+01  0.19221705508E+02  0.79362129246E+01  0.21743985274E+02  0.41800000000E+01 0. -1.
         -5    1    1    2    0  502 -0.44115056267E+01 -0.78423639952E+02 -0.20214187317E+03  0.21690674949E+03  0.41800000000E+01 0. -1.
        -11    1    3    3    0    0  0.40229077645E+02  0.32085933841E+02 -0.29941614178E+03  0.30380571390E+03  0.00000000000E+00 0. -1.
         11    1    3    3    0    0 -0.31035202586E+02  0.27116000604E+02 -0.71549877029E+02  0.82570250037E+02  0.00000000000E+00 0.  1.
</event>
<event>
 6    1  0.6988825E-006  0.9966688E+02  0.7561462E-02  0.1280998E+00
         -1   -1    0    0    0  501 -0.00000000000E+00  0.00000000000E+00  0.66149581640E+02  0.66149581640E+02  0.00000000000E+00 0.  1.
          1   -1    0    0  501    0  0.00000000000E+00 -0.00000000000E+00 -0.96213393725E+03  0.96213393725E+03  0.00000000000E+00 0. -1.
          5    1    1    2  502    0 -0.30407721507E+02 -0.53613632390E+02 -0.23663564579E+03  0.24456686685E+03  0.41800000000E+01 0. -1.
         -5    1    1    2    0  502  0.60746397031E+02  0.24048518131E+01 -0.69529471120E+03  0.69795996725E+03  0.41800000000E+01 0.  1.
        -11    1    1    2    0    0 -0.42972343179E+02  0.31796395103E+02  0.17830066051E+02  0.56351967803E+02  0.00000000000E+00 0. -1.
         11    1    1    2    0    0  0.12633667655E+02  0.19412385474E+02  0.18115935324E+02  0.29404716983E+02  0.00000000000E+00 0.  1.
</event>
<event>
 7    1  0.6988825E-006  0.1068392E+03  0.7561462E-02  0.1266538E+00
          2   -1    0    0  501    0  0.00000000000E+00  0.00000000000E+00  0.16402058981E+03  0.16402058981E+03  0.00000000000E+00 0. -1.
         -2   -1    0    0    0  501 -0.00000000000E+00 -0.00000000000E+00 -0.18629612934E+03  0.18629612934E+03  0.00000000000E+00 0.  1.
         23    2    1    2    0    0 -0.73110755073E+02  0.35746588013E+02 -0.12196065510E+03  0.17086401606E+03  0.87733172356E+02 0.  0.
          5    1    1    2  502    0  0.20018953089E+02 -0.39275442725E+02 -0.19862657105E+02  0.48531602398E+02  0.41800000000E+01 0.  1.
         -5    1    1    2    0  502  0.53091801985E+02  0.35288547118E+01  0.11954777267E+03  0.13092110069E+03  0.41800000000E+01 0.  1.
        -11    1    3    3    0    0 -0.43852864010E+01  0.46288167224E+02 -0.29074515338E+02  0.54837510920E+02  0.00000000000E+00 0. -1.
         11    1    3    3    0    0 -0.68725468672E+02 -0.10541579211E+02 -0.92886139758E+02  0.11602650514E+03  0.00000000000E+00 0.  1.
</event>
<event>
 7    1  0.6988825E-006  0.1137041E+03  0.7561462E-02  0.1253860E+00
          1   -1    0    0  501    0  0.00000000000E+00  0.00000000000E+00  0.80037981811E+02  0.80037981811E+02  0.00000000000E+00 0. -1.
         -1   -1    0    0    0  501 -0.00000000000E+00 -0.00000000000E+00 -0.20838600227E+03  0.20838600227E+03  0.00000000000E+00 0.  1.
         23    2    1    2    0    0  0.64632899353E+02  0.23254975511E+02 -0.34715537709E+02  0.11774037244E+03  0.89103429676E+02 0.  0.
          5    1    1    2  502    0 -0.15175819038E+02 -0.54184600920E+02 -0.96877869049E+02  0.11211186544E+03  0.41800000000E+01 0.  1.
         -5    1    1    2    0  502 -0.49457080315E+02  0.30929625409E+02  0.32453862933E+01  0.58571746205E+02  0.41800000000E+01 0.  1.
        -11    1    3    3    0    0  0.73139661140E+02 -0.13845365446E+02 -0.22476084110E+02  0.77757819754E+02  0.00000000000E+00 0.  1.
         11    1    3    3    0    0 -0.85067617863E+01  0.37100340957E+02 -0.12239453599E+02  0.39982552690E+02  0.00000000000E+00 0. -1.
</event>
<event>
 7    1  0.6988825E-006  0.1127326E+03  0.7561462E-02  0.1255592E+00
          2   -1    0    0  501    0  0.00000000000E+00  0.00000000000E+00  0.55413886980E+03  0.55413886980E+03  0.00000000000E+00 0. -1.
         -2   -1    0    0    0  501 -0.00000000000E+00 -0.00000000000E+00 -0.28315039540E+02  0.28315039540E+02  0.00000000000E+00 0.  1.
         23    2    1    2    0    0  0.47209897952E+02 -0.37551242316E+02  0.18787287713E+03  0.21708058247E+03  0.90492491734E+02 0.  0.
          5    1    1    2  502    0 -0.55450957096E+02 -0.30794654773E+02  0.10816107035E+03  0.12545680111E+03  0.41800000000E+01 0. -1.
         -5    1    1    2    0  502  0.82410591447E+01  0.68345897089E+02  0.22978988277E+03  0.23991652575E+03  0.41800000000E+01 0. -1.
        -11    1    3    3    0    0  0.51952836206E+02  0.30615196045E+01  0.46085140985E+02  0.69514820807E+02  0.00000000000E+00 0.  1.
         11    1    3    3    0    0 -0.47429382545E+01 -0.40612761920E+02  0.14178773615E+03  0.14756576166E+03  0.00000000000E+00 0. -1.
</event>
<event>
 7    1  0.6988825E-006  0.9889988E+02  0.7561462E-02  0.1282626E+00
         -2   -1    0    0    0  501 -0.00000000000E+00  0.00000000000E+00  0.33630289281E+02  0.33630289281E+02  0.00000000000E+00 0.  1.
          2   -1    0    0  501    0  0.00000000000E+00 -0.00000000000E+00 -0.46751807532E+03  0.46751807532E+03  0.00000000000E+00 0. -1.
         23    2    1    2    0    0  0.58114549971E+02  0.98735159525E+01 -0.14391318416E+03  0.17988458400E+03  0.90402830427E+02 0.  0.
          5    1    1    2  502    0  0.19861296054E+02 -0.38509230553E+02 -0.16858051016E+03  0.17411000179E+03  0.41800000000E+01 0. -1.
         -5    1    1    2    0  502 -0.77975846025E+02  0.28635714600E+02 -0.12139409172E+03  0.14715377881E+03  0.41800000000E+01 0. -1.
        -11    1    3    3    0    0  0.13322576575E+02 -0.14836964621E+02  0.65294385842E+01  0.20982376748E+02  0.00000000000E+00 0.  1.
         11    1    3    3    0    0  0.44791973396E+02  0.24710480573E+02 -0.15044262274E+03  0.15890220725E+03  0.00000000000E+00 0. -1.
</event>
<event>
 7    1  0.6988825E-006  0.9258689E+02  0.7561462E-02  0.1296705E+00
         -2   -1    0    0    0  501 -0.00000000000E+00  0.00000000000E+00  0.11225773950E+02  0.11225773950E+02  0.00000000000E+00 0.  1.
          2   -1    0    0  501    0  0.00000000000E+00 -0.00000000000E+00 -0.13966748566E+04  0.13966748566E+04  0.00000000000E+00 0. -1.
         23    2    1    2    0    0 -0.61944528769E+02  0.47116612155E+02 -0.43570065162E+03  0.44679243459E+03  0.61084547942E+02 0.  0.
          5    1    1    2  502    0  0.61132625050E+02 -0.19446842388E+02 -0.91120811494E+03  0.91347308590E+03  0.41800000000E+01 0.  1.
         -5    1    1    2    0  502  0.81190371897E+00 -0.27669769767E+02 -0.38540316082E+02  0.47635110059E+02  0.41800000000E+01 0.  1.
        -11    1    3    3    0    0  0.55941107707E+01  0.18873120568E+02 -0.42530692422E+02  0.46865216880E+02  0.00000000000E+00 0.  1.
         11    1    3    3    0    0 -0.67538639540E+02  0.28243491587E+02 -0.39316995920E+03  0.39992721771E+03  0.00000000000E+00 0. -1.
</event>
<event>
 7    1  0.6988825E-006  0.1128166E+03  0.7561462E-02  0.1255441E+00
         -2   -1    0    0    0  501 -0.00000000000E+00  0.00000000000E+00  0.32447203385E+02  0.32447203385E+02  0.00000000000E+00 0. -1.
          2   -1    0    0  501    0  0.00000000000E+00 -0.00000000000E+00 -0.44728403371E+03  0.44728403371E+03  0.00000000000E+00 0.  1.
         23    2    1    2    0    0 -0.44680055248E+02  0.56457293400E+01 -0.12168370403E+03  0.15783908194E+03  0.89878086122E+02 0.  0.
          5    1    1    2  502    0  0.59257272983E+02 -0.55078404674E+02 -0.18814592002E+03  0.20484485515E+03  0.41800000000E+01 0. -1.
         -5    1    1    2    0  502 -0.14577217735E+02  0.49432675334E+02 -0.10500720627E+03  0.11704730000E+03  0.41800000000E+01 0. -1.
        -11    1    3    3    0    0  0.14862807111E+02  0.26036351472E+02 -0.70866402236E+02  0.76947005133E+02  0.00000000000E+00 0.  1.
         11    1    3    3    0    0 -0.59542862358E+02 -0.20390622132E+02 -0.50817301798E+02  0.80892076811E+02  0.00000000000E+00 0. -1.
</event>
<event>
 7    1  0.6988825E-006  0.8522980E+02  0.7561462E-02  0.1314833E+00
         -1   -1    0    0    0  501 -0.00000000000E+00  0.00000000000E+00  0.41243907650E+02  0.41243907650E+02  0.00000000000E+00 0.  1.
          1   -1    0    0  501    0  0.00000000000E+00 -0.00000000000E+00 -0.31741396812E+03  0.31741396812E+03  0.00000000000E+00 0. -1.
         23    2    1    2    0    0  0.32378160183E+02  0.52934093402E+01 -0.57190278862E+02  0.10434243006E+03  0.80871807672E+02 0.  0.
          5    1    1    2  502    0  0.43639043951E+02 -0.24469547987E+02 -0.97641729603E+02  0.10979300841E+03  0.41800000000E+01 0.  1.
         -5    1    1    2    0  502 -0.76017204134E+02  0.19176138647E+02 -0.12133805200E+03  0.14452243730E+03  0.41800000000E+01 0.  1.
        -11    1    3    3    0    0  0.24149662030E+01  0.10983110945E+02  0.19109579838E+02  0.22172885003E+02  0.00000000000E+00 0.  1.
         11    1    3    3    0    0  0.29963193980E+02 -0.56897016046E+01 -0.76299858700E+02  0.82169545060E+02  0.00000000000E+00 0. -1.
</event>
<event>
 7    1  0.6988825E-006  0.1112797E+03  0.7561462E-02  0.1258218E+00
          1   -1    0    0  501    0  0.00000000000E+00  0.00000000000E+00  0.13280815675E+04  0.13280815675E+04  0.00000000000E+00 0. -1.
         -1   -1    0    0    0  501 -0.00000000000E+00 -0.00000000000E+00 -0.21512167267E+02  0.21512167267E+02  0.00000000000E+00 0.  1.
         23    2    1    2    0    0  0.22707641112E+02  0.28419800743E+02  0.11193539349E+03  0.14787897341E+03  0.89528411255E+02 0.  0.
          5    1    1    2  502    0  0.49870999829E+02 -0.76081220508E+01  0.34083841953E+03  0.34457698817E+03  0.41800000000E+01 0. -1.
         -5    1    1    2    0  502 -0.72578640941E+02 -0.20811678692E+02  0.85379558721E+03  0.85713777319E+03  0.41800000000E+01 0. -1.
        -11    1    3    3    0    0  0.35613424298E+02 -0.23599605035E+02  0.55639524951E+02  0.70149940020E+02  0.00000000000E+00 0. -1.
         11    1    3    3    0    0 -0.12905783187E+02  0.52019405778E+02  0.56295868544E+02  0.77729033394E+02  0.00000000000E+00 0.  1.
</event>
<event>
 7    1  0.6988825E-006  0.9975839E+02  0.7561462E-02  0.1280805E+00
         -2   -1    0    0    0  501 -0.00000000000E+00  0.00000000000E+00  0.87680809211E+03  0.87680809211E+03  0.00000000000E+00 0.  1.
          2   -1    0    0  501    0  0.00000000000E+00 -0.00000000000E+00 -0.21078783284E+02  0.21078783284E+02  0.00000000000E+00 0. -1.
         23    2    1    2    0    0 -0.30364010740E+02  0.71604188287E+02  0.29590285986E+03  0.31900652487E+03  0.90319031840E+02 0.  0.
          5    1    1    2  502    0  0.28100773711E+02 -0.44377718329E+02  0.54495220001E+03  0.54749375162E+03  0.41800000000E+01 0. -1.
         -5    1    1    2    0  502  0.22632370285E+01 -0.27226469958E+02  0.14874248954E+02  0.31386598895E+02  0.41800000000E+01 0. -1.
        -11    1    3    3    0    0 -0.22143372398E+01  0.87049267861E+02  0.21478585361E+03  0.23176591906E+03  0.00000000000E+00 0.  1.
         11    1    3    3    0    0 -0.28149673500E+02 -0.15445079574E+02  0.81117006241E+02  0.87240605813E+02  0.00000000000E+00 0. -1.
</event>
<event>
 7    1  0.6988825E-006  0.1257468E+03  0.7561462E-02  0.1233907E+00
         -2   -1    0    0    0  501 -0.00000000000E+00  0.00000000000E+00  0.78003258335E+02  0.78003258335E+02  0.00000000000E+00 0.  1.
          2   -1    0    0  501    0  0.00000000000E+00 -0.00000000000E+00 -0.29876075872E+03  0.29876075872E+03  0.00000000000E+00 0. -1.
         23    2    1    2    0    0 -0.89011747155E+02  0.95792479962E+01 -0.28315269985E+02  0.13039632855E+03  0.90479803615E+02 0.  0.
          5    1    1    2  502    0  0.71316829140E+02  0.43118694979E+02 -0.60308630439E+02  0.10295588998E+03  0.41800000000E+01 0.  1.
         -5    1    1    2    0  502  0.17694918015E+02 -0.52697942975E+02 -0.13213359996E+03  0.14341179852E+03  0.41800000000E+01 0.  1.
        -11    1    3    3    0    0 -0.71500853626E+02 -0.23174894148E+02 -0.47175353294E+02  0.88740981212E+02  0.00000000000E+00 0. -1.
         11    1    3    3    0    0 -0.17510893530E+02  0.32754142144E+02  0.18860083309E+02  0.41655347342E+02  0.00000000000E+00 0.  1.
</event>
<event>
 7    1  0.6988825E-006  0.1885683E+03  0.7561462E-02  0.1159759E+00
          1   -1    0    0  501    0  0.00000000000E+00  0.00000000000E+00  0.13417122091E+04  0.13417122091E+04  0.00000000000E+00 0. -1.
         -1   -1    0    0    0  501 -0.00000000000E+00 -0.00000000000E+00 -0.28126207670E+02  0.28126207670E+02  0.00000000000E+00 0.  1.
         23    2    1    2    0    0  0.91073102276E-01  0.13552767164E+03  0.59444888948E+03  0.61657994183E+03  0.91834548962E+02 0.  0.
          5    1    1    2  502    0 -0.44004861803E+02  0.23876229451E+02  0.93663814217E+02  0.10628680393E+03  0.41800000000E+01 0. -1.
         -5    1    1    2    0  502  0.43913788701E+02 -0.15940390109E+03  0.62547329771E+03  0.64697167099E+03  0.41800000000E+01 0.  1.
        -11    1    3    3    0    0 -0.32022317549E+02  0.12538042291E+02  0.17274681787E+03  0.17613657885E+03  0.00000000000E+00 0.  1.
         11    1    3    3    0    0  0.32113390651E+02  0.12298962935E+03  0.42170207161E+03  0.44044336297E+03  0.00000000000E+00 0. -1.
</event>
<event>
 7    1  0.6988825E-006  0.1152080E+03  0.7561462E-02  0.1251219E+00
         -1   -1    0    0    0  501 -0.00000000000E+00  0.00000000000E+00  0.13130691988E+03  0.13130691988E+03  0.00000000000E+00 0.  1.
          1   -1    0    0  501    0  0.00000000000E+00 -0.00000000000E+00 -0.13223366170E+03  0.13223366170E+03  0.00000000000E+00 0. -1.
         23    2    1    2    0    0 -0.56056569809E+02 -0.13215631477E+02  0.46331290498E+02  0.11794364245E+03  0.91908228033E+02 0.  0.
          5    1    1    2  502    0 -0.13967997675E+02  0.52107065239E+02 -0.34835656440E+01  0.54220465108E+02  0.41800000000E+01 0. -1.
         -5    1    1    2    0  502  0.70024567484E+02 -0.38891433762E+02 -0.43774466677E+02  0.91376474020E+02  0.41800000000E+01 0. -1.
        -11    1    3    3    0    0 -0.74040734258E+02 -0.20294105509E+02  0.57229751378E+02  0.95755550704E+02  0.00000000000E+00 0.  1.
         11    1    3    3    0    0  0.17984164450E+02  0.70784740326E+01 -0.10898460880E+02  0.22188091742E+02  0.00000000000E+00 0. -1.
</event>
<event>
 7    1  0.6988825E-006  0.1083429E+03  0.7561462E-02  0.1263670E+00
          1   -1    0    0  501    0  0.00000000000E+00  0.00000000000E+00  0.13700655447E+02  0.13700655447E+02  0.00000000000E+00 0. -1.
         -1   -1    0    0    0  501 -0.00000000000E+00 -0.00000000000E+00 -0.94980755995E+03  0.94980755995E+03  0.00000000000E+00 0.  1.
         23    2    1    2    0    0  0.28388167376E+02  0.22379444653E+02 -0.44880953728E+03  0.45911463321E+03  0.89719106543E+02 0.  0.
          5    1    1    2  502    0 -0.61963256284E+02 -0.47466446353E+02 -0.21317489989E+03  0.22705400019E+03  0.41800000000E+01 0. -1.
         -5    1    1    2    0  502  0.33575088909E+02  0.25087001700E+02 -0.27412246733E+03  0.27733958201E+03  0.41800000000E+01 0. -1.
        -11    1    3    3    0    0  0.56190016494E+02  0.34644760089E+02 -0.28919645570E+03  0.29663473725E+03  0.00000000000E+00 0.  1.
         11    1    3    3    0    0 -0.27801849118E+02 -0.12265315435E+02 -0.15961308159E+03  0.16247989596E+03  0.00000000000E+00 0. -1.
</event>
<event>
 7    1  0.6988825E-006  0.1242397E+03  0.7561462E-02  0.1236262E+00
          4   -1    0    0  501    0  0.00000000000E+00  0.00000000000E+00  0.25359185068E+03  0.25359185068E+03  0.00000000000E+00 0.  1.
         -4   -1    0    0    0  501 -0.00000000000E+00 -0.00000000000E+00 -0.81236509853E+02  0.81236509853E+02  0.00000000000E+00 0. -1.
         23    2    1    2    0    0  0.74208447659E+02 -0.19516684989E+02  0.22317648653E+02  0.12495410837E+03  0.96060694668E+02 0.  0.
          5    1    1    2  502    0  0.21703731466E+01  0.57618034576E+02  0.83543868147E+02  0.10159526925E+03  0.41800000000E+01 0. -1.
         -5    1    1    2    0  502 -0.76378820806E+02 -0.38101349587E+02  0.66493824027E+02  0.10827898292E+03  0.41800000000E+01 0. -1.
        -11    1    3    3    0    0  0.41646419621E+02  0.26112539107E+02  0.42895202602E+02  0.65240228173E+02  0.00000000000E+00 0.  1.
         11    1    3    3    0    0  0.32562028038E+02 -0.45629224096E+02 -0.20577553949E+02  0.59713880196E+02  0.00000000000E+00 0. -1.
</event>
<event>
 7    1  0.6988825E-006  0.8059781E+02  0.7561462E-02  0.1327363E+00
         -1   -1    0    0    0  501 -0.00000000000E+00  0.00000000000E+00  0.35693610832E+02  0.35693610832E+02  0.00000000000E+00 0.  1.
          1   -1    0    0  501    0  0.00000000000E+00 -0.00000000000E+00 -0.39121240222E+03  0.39121240222E+03  0.00000000000E+00 0. -1.
         23    2    1    2    0    0 -0.33011850197E+02  0.32308429522E+02 -0.13300663842E+03  0.16749705560E+03  0.90724202386E+02 0.  0.
          5    1    1    2  502    0  0.36592447302E+02 -0.71310928271E+01 -0.22962841508E+03  0.23267260495E+03  0.41800000000E+01 0. -1.
         -5    1    1    2    0  502 -0.35805971054E+01 -0.25177336695E+02  0.71162621097E+01  0.26736352502E+02  0.41800000000E+01 0. -1.
        -11    1    3    3    0    0  0.21011076586E+02 -0.15228416816E+02 -0.17126304128E+02  0.31091482935E+02  0.00000000000E+00 0.  1.
         11    1    3    3    0    0 -0.54022926782E+02  0.47536846338E+02 -0.11588033429E+03  0.13640557266E+03  0.00000000000E+00 0. -1.
</event>
<event>
 7    1  0.6988825E-006  0.8828141E+02  0.7561462E-02  0.1307068E+00
         -1   -1    0    0    0  501 -0.00000000000E+00  0.00000000000E+00  0.22623805592E+03  0.22623805592E+03  0.00000000000E+00 0.  1.
          1   -1    0    0  501    0  0.00000000000E+00 -0.00000000000E+00 -0.55180305111E+02  0.55180305111E+02  0.00000000000E+00 0. -1.
         23    2    1    2    0    0 -0.25526694621E+02  0.10067989537E+02  0.67624302343E+02  0.11680244980E+03  0.91196433375E+02 0.  0.
          5    1    1    2  502    0 -0.35865431911E+02 -0.65846984783E+01 -0.77310827093E+01  0.37509058906E+02  0.41800000000E+01 0.  1.
         -5    1    1    2    0  502  0.61392126532E+02 -0.34832910584E+01  0.11116453118E+03  0.12710685233E+03  0.41800000000E+01 0.  1.
        -11    1    3    3    0    0 -0.37831874345E+02 -0.22079991098E+02  0.69695228833E+02  0.82317687318E+02  0.00000000000E+00 0.  1.
         11    1    3    3    0    0  0.12305179724E+02  0.32147980635E+02 -0.20709264899E+01  0.34484762482E+02  0.00000000000E+00 0. -1.
</event>
<event>
 6    1  0.6988825E-006  0.1603624E+03  0.7561462E-02  0.1188288E+00
          1   -1    0    0  501    0  0.00000000000E+00  0.00000000000E+00  0.50373248344E+03  0.50373248344E+03  0.00000000000E+00 0. -1.
         -1   -1    0    0    0  501 -0.00000000000E+00 -0.00000000000E+00 -0.70651630826E+02  0.70651630826E+02  0.00000000000E+00 0.  1.
          5    1    1    2  502    0 -0.49380380592E+02  0.93534134559E+02  0.25380033325E+03  0.27498934138E+03  0.41800000000E+01 0. -1.
         -5    1    1    2    0  502 -0.40259699042E+02 -0.28456428526E+02  0.42753966381E+02  0.65391021805E+02  0.41800000000E+01 0. -1.
        -11    1    1    2    0    0  0.63520533127E+02  0.27489466763E+02  0.11687981504E+03  0.13583600434E+03  0.00000000000E+00 0. -1.
         11    1    1    2    0    0  0.26119546507E+02 -0.92567172795E+02  0.19646737951E+02  0.98167746746E+02  0.00000000000E+00 0.  1.
</event>
<event>
 7    1  0.6988825E-006  0.1883256E+03  0.7561462E-02  0.1159980E+00
          1   -1    0    0  501    0  0.00000000000E+00  0.00000000000E+00  0.21524447550E+03  0.21524447550E+03  0.00000000000E+00 0. -1.
         -1   -1    0    0    0  501 -0.00000000000E+00 -0.00000000000E+00 -0.23026702565E+03  0.23026702565E+03  0.00000000000E+00 0.  1.
         23    2    1    2    0    0 -0.57927660996E+02  0.14888663253E+03 -0.11814588701E+03  0.21790519114E+03  0.89450424553E+02 0.  0.
          5    1    1    2  502    0  0.93226765875E+02 -0.86163016760E+02  0.44169403969E+02  0.13447566315E+03  0.41800000000E+01 0. -1.
         -5    1    1    2    0  502 -0.35299104878E+02 -0.62723615772E+02  0.58953932892E+02  0.93130646858E+02  0.41800000000E+01 0. -1.
        -11    1    3    3    0    0 -0.40902782445E+02  0.16566881321E+02 -0.54395682166E+02  0.70045623752E+02  0.00000000000E+00 0.  1.
         11    1    3    3    0    0 -0.17024878551E+02  0.13231975121E+03 -0.63750204842E+02  0.14785956739E+03  0.00000000000E+00 0. -1.
</event>
<event>
 7    1  0.6988825E-006  0.1208448E+03  0.7561462E-02  0.1241710E+00
          3   -1    0    0  501    0  0.00000000000E+00  0.00000000000E+00  0.14840397750E+03  0.14840397750E+03  0.00000000000E+00 0. -1.
         -3   -1    0    0    0  501 -0.00000000000E+00 -0.00000000000E+00 -0.11607574115E+03  0.11607574115E+03  0.00000000000E+00 0.  1.
         23    2    1    2    0    0  0.44285481977E+02 -0.55385550930E+02 -0.96928128926E+01  0.11467266226E+03  0.89594116335E+02 0.  0.
          5    1    1    2  502    0 -0.79914025745E+02  0.67989259341E+02  0.23921509732E+02  0.10769634128E+03  0.41800000000E+01 0.  1.
         -5    1    1    2    0  502  0.35628543768E+02 -0.12603708411E+02  0.18099539514E+02  0.42110715114E+02  0.41800000000E+01 0.  1.
        -11    1    3    3    0    0 -0.12346251999E+02  0.71713389605E+01 -0.25116865014E+02  0.28891433835E+02  0.00000000000E+00 0.  1.
         11    1    3    3    0    0  0.56631733976E+02 -0.62556889890E+02  0.15424052122E+02  0.85781228423E+02  0.00000000000E+00 0. -1.
</event>
<event>
 7    1  0.6988825E-006  0.1425858E+03  0.7561462E-02  0.1209891E+00
         -1   -1    0    0    0  501 -0.00000000000E+00  0.00000000000E+00  0.30408667148E+03  0.30408667148E+03  0.00000000000E+00 0.  1.
          1   -1    0    0  501    0  0.00000000000E+00 -0.00000000000E+00 -0.79366794106E+02  0.79366794106E+02  0.00000000000E+00 0. -1.
         23    2    1    2    0    0  0.27948467933E+02  0.98934812892E+02  0.15514824868E+03  0.20722399759E+03  0.91113072874E+02 0.  0.
          5    1    1    2  502    0 -0.83012823280E+01 -0.12076844208E+03  0.79568385971E+02  0.14492249079E+03  0.41800000000E+01 0.  1.
         -5    1    1    2    0  502 -0.19647185605E+02  0.21833629186E+02 -0.99967572755E+01  0.31306977204E+02  0.41800000000E+01 0.  1.
        -11    1    3    3    0    0  0.52945599892E+02  0.95434014699E+02  0.14095125312E+03  0.17826425179E+03  0.00000000000E+00 0.  1.
         11    1    3    3    0    0 -0.24997131959E+02  0.35007981938E+01  0.14196995555E+02  0.28959745803E+02  0.00000000000E+00 0. -1.
</event>
<event>
 7    1  0.6988825E-006  0.1001937E+03  0.7561462E-02  0.1279889E+00
         -2   -1    0    0    0  501 -0.00000000000E+00  0.00000000000E+00  0.39599560510E+02  0.39599560510E+02  0.00000000000E+00 0. -1.
          2   -1    0    0  501    0  0.00000000000E+00 -0.00000000000E+00 -0.36656458282E+03  0.36656458282E+03  0.00000000000E+00 0.  1.
         23    2    1    2    0    0 -0.28971076978E+02  0.24041372747E+02 -0.79984856425E+02  0.12676440872E+03  0.90853327709E+02 0.  0.
          5    1    1    2  502    0  0.52202172014E+02 -0.59229755658E+02 -0.10630572865E+03  0.13248249342E+03  0.41800000000E+01 0.  1.
         -5    1    1    2    0  502 -0.23231095036E+02  0.35188382911E+02 -0.14067443723E+03  0.14691724119E+03  0.41800000000E+01 0.  1.
        -11    1    3    3    0    0  0.17935228163E+02 -0.10426290960E+02  0.71779692062E+01  0.21952293602E+02  0.00000000000E+00 0. -1.
         11    1    3    3    0    0 -0.46906305141E+02  0.34467663707E+02 -0.87162825631E+02  0.10481211512E+03  0.00000000000E+00 0.  1.
</event>
<event>
 7    1  0.6988825E-006  0.1086203E+03  0.7561462E-02  0.1263146E+00
          1   -1    0    0  501    0  0.00000000000E+00  0.00000000000E+00  0.43419998865E+03  0.43419998865E+03  0.00000000000E+00 0. -1.
         -1   -1    0    0    0  501 -0.00000000000E+00 -0.00000000000E+00 -0.39881023606E+02  0.39881023606E+02  0.00000000000E+00 0.  1.
         23    2    1    2    0    0  0.48468227252E+02 -0.21297816524E+02  0.10730909079E+03  0.15093760624E+03  0.92000836791E+02 0.  0.
          5    1    1    2  502    0  0.10800885078E+02 -0.41432944102E+02  0.31222298493E+02  0.53156865018E+02  0.41800000000E+01 0. -1.
         -5    1    1    2    0  502 -0.59269112330E+02  0.62730760626E+02  0.25578757576E+03  0.26998654099E+03  0.41800000000E+01 0.  1.
        -11    1    3    3    0    0  0.66586225853E+02 -0.12802269036E+02  0.35789862466E+02  0.76671623311E+02  0.00000000000E+00 0.  1.
         11    1    3    3    0    0 -0.18117998601E+02 -0.84955474881E+01  0.71519228328E+02  0.74265982934E+02  0.00000000000E+00 0. -1.
</event>
<event>
 7    1  0.6988825E-006  0.1518320E+03  0.7561462E-02  0.1198240E+00
         -2   -1    0    0    0  501 -0.00000000000E+00  0.00000000000E+00  0.38144680893E+02  0.38144680893E+02  0.00000000000E+00 0.  1.
          2   -1    0    0  501    0  0.00000000000E+00 -0.00000000000E+00 -0.70287663434E+03  0.70287663434E+03  0.00000000000E+00 0. -1.
         23    2    1    2    0    0 -0.11341123192E+03 -0.46195865176E+01 -0.23798279475E+03  0.28206054115E+03  0.10019426217E+03 0.  0.
          5    1    1    2  502    0  0.27081254746E+02  0.48223005683E+02 -0.70000488776E+02  0.89310657061E+02  0.41800000000E+01 0. -1.
         -5    1    1    2    0  502  0.86329977175E+02 -0.43603419166E+02 -0.35674866992E+03  0.36965011702E+03  0.41800000000E+01 0. -1.
        -11    1    3    3    0    0 -0.63046828098E+02  0.47482540708E+02 -0.12254140690E+03  0.14575970160E+03  0.00000000000E+00 0.  1.
         11    1    3    3    0    0 -0.50364403824E+02 -0.52102127225E+02 -0.11544138785E+03  0.13630083955E+03  0.00000000000E+00 0. -1.
</event>
<event>
 7    1  0.6988825E-006  0.1692211E+03  0.7561462E-02  0.1178663E+00
          1   -1    0    0  501    0  0.00000000000E+00  0.00000000000E+00  0.39802071289E+03  0.39802071289E+03  0.00000000000E+00 0. -1.
         -1   -1    0    0    0  501 -0.00000000000E+00 -0.00000000000E+00 -0.10463026308E+03  0.10463026308E+03  0.00000000000E+00 0.  1.
         23    2    1    2    0    0 -0.77541934711E+02  0.13746905455E+03  0.58374845650E+02  0.19315219435E+03  0.94813791097E+02 0.  0.
          5    1    1    2  502    0  0.38933135719E+01 -0.63770162813E+02  0.14609683046E+02  0.65671202170E+02  0.41800000000E+01 0.  1.
         -5    1    1    2    0  502  0.73648621139E+02 -0.73698891735E+02  0.22040592111E+03  0.24382757945E+03  0.41800000000E+01 0.  1.
        -11    1    3    3    0    0 -0.13996480171E+02  0.89334860511E+02  0.67603561547E+02  0.11290199420E+03  0.00000000000E+00 0. -1.
         11    1    3    3    0    0 -0.63545454540E+02  0.48134194037E+02 -0.92287158964E+01  0.80250200158E+02  0.00000000000E+00 0.  1.
</event>
<event>
 7    1  0.6988825E-006  0.6116548E+02  0.7561462E-02  0.1393005E+00
         -2   -1    0    0    0  501 -0.00000000000E+00  0.00000000000E+00  0.29603142030E+02  0.29603142030E+02  0.00000000000E+00 0.  1.
          2   -1    0    0  501    0  0.00000000000E+00 -0.00000000000E+00 -0.13628102578E+04  0.13628102578E+04  0.00000000000E+00 0. -1.
         23    2    1    2    0    0  0.17013802334E+02 -0.11830719077E+02 -0.16885452694E+03  0.19607837596E+03  0.97495860782E+02 0.  0.
          5    1    1    2  502    0 -0.11364613374E+02  0.98065730776E+01 -0.11794535162E+04  0.11795564390E+04  0.41800000000E+01 0. -1.
         -5    1    1    2    0  502 -0.56491889594E+01  0.20241459991E+01  0.15100927409E+02  0.16778584908E+02  0.41800000000E+01 0.  1.
        -11    1    3    3    0    0 -0.12377589540E+02  0.38891347400E+02 -0.62716574611E+02  0.74827203318E+02  0.00000000000E+00 0.  1.
         11    1    3    3    0    0  0.29391391874E+02 -0.50722066477E+02 -0.10613795233E+03  0.12125117265E+03  0.00000000000E+00 0. -1.
</event>
<event>
 7    1  0.6988825E-006  0.1182222E+03  0.7561462E-02  0.1246059E+00
         -1   -1    0    0    0  501 -0.00000000000E+00  0.00000000000E+00  0.37982523370E+03  0.37982523370E+03  0.00000000000E+00 0.  1.
          1   -1    0    0  501    0  0.00000000000E+00 -0.00000000000E+00 -0.59626420467E+02  0.59626420467E+02  0.00000000000E+00 0. -1.
         23    2    1    2    0    0  0.81883152452E+02  0.43118999811E+02  0.21616351819E+03  0.25228197197E+03  0.91408030202E+02 0.  0.
          5    1    1    2  502    0  0.26359751018E+02 -0.17936247916E+02  0.58982133478E+02  0.67178195366E+02  0.41800000000E+01 0. -1.
         -5    1    1    2    0  502 -0.10824290347E+03 -0.25182751895E+02  0.45053161566E+02  0.11999148683E+03  0.41800000000E+01 0. -1.
        -11    1    3    3    0    0  0.51760211434E+02  0.21755325753E+02  0.32357856840E+02  0.64803121727E+02  0.00000000000E+00 0. -1.
         11    1    3    3    0    0  0.30122941018E+02  0.21363674057E+02  0.18380566135E+03  0.18747885024E+03  0.00000000000E+00 0.  1.
</event>
<event>
 7    1  0.6988825E-006  0.1151829E+03  0.7561462E-02  0.1251262E+00
          1   -1    0    0  501    0  0.00000000000E+00  0.00000000000E+00  0.59059768414E+03  0.59059768414E+03  0.00000000000E+00 0. -1.
         -1   -1    0    0    0  501 -0.00000000000E+00 -0.00000000000E+00 -0.25422245934E+02  0.25422245934E+02  0.00000000000E+00 0.  1.
         23    2    1    2    0    0  0.23336672125E+02 -0.81705289287E+01  0.14014042376E+03  0.16973958149E+03  0.92524749908E+02 0.  0.
          5    1    1    2  502    0  0.24995570801E+02  0.59470721038E+02  0.17904260634E+03  0.19035564743E+03  0.41800000000E+01 0. -1.
         -5    1    1    2    0  502 -0.48332242925E+02 -0.51300192109E+02  0.24599240811E+03  0.25592470116E+03  0.41800000000E+01 0.  1.
        -11    1    3    3    0    0  0.33117055349E+02 -0.45640233985E+02  0.73151990570E+02  0.92363326259E+02  0.00000000000E+00 0. -1.
         11    1    3    3    0    0 -0.97803832246E+01  0.37469705057E+02  0.66988433185E+02  0.77376255231E+02  0.00000000000E+00 0.  1.
</event>
<event>
 7    1  0.6988825E-006  0.9434244E+02  0.7561462E-02  0.1292664E+00
         -2   -1    0    0    0  501 -0.00000000000E+00  0.00000000000E+00  0.29532930572E+03  0.29532930572E+03  0.00000000000E+00 0.  1.
          2   -1    0    0  501    0  0.00000000000E+00 -0.00000000000E+00 -0.49074622547E+02  0.49074622547E+02  0.00000000000E+00 0. -1.
         23    2    1    2    0    0 -0.41594139908E+02  0.22433335048E+02  0.14217644264E+03  0.17495310372E+03  0.90338921097E+02 0.  0.
          5    1    1    2  502    0  0.65311262560E+02  0.32987438978E+02  0.56288626430E+02  0.92410031992E+02  0.41800000000E+01 0.  1.
         -5    1    1    2    0  502 -0.23717122652E+02 -0.55420774025E+02  0.47789614103E+02  0.77040792549E+02  0.41800000000E+01 0.  1.
        -11    1    3    3    0    0 -0.29954700684E+02  0.29332174486E+00  0.14653278133E+03  0.14956345187E+03  0.00000000000E+00 0.  1.
         11    1    3    3    0    0 -0.11639439225E+02  0.22140013303E+02 -0.43563386905E+01  0.25389651855E+02  0.00000000000E+00 0. -1.
</event>
<event>
 7    1  0.6988825E-006  0.1179402E+03  0.7561462E-02  0.1246534E+00
         -2   -1    0    0    0  501 -0.00000000000E+00  0.00000000000E+00  0.18818114640E+02  0.18818114640E+02  0.00000000000E+00 0.  1.
          2   -1    0    0  501    0  0.00000000000E+00 -0.00000000000E+00 -0.97191201150E+03  0.97191201150E+03  0.00000000000E+00 0. -1.
         23    2    1    2    0    0  0.61169833038E+02  0.37785685885E+02 -0.29797614058E+03  0.31991095261E+03  0.91562714641E+02 0.  0.
          5    1    1    2  502    0  0.21714414124E+02  0.29885817847E+02 -0.17469758047E+03  0.17860961595E+03  0.41800000000E+01 0. -1.
         -5    1    1    2    0  502 -0.82884247162E+02 -0.67671503732E+02 -0.48042017582E+03  0.49220955758E+03  0.41800000000E+01 0. -1.
        -11    1    3    3    0    0  0.19098730909E+02  0.45045873744E+02 -0.56722246479E+02  0.74908647760E+02  0.00000000000E+00 0.  1.
         11    1    3    3    0    0  0.42071102129E+02 -0.72601878588E+01 -0.24125389410E+03  0.24500230485E+03  0.00000000000E+00 0. -1.
</event>
<event>
 7    1  0.6988825E-006  0.2439906E+03  0.7561462E-02  0.1117163E+00
         -2   -1    0    0    0  501 -0.00000000000E+00  0.00000000000E+00  0.24715864037E+03  0.24715864037E+03  0.00000000000E+00 0.  1.
          2   -1    0    0  501    0  0.00000000000E+00 -0.00000000000E+00 -0.27115544701E+03  0.27115544701E+03  0.00000000000E+00 0. -1.
         23    2    1    2    0    0  0.31361899667E+02  0.22851700367E+03  0.31304286751E+02  0.25016509451E+03  0.91646202473E+02 0.  0.
          5    1    1    2  502    0 -0.54123829761E+02 -0.54244405560E+02 -0.51284379049E+02  0.92300619808E+02  0.41800000000E+01 0. -1.
         -5    1    1    2    0  502  0.22761930093E+02 -0.17427259811E+03 -0.40167143454E+01  0.17584837306E+03  0.41800000000E+01 0. -1.
        -11    1    3    3    0    0 -0.99542916780E+01  0.98771669208E+02  0.52597867205E+02  0.11234529895E+03  0.00000000000E+00 0. -1.
         11    1    3    3    0    0  0.41316191345E+02  0.12974533446E+03 -0.21293580454E+02  0.13781979556E+03  0.00000000000E+00 0.  1.
</event>
<event>
 7    1  0.6988825E-006  0.1035818E+03  0.7561462E-02  0.1272939E+00
          1   -1    0    0  501    0  0.00000000000E+00  0.00000000000E+00  0.84023811573E+02  0.84023811573E+02  0.00000000000E+00 0. -1.
         -1   -1    0    0    0  501 -0.00000000000E+00 -0.00000000000E+00 -0.17480299318E+03  0.17480299318E+03  0.00000000000E+00 0.  1.
         23    2    1    2    0    0  0.41011080444E+02 -0.28897038057E+02 -0.46538361060E+02  0.11697568268E+03  0.94871195628E+02 0.  0.
          5    1    1    2  502    0  0.39627397782E+02  0.31863475754E+01 -0.40682425058E+02  0.57035213460E+02  0.41800000000E+01 0.  1.
         -5    1    1    2    0  502 -0.80638478225E+02  0.25710690482E+02 -0.35583954866E+01  0.84815908614E+02  0.41800000000E+01 0.  1.
        -11    1    3    3    0    0 -0.58790893740E+01  0.16296104450E+02 -0.48829453306E+02  0.51811603163E+02  0.00000000000E+00 0.  1.
         11    1    3    3    0    0  0.46890169818E+02 -0.45193142507E+02  0.22910922460E+01  0.65164079514E+02  0.00000000000E+00 0. -1.
</event>
<event>
 7    1  0.6988825E-006  0.1150381E+03  0.7561462E-02  0.1251515E+00
          2   -1    0    0  501    0  0.00000000000E+00  0.00000000000E+00  0.30497926882E+04  0.30497926882E+04  0.00000000000E+00 0. -1.
         -2   -1    0    0    0  501 -0.00000000000E+00 -0.00000000000E+00 -0.78380842468E+01  0.78380842468E+01  0.00000000000E+00 0.  1.
         23    2    1    2    0    0 -0.17931484095E+02  0.60579500347E+02  0.58214232274E+03  0.59287459857E+03  0.92839602121E+02 0.  0.
          5    1    1    2  502    0 -0.34701725570E+02 -0.54426081321E+02  0.21041093324E+04  0.21051033142E+04  0.41800000000E+01 0. -1.
         -5    1    1    2    0  502  0.52633209665E+02 -0.61534190263E+01  0.35570294877E+03  0.35965285970E+03  0.41800000000E+01 0.  1.
        -11    1    3    3    0    0 -0.31807148503E+02 -0.15161228924E+02  0.17388248651E+03  0.17741667530E+03  0.00000000000E+00 0. -1.
         11    1    3    3    0    0  0.13875664408E+02  0.75740729271E+02  0.40825983622E+03  0.41545792327E+03  0.00000000000E+00 0.  1.
</event>
<event>
 7    1  0.6988825E-006  0.1138740E+03  0.7561462E-02  0.1253559E+00
          1   -1    0    0  501    0  0.00000000000E+00  0.00000000000E+00  0.14045057924E+04  0.14045057924E+04  0.00000000000E+00 0. -1.
         -1   -1    0    0    0  501 -0.00000000000E+00 -0.00000000000E+00 -0.15998841332E+02  0.15998841332E+02  0.00000000000E+00 0.  1.
         23    2    1    2    0    0  0.56592301797E+02 -0.15125035491E+02  0.22798205133E+03  0.25323127391E+03  0.93374552408E+02 0.  0.
          5    1    1    2  502    0 -0.49745777139E+02 -0.41284285143E+02  0.75355783235E+03  0.75633716929E+03  0.41800000000E+01 0. -1.
         -5    1    1    2    0  502 -0.68465246577E+01  0.56409320634E+02  0.40696706742E+03  0.41093619056E+03  0.41800000000E+01 0.  1.
        -11    1    3    3    0    0 -0.15302543671E+01 -0.41949051262E+02  0.12614560116E+03  0.13294652035E+03  0.00000000000E+00 0. -1.
         11    1    3    3    0    0  0.58122556164E+02  0.26824015771E+02  0.10183645017E+03  0.12028475356E+03  0.00000000000E+00 0.  1.
</event>
<event>
 7    1  0.6988825E-006  0.1399739E+03  0.7561462E-02  0.1213364E+00
         -2   -1    0    0    0  501 -0.00000000000E+00  0.00000000000E+00  0.33359782365E+02  0.33359782365E+02  0.00000000000E+00 0.  1.
          2   -1    0    0  501    0  0.00000000000E+00 -0.00000000000E+00 -0.66055492989E+03  0.66055492989E+03  0.00000000000E+00 0. -1.
         23    2    1    2    0    0 -0.34366982830E+01  0.98598805029E+02 -0.23412654190E+03  0.26978639675E+03  0.90752008249E+02 0.  0.
          5    1    1    2  502    0 -0.60709927288E+02 -0.47439341263E+02 -0.19124749742E+03  0.20622624479E+03  0.41800000000E+01 0.  1.
         -5    1    1    2    0  502  0.64146625572E+02 -0.51159463766E+02 -0.20182110820E+03  0.21790207071E+03  0.41800000000E+01 0.  1.
        -11    1    3    3    0    0  0.26551320405E+02  0.12281825789E+02 -0.16115219569E+02  0.33399343732E+02  0.00000000000E+00 0.  1.
         11    1    3    3    0    0 -0.29988018688E+02  0.86316979240E+02 -0.21801132234E+03  0.23638705302E+03  0.00000000000E+00 0. -1.
</event>
<event>
 7    1  0.6988825E-006  0.1072482E+03  0.7561462E-02  0.1265752E+00
         -1   -1    0    0    0  501 -0.00000000000E+00  0.00000000000E+00  0.14309669279E+02  0.14309669279E+02  0.00000000000E+00 0. -1.
          1   -1    0    0  501    0  0.00000000000E+00 -0.00000000000E+00 -0.85051336373E+03  0.85051336373E+03  0.00000000000E+00 0.  1.
         23    2    1    2    0    0  0.32458368273E+01  0.65158360549E+01 -0.27947785183E+03  0.29417019024E+03  0.91516335065E+02 0.  0.
          5    1    1    2  502    0  0.59857300063E+02 -0.10296179598E+02 -0.31010166464E+03  0.31602123742E+03  0.41800000000E+01 0. -1.
         -5    1    1    2    0  502 -0.63103136890E+02  0.37803435435E+01 -0.24662417798E+03  0.25463160536E+03  0.41800000000E+01 0. -1.
        -11    1    3    3    0    0 -0.15612854580E+02 -0.38451468026E+02 -0.10209985939E+03  0.11021187735E+03  0.00000000000E+00 0.  1.
         11    1    3    3    0    0  0.18858691408E+02  0.44967304081E+02 -0.17737799244E+03  0.18395831289E+03  0.00000000000E+00 0. -1.
</event>
<event>
 7    1  0.6988825E-006  0.1688893E+03  0.7561462E-02  0.1179011E+00
          2   -1    0    0  501    0  0.00000000000E+00  0.00000000000E+00  0.17049798671E+04  0.17049798671E+04  0.00000000000E+00 0.  1.
         -2   -1    0    0    0  501 -0.00000000000E+00 -0.00000000000E+00 -0.30061720480E+02  0.30061720480E+02  0.00000000000E+00 0. -1.
         23    2    1    2    0    0  0.16363176333E+03  0.14713410192E+02  0.38194480083E+03  0.42568309036E+03  0.91282112862E+02 0.  0.
          5    1    1    2  502    0 -0.77207037571E+02  0.88756272207E+00  0.22786657948E+03  0.24062910227E+03  0.41800000000E+01 0. -1.
         -5    1    1    2    0  502 -0.86424725755E+02 -0.15600972914E+02  0.10651067663E+04  0.10687293950E+04  0.41800000000E+01 0. -1.
        -11    1    3    3    0    0  0.13762491298E+03 -0.82034490843E+01  0.35778988166E+03  0.38343384393E+03  0.00000000000E+00 0.  1.
         11    1    3    3    0    0  0.26006850341E+02  0.22916859277E+02  0.24154919163E+02  0.42249246426E+02  0.00000000000E+00 0. -1.
</event>
<event>
 7    1  0.6988825E-006  0.1418823E+03  0.7561462E-02  0.1210818E+00
         -2   -1    0    0    0  501 -0.00000000000E+00  0.00000000000E+00  0.17026162561E+03  0.17026162561E+03  0.00000000000E+00 0.  1.
          2   -1    0    0  501    0  0.00000000000E+00 -0.00000000000E+00 -0.13640884788E+03  0.13640884788E+03  0.00000000000E+00 0. -1.
         23    2    1    2    0    0 -0.71966294011E+02  0.90537800050E+02  0.22469745223E+02  0.13592232969E+03  0.67777205211E+02 0.  0.
          5    1    1    2  502    0  0.57223132910E+02 -0.11597058338E+03 -0.15979226606E+02  0.13037051520E+03  0.41800000000E+01 0.  1.
         -5    1    1    2    0  502  0.14743161101E+02  0.25432783332E+02  0.27362259111E+02  0.40377628595E+02  0.41800000000E+01 0.  1.
        -11    1    3    3    0    0 -0.28008893014E+02  0.71483425444E+02  0.37858947794E+02  0.85601858211E+02  0.00000000000E+00 0.  1.
         11    1    3    3    0    0 -0.43957400998E+02  0.19054374606E+02 -0.15389202571E+02  0.50320471479E+02  0.00000000000E+00 0. -1.
</event>
<event>
 7    1  0.6988825E-006  0.9347234E+02  0.7561462E-02  0.1294654E+00
         -2   -1    0    0    0  501 -0.00000000000E+00  0.00000000000E+00  0.16281315646E+03  0.16281315646E+03  0.00000000000E+00 0. -1.
          2   -1    0    0  501    0  0.00000000000E+00 -0.00000000000E+00 -0.95425394295E+02  0.95425394295E+02  0.00000000000E+00 0.  1.
         23    2    1    2    0    0  0.22197160212E+02  0.49532538294E+02  0.62389493695E+02  0.12179106881E+03  0.89411572218E+02 0.  0.
          5    1    1    2  502    0 -0.17199772239E+02 -0.70991181690E+02  0.48309484375E+02  0.87674732526E+02  0.41800000000E+01 0. -1.
         -5    1    1    2    0  502 -0.49973879727E+01  0.21458643396E+02 -0.43311215906E+02  0.48772749422E+02  0.41800000000E+01 0. -1.
        -11    1    3    3    0    0  0.40006356455E+02  0.13980219252E+01 -0.12308880831E+01  0.40049695474E+02  0.00000000000E+00 0.  1.
         11    1    3    3    0    0 -0.17809196243E+02  0.48134516369E+02  0.63620381778E+02  0.81741373334E+02  0.00000000000E+00 0. -1.
</event>
<event>
 7    1  0.6988825E-006  0.1210260E+03  0.7561462E-02  0.1241414E+00
          2   -1    0    0  501    0  0.00000000000E+00  0.00000000000E+00  0.72226200803E+02  0.72226200803E+02  0.00000000000E+00 0. -1.
         -2   -1    0    0    0  501 -0.00000000000E+00 -0.00000000000E+00 -0.29193227167E+03  0.29193227167E+03  0.00000000000E+00 0.  1.
         23    2    1    2    0    0  0.84784561006E+02 -0.39461320927E+02 -0.12090149078E+03  0.17936343766E+03  0.93853367879E+02 0.  0.
          5    1    1    2  502    0 -0.10378718387E+03 -0.59295899511E+00 -0.93849074092E+02  0.13999018624E+03  0.41800000000E+01 0. -1.
         -5    1    1    2    0  502  0.19002622860E+02  0.40054279922E+02 -0.49555059887E+01  0.44804848568E+02  0.41800000000E+01 0. -1.
        -11    1    3    3    0    0  0.29809429754E+02 -0.16502593935E+02 -0.11447868859E+03  0.11944165040E+03  0.00000000000E+00 0.  1.
         11    1    3    3    0    0  0.54975131252E+02 -0.22958726992E+02 -0.64228021983E+01  0.59921787268E+02  0.00000000000E+00 0. -1.
</event>
<event>
 7    1  0.6988825E-006  0.9789554E+02  0.7561462E-02  0.1284785E+00
          2   -1    0    0  501    0  0.00000000000E+00  0.00000000000E+00  0.56533223770E+03  0.56533223770E+03  0.00000000000E+00 0. -1.
         -2   -1    0    0    0  501 -0.00000000000E+00 -0.00000000000E+00 -0.31181585871E+02  0.31181585871E+02  0.00000000000E+00 0.  1.
         23    2    1    2    0    0 -0.74775462124E+02  0.12907363300E+02  0.22563503122E+03  0.25506517206E+03  0.91592057087E+02 0.  0.
          5    1    1    2  502    0  0.64992723437E+02 -0.14702620849E+01  0.31703355455E+03  0.32365716875E+03  0.41800000000E+01 0.  1.
         -5    1    1    2    0  502  0.97827386873E+01 -0.11437101216E+02 -0.85179339389E+01  0.17791482766E+02  0.41800000000E+01 0.  1.
        -11    1    3    3    0    0 -0.27447081296E+02  0.48555303832E+02  0.14206229466E+03  0.15261931518E+03  0.00000000000E+00 0. -1.
         11    1    3    3    0    0 -0.47328380828E+02 -0.35647940532E+02  0.83572736560E+02  0.10244585688E+03  0.00000000000E+00 0.  1.
</event>
<event>
 7    1  0.6988825E-006  0.2088566E+03  0.7561462E-02  0.1142475E+00
          1   -1    0    0  501    0  0.00000000000E+00  0.00000000000E+00  0.20837661868E+03  0.20837661868E+03  0.00000000000E+00 0. -1.
         -1   -1    0    0    0  501 -0.00000000000E+00 -0.00000000000E+00 -0.28821258452E+03  0.28821258452E+03  0.00000000000E+00 0.  1.
         23    2    1    2    0    0  0.56317392514E+02 -0.17801768404E+03 -0.15136273254E+03  0.26074255049E+03  0.10106461450E+03 0.  0.
          5    1    1    2  502    0  0.37598116696E+02  0.28449860805E+02  0.73957888212E+01  0.47908068749E+02  0.41800000000E+01 0.  1.
         -5    1    1    2    0  502 -0.93915509210E+02  0.14956782323E+03  0.64130977877E+02  0.18793858396E+03  0.41800000000E+01 0.  1.
        -11    1    3    3    0    0  0.65231605680E+02 -0.16847506140E+03 -0.16294314407E+03  0.24328887540E+03  0.00000000000E+00 0.  1.
         11    1    3    3    0    0 -0.89142131657E+01 -0.95426226335E+01  0.11580411525E+02  0.17453675091E+02  0.00000000000E+00 0. -1.
</event>
<event>
 7    1  0.6988825E-006  0.1105071E+03  0.7561462E-02  0.1259634E+00
          2   -1    0    0  501    0  0.00000000000E+00  0.00000000000E+00  0.41198655363E+03  0.41198655363E+03  0.00000000000E+00 0.  1.
         -2   -1    0    0    0  501 -0.00000000000E+00 -0.00000000000E+00 -0.58390256096E+02  0.58390256096E+02  0.00000000000E+00 0. -1.
         23    2    1    2    0    0  0.97838121581E+02 -0.37835760997E+02  0.10900281227E+03  0.17630252711E+03  0.90537976228E+02 0.  0.
          5    1    1    2  502    0 -0.96244144723E+02  0.40350368495E+02  0.25874036966E+03  0.27902533742E+03  0.41800000000E+01 0.  1.
         -5    1    1    2    0  502 -0.15939768572E+01 -0.25146074978E+01 -0.14146884398E+02  0.15048945188E+02  0.41800000000E+01 0.  1.
        -11    1    3    3    0    0  0.62557777467E+02 -0.42817698270E+02  0.17069150861E+02  0.77705770171E+02  0.00000000000E+00 0. -1.
         11    1    3    3    0    0  0.35280344113E+02  0.49819372723E+01  0.91933661409E+02  0.98596756944E+02  0.00000000000E+00 0.  1.
</event>
<event>
 7    1  0.6988825E-006  0.2408939E+03  0.7561462E-02  0.1119199E+00
          2   -1    0    0  501    0  0.00000000000E+00  0.00000000000E+00  0.95750827737E+03  0.95750827737E+03  0.00000000000E+00 0. -1.
         -2   -1    0    0    0  501 -0.00000000000E+00 -0.00000000000E+00 -0.72036190423E+02  0.72036190423E+02  0.00000000000E+00 0.  1.
         23    2    1    2    0    0 -0.22552149907E+03  0.13439331102E+02  0.27858877090E+03  0.37000246354E+03  0.90827075214E+02 0.  0.
          5    1    1    2  502    0  0.22927230958E+03  0.11517956602E+02  0.50929900016E+03  0.55866036124E+03  0.41800000000E+01 0. -1.
         -5    1    1    2    0  502 -0.37508105099E+01 -0.24957287704E+02  0.97584315896E+02  0.10088164302E+03  0.41800000000E+01 0. -1.
        -11    1    3    3    0    0 -0.14658413383E+03  0.17140457969E+02  0.11083452472E+03  0.18456704869E+03  0.00000000000E+00 0.  1.
         11    1    3    3    0    0 -0.78937365231E+02 -0.37011268673E+01  0.16775424618E+03  0.18543541485E+03  0.00000000000E+00 0. -1.
</event>
<event>
 7    1  0.6988825E-006  0.6568216E+02  0.7561462E-02  0.1375424E+00
         -2   -1    0    0    0  501 -0.00000000000E+00  0.00000000000E+00  0.29760051047E+02  0.29760051047E+02  0.00000000000E+00 0.  1.
          2   -1    0    0  501    0  0.00000000000E+00 -0.00000000000E+00 -0.67422191735E+03  0.67422191735E+03  0.00000000000E+00 0. -1.
         23    2    1    2    0    0 -0.62213007753E+02 -0.12053874336E+02 -0.13337232263E+03  0.17400444507E+03  0.92052247347E+02 0.  0.
          5    1    1    2  502    0  0.41487827197E+02 -0.32780569138E+01 -0.49976365689E+03  0.50151088783E+03  0.41800000000E+01 0.  1.
         -5    1    1    2    0  502  0.20725180556E+02  0.15331931249E+02 -0.11325886783E+02  0.28466635494E+02  0.41800000000E+01 0.  1.
        -11    1    3    3    0    0 -0.34373872759E+02 -0.79504840416E+01  0.23845138156E+01  0.35361832971E+02  0.00000000000E+00 0.  1.
         11    1    3    3    0    0 -0.27839134994E+02 -0.41033902941E+01 -0.13575683644E+03  0.13864261210E+03  0.00000000000E+00 0. -1.
</event>
<event>
 7    1  0.6988825E-006  0.9819578E+02  0.7561462E-02  0.1284136E+00
          3   -1    0    0  501    0  0.00000000000E+00  0.00000000000E+00  0.65384308933E+02  0.65384308933E+02  0.00000000000E+00 0. -1.
         -3   -1    0    0    0  501 -0.00000000000E+00 -0.00000000000E+00 -0.26192898864E+03  0.26192898864E+03  0.00000000000E+00 0.  1.
         23    2    1    2    0    0 -0.18180227753E+02 -0.69270129350E+02 -0.10666906969E+03  0.15745052543E+03  0.91013768346E+02 0.  0.
          5    1    1    2  502    0  0.13337090123E+02  0.77204787324E+02  0.95155441095E+00  0.78465502066E+02  0.41800000000E+01 0. -1.
         -5    1    1    2    0  502  0.48431376299E+01 -0.79346579745E+01 -0.90827164430E+02  0.91397270078E+02  0.41800000000E+01 0. -1.
        -11    1    3    3    0    0  0.16915797709E+02  0.10968708751E+02 -0.97112264873E+00  0.20184148806E+02  0.00000000000E+00 0. -1.
         11    1    3    3    0    0 -0.35096025462E+02 -0.80238838101E+02 -0.10569794704E+03  0.13726637663E+03  0.00000000000E+00 0.  1.
</event>
<event>
 7    1  0.6988825E-006  0.1488144E+03  0.7561462E-02  0.1201937E+00
          2   -1    0    0  501    0  0.00000000000E+00  0.00000000000E+00  0.76321487700E+03  0.76321487700E+03  0.00000000000E+00 0. -1.
         -2   -1    0    0    0  501 -0.00000000000E+00 -0.00000000000E+00 -0.50898088123E+02  0.50898088123E+02  0.00000000000E+00 0.  1.
         23    2    1    2    0    0 -0.11787759958E+03  0.21882973300E+02  0.11650306897E+03  0.19364240797E+03  0.97726271201E+02 0.  0.
          5    1    1    2  502    0  0.52242886838E+02  0.28911362797E+02  0.43841755015E+03  0.44248458369E+03  0.41800000000E+01 0.  1.
         -5    1    1    2    0  502  0.65634712738E+02 -0.50794336096E+02  0.15739616975E+03  0.17798597346E+03  0.41800000000E+01 0.  1.
        -11    1    3    3    0    0 -0.85384840457E+02 -0.32469589748E+02  0.68526422154E+02  0.11419595339E+03  0.00000000000E+00 0. -1.
         11    1    3    3    0    0 -0.32492759119E+02  0.54352563048E+02  0.47976646818E+02  0.79446454578E+02  0.00000000000E+00 0.  1.
</event>
<event>
 7    1  0.6988827E-006  0.2093319E+03  0.7561462E-02  0.1142096E+00
         -1   -1    0    0    0  501 -0.00000000000E+00  0.00000000000E+00  0.77622366833E+02  0.77622366833E+02  0.00000000000E+00 0.  1.
          1   -1    0    0  501    0  0.00000000000E+00 -0.00000000000E+00 -0.65786282812E+03  0.65786282812E+03  0.00000000000E+00 0. -1.
         23    2    1    2    0    0 -0.19659828968E+03  0.21094173544E+02 -0.29279635746E+03  0.36485433731E+03  0.91066617638E+02 0.  0.
          5    1    1    2  502    0  0.20187793020E+03 -0.35419869702E+02 -0.28942927457E+03  0.35467737911E+03  0.41800000000E+01 0. -1.
         -5    1    1    2    0  502 -0.52796405213E+01  0.14325696158E+02  0.19851707429E+01  0.15953478534E+02  0.41800000000E+01 0. -1.
        -11    1    3    3    0    0 -0.84914409293E+02  0.12296864360E+02 -0.54795650603E+02  0.10180487760E+03  0.00000000000E+00 0.  1.
         11    1    3    3    0    0 -0.11168388039E+03  0.87973091839E+01 -0.23800070686E+03  0.26304945971E+03  0.00000000000E+00 0. -1.
</event>
<event>
 7    1  0.6988825E-006  0.1702789E+03  0.7561462E-02  0.1177557E+00
          2   -1    0    0  501    0  0.00000000000E+00  0.00000000000E+00  0.14845553219E+03  0.14845553219E+03  0.00000000000E+00 0. -1.
         -2   -1    0    0    0  501 -0.00000000000E+00 -0.00000000000E+00 -0.26979452091E+03  0.26979452091E+03  0.00000000000E+00 0.  1.
         23    2    1    2    0    0 -0.21393101500E+02 -0.15223045700E+03 -0.12805050478E+03  0.21992937066E+03  0.91324802067E+02 0.  0.
          5    1    1    2  502    0 -0.14290019386E+02  0.20878340590E+02  0.49358258742E+02  0.55622116697E+02  0.41800000000E+01 0. -1.
         -5    1    1    2    0  502  0.35683120886E+02  0.13135211641E+03 -0.42646742678E+02  0.14269856574E+03  0.41800000000E+01 0. -1.
        -11    1    3    3    0    0  0.31664351780E+02 -0.23289081155E+02 -0.30729954300E+02  0.49893311836E+02  0.00000000000E+00 0.  1.
         11    1    3    3    0    0 -0.53057453279E+02 -0.12894137585E+03 -0.97320550483E+02  0.17003605882E+03  0.00000000000E+00 0. -1.
</event>
<event>
 7    1  0.6988825E-006  0.1021400E+03  0.7561462E-02  0.1275859E+00
          2   -1    0    0  501    0  0.00000000000E+00  0.00000000000E+00  0.11820502028E+03  0.11820502028E+03  0.00000000000E+00 0. -1.
         -2   -1    0    0    0  501 -0.00000000000E+00 -0.00000000000E+00 -0.17244232309E+03  0.17244232309E+03  0.00000000000E+00 0.  1.
         23    2    1    2    0    0  0.63126543285E+02 -0.15734218309E+02 -0.76451541338E+02  0.14791111565E+03  0.10862934165E+03 0.  0.
          5    1    1    2  502    0 -0.89456270476E+02 -0.19843939702E+02  0.32120953649E+02  0.97187624385E+02  0.41800000000E+01 0.  1.
         -5    1    1    2    0  502  0.26329727191E+02  0.35578158011E+02 -0.99067151176E+01  0.45548603336E+02  0.41800000000E+01 0.  1.
        -11    1    3    3    0    0  0.33553230252E+02  0.19995791742E+01  0.24264329348E+02  0.41455702333E+02  0.00000000000E+00 0. -1.
         11    1    3    3    0    0  0.29573313033E+02 -0.17733797483E+02 -0.10071587069E+03  0.10645541332E+03  0.00000000000E+00 0.  1.
</event>
<event>
 7    1  0.6988825E-006  0.1442910E+03  0.7561462E-02  0.1207669E+00
          2   -1    0    0  501    0  0.00000000000E+00  0.00000000000E+00  0.12281410072E+04  0.12281410072E+04  0.00000000000E+00 0. -1.
         -2   -1    0    0    0  501 -0.00000000000E+00 -0.00000000000E+00 -0.30182515677E+02  0.30182515677E+02  0.00000000000E+00 0.  1.
         23    2    1    2    0    0  0.10028902410E+03 -0.44845379917E+02  0.19511315953E+03  0.24175225314E+03  0.91137316295E+02 0.  0.
          5    1    1    2  502    0 -0.44310191681E+02  0.84111064979E+02  0.67234621042E+03  0.67904709955E+03  0.41800000000E+01 0. -1.
         -5    1    1    2    0  502 -0.55978832419E+02 -0.39265685062E+02  0.33049912162E+03  0.33752417023E+03  0.41800000000E+01 0. -1.
        -11    1    3    3    0    0  0.29413623162E+02 -0.45333477307E+02  0.14556848292E+03  0.15527546043E+03  0.00000000000E+00 0. -1.
         11    1    3    3    0    0  0.70875400938E+02  0.48809738978E+00  0.49544676617E+02  0.86476792715E+02  0.00000000000E+00 0.  1.
</event>
<event>
 7    1  0.6988825E-006  0.1998059E+03  0.7561462E-02  0.1149903E+00
          3   -1    0    0  501    0  0.00000000000E+00  0.00000000000E+00  0.73695729492E+03  0.73695729492E+03  0.00000000000E+00 0. -1.
         -3   -1    0    0    0  501 -0.00000000000E+00 -0.00000000000E+00 -0.92729939281E+02  0.92729939281E+02  0.00000000000E+00 0.  1.
         23    2    1    2    0    0  0.18164119287E+03 -0.34556415376E+02  0.77321134899E+02  0.22041087989E+03  0.91731833522E+02 0.  0.
          5    1    1    2  502    0 -0.53759556220E+02 -0.36912062478E+02  0.27484406448E+03  0.28250543786E+03  0.41800000000E+01 0. -1.
         -5    1    1    2    0  502 -0.12788163665E+03  0.71468477854E+02  0.29206215626E+03  0.32677091645E+03  0.41800000000E+01 0. -1.
        -11    1    3    3    0    0  0.77450800886E+02 -0.31099646820E+02  0.80716926737E+02  0.11610786731E+03  0.00000000000E+00 0. -1.
         11    1    3    3    0    0  0.10419039198E+03 -0.34567685562E+01 -0.33957918381E+01  0.10430301258E+03  0.00000000000E+00 0.  1.
</event>
<event>
 7    1  0.6988825E-006  0.1112877E+03  0.7561462E-02  0.1258204E+00
         -1   -1    0    0    0  501 -0.00000000000E+00  0.00000000000E+00  0.21259588238E+03  0.21259588238E+03  0.00000000000E+00 0.  1.
          1   -1    0    0  501    0  0.00000000000E+00 -0.00000000000E+00 -0.77148444525E+02  0.77148444525E+02  0.00000000000E+00 0. -1.
         23    2    1    2    0    0  0.48444063766E+02  0.11012492234E+02  0.11349641060E+03  0.15324648398E+03  0.90193942880E+02 0.  0.
          5    1    1    2  502    0  0.28564687884E+02  0.25170513379E+02 -0.18102206502E+02  0.42363408951E+02  0.41800000000E+01 0.  1.
         -5    1    1    2    0  502 -0.77008751649E+02 -0.36183005614E+02  0.40053233752E+02  0.94134433975E+02  0.41800000000E+01 0.  1.
        -11    1    3    3    0    0  0.45557034974E+02 -0.32193276506E+02  0.42672529132E+02  0.70233860995E+02  0.00000000000E+00 0. -1.
         11    1    3    3    0    0  0.28870287917E+01  0.43205768740E+02  0.70823881472E+02  0.83012622982E+02  0.00000000000E+00 0.  1.
</event>
<event>
 7    1  0.6988825E-006  0.1053195E+03  0.7561462E-02  0.1269491E+00
         -1   -1    0    0    0  501 -0.00000000000E+00  0.00000000000E+00  0.19317883317E+02  0.19317883317E+02  0.00000000000E+00 0.  1.
          1   -1    0    0  501    0  0.00000000000E+00 -0.00000000000E+00 -0.84872721612E+03  0.84872721612E+03  0.00000000000E+00 0. -1.
         23    2    1    2    0    0 -0.14869101679E+02  0.94693204704E+01 -0.14924873723E+03  0.17625267390E+03  0.92081818385E+02 0.  0.
          5    1    1    2  502    0 -0.51506641514E+01  0.51848496503E+02 -0.17885452425E+03  0.18633627982E+03  0.41800000000E+01 0.  1.
         -5    1    1    2    0  502  0.20019765830E+02 -0.61317816973E+02 -0.50130607132E+03  0.50545614572E+03  0.41800000000E+01 0.  1.
        -11    1    3    3    0    0 -0.37170250322E+02 -0.30418641986E+02 -0.74457427622E+02  0.88604908539E+02  0.00000000000E+00 0.  1.
         11    1    3    3    0    0  0.22301148643E+02  0.39887962456E+02 -0.74791309611E+02  0.87647765363E+02  0.00000000000E+00 0. -1.
</event>
<event>
 7    1  0.6988825E-006  0.2508696E+03  0.7561462E-02  0.1112756E+00
         -1   -1    0    0    0  501 -0.00000000000E+00  0.00000000000E+00  0.15492907854E+03  0.15492907854E+03  0.00000000000E+00 0.  1.
          1   -1    0    0  501    0  0.00000000000E+00 -0.00000000000E+00 -0.43580762545E+03  0.43580762545E+03  0.00000000000E+00 0. -1.
         23    2    1    2    0    0 -0.23453350778E+03 -0.57023558294E+01 -0.10864721374E+03  0.27395638302E+03  0.90605737166E+02 0.  0.
          5    1    1    2  502    0  0.20449038296E+02 -0.39197294882E+02 -0.13274838648E+02  0.46349593681E+02  0.41800000000E+01 0.  1.
         -5    1    1    2    0  502  0.21408446949E+03  0.44899650712E+02 -0.15895649453E+03  0.27043072729E+03  0.41800000000E+01 0.  1.
        -11    1    3    3    0    0 -0.69341057068E+02 -0.21513740857E+02  0.50791596373E+01  0.72779262868E+02  0.00000000000E+00 0.  1.
         11    1    3    3    0    0 -0.16519245072E+03  0.15811385028E+02 -0.11372637338E+03  0.20117712015E+03  0.00000000000E+00 0. -1.
</event>
<event>
 7    1  0.6988825E-006  0.1115925E+03  0.7561462E-02  0.1257649E+00
          2   -1    0    0  501    0  0.00000000000E+00  0.00000000000E+00  0.27031014390E+03  0.27031014390E+03  0.00000000000E+00 0. -1.
         -2   -1    0    0    0  501 -0.00000000000E+00 -0.00000000000E+00 -0.57031283916E+02  0.57031283916E+02  0.00000000000E+00 0.  1.
         23    2    1    2    0    0  0.25978501950E+02  0.30493078224E+02  0.34026674798E+02  0.10511690014E+03  0.91033168215E+02 0.  0.
          5    1    1    2  502    0 -0.14093107666E+02 -0.77308110642E+02  0.82542184867E+02  0.11404316874E+03  0.41800000000E+01 0.  1.
         -5    1    1    2    0  502 -0.11885394284E+02  0.46815032418E+02  0.96710000320E+02  0.10818135893E+03  0.41800000000E+01 0.  1.
        -11    1    3    3    0    0  0.34179966773E+02 -0.23448116590E+02  0.28444403433E+02  0.50270949731E+02  0.00000000000E+00 0.  1.
         11    1    3    3    0    0 -0.82014648228E+01  0.53941194814E+02  0.55822713642E+01  0.54845950414E+02  0.00000000000E+00 0. -1.
</event>
<event>
 7    1  0.6988825E-006  0.9674449E+02  0.7561462E-02  0.1287295E+00
         -2   -1    0    0    0  501 -0.00000000000E+00  0.00000000000E+00  0.42530942906E+02  0.42530942906E+02  0.00000000000E+00 0.  1.
          2   -1    0    0  501    0  0.00000000000E+00 -0.00000000000E+00 -0.37341889074E+03  0.37341889074E+03  0.00000000000E+00 0. -1.
         23    2    1    2    0    0  0.32210720958E+02 -0.21120844379E+02 -0.52813064458E+02  0.11116605400E+03  0.89916912603E+02 0.  0.
          5    1    1    2  502    0 -0.28287536282E+01  0.52398780702E+02 -0.24459220758E+03  0.25019283458E+03  0.41800000000E+01 0. -1.
         -5    1    1    2    0  502 -0.29381967330E+02 -0.31277936323E+02 -0.33482675794E+02  0.54590945065E+02  0.41800000000E+01 0.  1.
        -11    1    3    3    0    0  0.28073777452E+02 -0.55980939877E+02 -0.36103717806E+02  0.72287488885E+02  0.00000000000E+00 0.  1.
         11    1    3    3    0    0  0.41369435055E+01  0.34860095498E+02 -0.16709346652E+02  0.38878565113E+02  0.00000000000E+00 0. -1.
</event>
<event>
 7    1  0.6988825E-006  0.1123040E+03  0.7561462E-02  0.1256362E+00
         -2   -1    0    0    0  501 -0.00000000000E+00  0.00000000000E+00  0.31037687136E+02  0.31037687136E+02  0.00000000000E+00 0.  1.
          2   -1    0    0  501    0  0.00000000000E+00 -0.00000000000E+00 -0.78843521458E+03  0.78843521458E+03  0.00000000000E+00 0. -1.
         23    2    1    2    0    0 -0.31611949639E+02  0.52010274235E+02 -0.10722098401E+03  0.15458077208E+03  0.93244258262E+02 0.  0.
          5    1    1    2  502    0 -0.18912888371E+02  0.34081722514E+02 -0.18306429637E+03  0.18721450307E+03  0.41800000000E+01 0.  1.
         -5    1    1    2    0  502  0.50524838010E+02 -0.86091996749E+02 -0.46711224706E+03  0.47767762656E+03  0.41800000000E+01 0.  1.
        -11    1    3    3    0    0  0.57364633394E+01  0.47536299208E+02 -0.80987616727E+01  0.48561267432E+02  0.00000000000E+00 0.  1.
         11    1    3    3    0    0 -0.37348412979E+02  0.44739750275E+01 -0.99122222339E+02  0.10601950465E+03  0.00000000000E+00 0. -1.
</event>
<event>
 7    1  0.6988825E-006  0.1250588E+03  0.7561462E-02  0.1234977E+00
          2   -1    0    0  501    0  0.00000000000E+00  0.00000000000E+00  0.65184368672E+03  0.65184368672E+03  0.00000000000E+00 0. -1.
         -2   -1    0    0    0  501 -0.00000000000E+00 -0.00000000000E+00 -0.29853643962E+02  0.29853643962E+02  0.00000000000E+00 0.  1.
         23    2    1    2    0    0  0.78189257717E+02  0.38094941740E+01  0.22147166731E+03  0.25486178347E+03  0.98877484708E+02 0.  0.
          5    1    1    2  502    0 -0.42173799745E+02  0.55133900432E+02  0.12802558141E+03  0.14569282157E+03  0.41800000000E+01 0.  1.
         -5    1    1    2    0  502 -0.36015457972E+02 -0.58943394606E+02  0.27249279404E+03  0.28114272564E+03  0.41800000000E+01 0.  1.
        -11    1    3    3    0    0 -0.14201959167E+02 -0.10792485080E+02  0.99848284755E+02  0.10142905573E+03  0.00000000000E+00 0.  1.
         11    1    3    3    0    0  0.92391216884E+02  0.14601979254E+02  0.12162338255E+03  0.15343272773E+03  0.00000000000E+00 0. -1.
</event>
<event>
 7    1  0.6988825E-006  0.1020201E+03  0.7561462E-02  0.1276104E+00
          1   -1    0    0  501    0  0.00000000000E+00  0.00000000000E+00  0.13187444082E+03  0.13187444082E+03  0.00000000000E+00 0. -1.
         -1   -1    0    0    0  501 -0.00000000000E+00 -0.00000000000E+00 -0.16037537301E+03  0.16037537301E+03  0.00000000000E+00 0.  1.
         23    2    1    2    0    0  0.43254741622E+01 -0.55908881222E+02 -0.10078972628E+03  0.14762378334E+03  0.92139566735E+02 0.  0.
          5    1    1    2  502    0  0.41300880601E+02 -0.12134602683E+01 -0.28171335134E+00  0.41530554856E+02  0.41800000000E+01 0. -1.
         -5    1    1    2    0  502 -0.45626354763E+02  0.57122341491E+02  0.72570507444E+02  0.10309547564E+03  0.41800000000E+01 0.  1.
        -11    1    3    3    0    0  0.14699119496E+02 -0.70145123742E+02 -0.10713876712E+03  0.12889964282E+03  0.00000000000E+00 0.  1.
         11    1    3    3    0    0 -0.10373645333E+02  0.14236242520E+02  0.63490408436E+01  0.18724140520E+02  0.00000000000E+00 0. -1.
</event>
<event>
 7    1  0.6988825E-006  0.1498957E+03  0.7561462E-02  0.1200601E+00
          2   -1    0    0  501    0  0.00000000000E+00  0.00000000000E+00  0.19257324094E+03  0.19257324094E+03  0.00000000000E+00 0.  1.
         -2   -1    0    0    0  501 -0.00000000000E+00 -0.00000000000E+00 -0.11827613861E+03  0.11827613861E+03  0.00000000000E+00 0. -1.
         23    2    1    2    0    0 -0.45854413661E+01  0.10463344671E+03  0.46635928970E+02  0.14537484313E+03  0.89385405407E+02 0.  0.
          5    1    1    2  502    0 -0.59282971520E+02 -0.62060963679E+02  0.92005479087E+01  0.86418495746E+02  0.41800000000E+01 0.  1.
         -5    1    1    2    0  502  0.63868412887E+02 -0.42572483034E+02  0.18460625447E+02  0.79056040681E+02  0.41800000000E+01 0.  1.
        -11    1    3    3    0    0  0.40244652895E+02  0.68359546907E+02  0.34184546094E+02  0.86378486510E+02  0.00000000000E+00 0.  1.
         11    1    3    3    0    0 -0.44830094261E+02  0.36273899806E+02  0.12451382877E+02  0.58996356618E+02  0.00000000000E+00 0. -1.
</event>
<event>
 7    1  0.6988825E-006  0.8845741E+02  0.7561462E-02  0.1306631E+00
          3   -1    0    0  501    0  0.00000000000E+00  0.00000000000E+00  0.52766422358E+03  0.52766422358E+03  0.00000000000E+00 0. -1.
         -3   -1    0    0    0  501 -0.00000000000E+00 -0.00000000000E+00 -0.25321670124E+02  0.25321670124E+02  0.00000000000E+00 0.  1.
         23    2    1    2    0    0  0.19451347141E+02  0.12423038020E+02  0.13552797050E+03  0.16474342581E+03  0.90773778055E+02 0.  0.
          5    1    1    2  502    0 -0.60842616751E+02  0.17427327857E+01  0.95041425470E+02  0.11293894849E+03  0.41800000000E+01 0. -1.
         -5    1    1    2    0  502  0.41391269610E+02 -0.14165770805E+02  0.27177315749E+03  0.27530351940E+03  0.41800000000E+01 0. -1.
        -11    1    3    3    0    0  0.11305526890E+02 -0.28274871748E+02  0.11398104462E+03  0.11797864995E+03  0.00000000000E+00 0. -1.
         11    1    3    3    0    0  0.81458202508E+01  0.40697909768E+02  0.21546925876E+02  0.46764775866E+02  0.00000000000E+00 0.  1.
</event>
<event>
 7    1  0.6988825E-006  0.1439817E+03  0.7561462E-02  0.1208069E+00
          2   -1    0    0  501    0  0.00000000000E+00  0.00000000000E+00  0.95710292186E+03  0.95710292186E+03  0.00000000000E+00 0.  1.
         -2   -1    0    0    0  501 -0.00000000000E+00 -0.00000000000E+00 -0.25201759685E+02  0.25201759685E+02  0.00000000000E+00 0. -1.
         23    2    1    2    0    0 -0.39491510227E+02 -0.98646327350E+02  0.31749009900E+03  0.34635353600E+03  0.88713762493E+02 0.  0.
          5    1    1    2  502    0  0.76400831561E+02  0.65867152146E+02  0.51588511082E+03  0.52567146467E+03  0.41800000000E+01 0. -1.
         -5    1    1    2    0  502 -0.36909321334E+02  0.32779175204E+02  0.98525952351E+02  0.11027968088E+03  0.41800000000E+01 0. -1.
        -11    1    3    3    0    0 -0.54780222858E+02 -0.21552768908E+02  0.15643130701E+03  0.16714110350E+03  0.00000000000E+00 0.  1.
         11    1    3    3    0    0  0.15288712631E+02 -0.77093558441E+02  0.16105879199E+03  0.17921243251E+03  0.00000000000E+00 0. -1.
</event>
<event>
 7    1  0.6988825E-006  0.1002452E+03  0.7561462E-02  0.1279781E+00
          1   -1    0    0  501    0  0.00000000000E+00  0.00000000000E+00  0.96208950359E+03  0.96208950359E+03  0.00000000000E+00 0. -1.
         -1   -1    0    0    0  501 -0.00000000000E+00 -0.00000000000E+00 -0.24000426902E+02  0.24000426902E+02  0.00000000000E+00 0.  1.
         23    2    1    2    0    0  0.30420608555E+02 -0.44139715878E+02  0.12825149893E+03  0.16496742082E+03  0.88837351443E+02 0.  0.
          5    1    1    2  502    0  0.42453780908E+02  0.42401276231E+02  0.28905653440E+03  0.29524793686E+03  0.41800000000E+01 0. -1.
         -5    1    1    2    0  502 -0.72874389463E+02  0.17384396474E+01  0.52078104336E+03  0.52587457282E+03  0.41800000000E+01 0.  1.
        -11    1    3    3    0    0  0.37572295178E+02 -0.20859266443E+02  0.13333419280E+03  0.14008851963E+03  0.00000000000E+00 0. -1.
         11    1    3    3    0    0 -0.71516866229E+01 -0.23280449435E+02 -0.50826938733E+01  0.24878901191E+02  0.00000000000E+00 0.  1.
</event>
<event>
 7    1  0.6988825E-006  0.1021004E+03  0.7561462E-02  0.1275940E+00
          1   -1    0    0  501    0  0.00000000000E+00  0.00000000000E+00  0.58543256848E+02  0.58543256848E+02  0.00000000000E+00 0. -1.
         -1   -1    0    0    0  501 -0.00000000000E+00 -0.00000000000E+00 -0.26093249090E+03  0.26093249090E+03  0.00000000000E+00 0.  1.
         23    2    1    2    0    0 -0.23384160193E+02 -0.32535652602E+02 -0.14472092781E+03  0.17601858023E+03  0.91831399868E+02 0.  0.
          5    1    1    2  502    0 -0.41184972882E+02 -0.24126759550E+01  0.10937344501E+02  0.42884972907E+02  0.41800000000E+01 0. -1.
         -5    1    1    2    0  502  0.64569133075E+02  0.34948328557E+02 -0.68605650741E+02  0.10057219461E+03  0.41800000000E+01 0. -1.
        -11    1    3    3    0    0  0.12978479800E+02 -0.47968042266E+02 -0.11879234564E+03  0.12876721399E+03  0.00000000000E+00 0.  1.
         11    1    3    3    0    0 -0.36362639993E+02  0.15432389664E+02 -0.25928582173E+02  0.47251366240E+02  0.00000000000E+00 0. -1.
</event>
<event>
 7    1  0.6988825E-006  0.1170881E+03  0.7561462E-02  0.1247980E+00
         -3   -1    0    0    0  501 -0.00000000000E+00  0.00000000000E+00  0.40747240231E+02  0.40747240231E+02  0.00000000000E+00 0.  1.
          3   -1    0    0  501    0  0.00000000000E+00 -0.00000000000E+00 -0.11039583248E+04  0.11039583248E+04  0.00000000000E+00 0. -1.
         23    2    1    2    0    0  0.10258480266E+03 -0.29868070635E+02 -0.11503787901E+03  0.18268032832E+03  0.93395103549E+02 0.  0.
          5    1    1    2  502    0 -0.17503575386E+02 -0.14568831700E+02 -0.25817850683E+02  0.34679386129E+02  0.41800000000E+01 0.  1.
         -5    1    1    2    0  502 -0.85081227277E+02  0.44436902336E+02 -0.92235535485E+03  0.92734585055E+03  0.41800000000E+01 0. -1.
        -11    1    3    3    0    0  0.80223722668E+02 -0.40857796198E+02 -0.31300674196E+02  0.95314937937E+02  0.00000000000E+00 0.  1.
         11    1    3    3    0    0  0.22361079995E+02  0.10989725563E+02 -0.83737204816E+02  0.87365390384E+02  0.00000000000E+00 0. -1.
</event>
<event>
 7    1  0.6988825E-006  0.1062014E+03  0.7561462E-02  0.1267770E+00
          2   -1    0    0  501    0  0.00000000000E+00  0.00000000000E+00  0.15315150852E+03  0.15315150852E+03  0.00000000000E+00 0. -1.
         -2   -1    0    0    0  501 -0.00000000000E+00 -0.00000000000E+00 -0.10455491047E+03  0.10455491047E+03  0.00000000000E+00 0.  1.
         23    2    1    2    0    0  0.26533577669E+02  0.56177794362E+02  0.39076984585E+02  0.11771419211E+03  0.92030674106E+02 0.  0.
          5    1    1    2  502    0 -0.32437388042E+01 -0.93972528065E+02  0.14081018607E+02  0.95168825554E+02  0.41800000000E+01 0.  1.
         -5    1    1    2    0  502 -0.23289838865E+02  0.37794733703E+02 -0.45614051436E+01  0.44823401332E+02  0.41800000000E+01 0.  1.
        -11    1    3    3    0    0 -0.88431897625E+01  0.25063899725E+02  0.60408914179E+02  0.65997257420E+02  0.00000000000E+00 0. -1.
         11    1    3    3    0    0  0.35376767431E+02  0.31113894637E+02 -0.21331929595E+02  0.51716934689E+02  0.00000000000E+00 0.  1.
</event>
<event>
 7    1  0.6988825E-006  0.1387322E+03  0.7561462E-02  0.1215045E+00
         -2   -1    0    0    0  501 -0.00000000000E+00  0.00000000000E+00  0.92315096478E+02  0.92315096478E+02  0.00000000000E+00 0.  1.
          2   -1    0    0  501    0  0.00000000000E+00 -0.00000000000E+00 -0.31433076723E+03  0.31433076723E+03  0.00000000000E+00 0. -1.
         23    2    1    2    0    0 -0.11383310629E+03 -0.22355690552E+02 -0.27476736505E+02  0.14789902848E+03  0.87529415562E+02 0.  0.
          5    1    1    2  502    0  0.24828718299E+02  0.34582645750E+02  0.17726393176E+01  0.42814008100E+02  0.41800000000E+01 0. -1.
         -5    1    1    2    0  502  0.89004387992E+02 -0.12226955198E+02 -0.19631157356E+03  0.21593282713E+03  0.41800000000E+01 0. -1.
        -11    1    3    3    0    0  0.48846303010E+01 -0.25526426270E+02 -0.10059894019E+02  0.27868611716E+02  0.00000000000E+00 0.  1.
         11    1    3    3    0    0 -0.11871773659E+03  0.31707357176E+01 -0.17416842486E+02  0.12003041676E+03  0.00000000000E+00 0. -1.
</event>
<event>
 7    1  0.6988825E-006  0.2531510E+03  0.7561462E-02  0.1111329E+00
         -1   -1    0    0    0  501 -0.00000000000E+00  0.00000000000E+00  0.10894889138E+03  0.10894889138E+03  0.00000000000E+00 0.  1.
          1   -1    0    0  501    0  0.00000000000E+00 -0.00000000000E+00 -0.78636692310E+03  0.78636692310E+03  0.00000000000E+00 0. -1.
         23    2    1    2    0    0 -0.18205983418E+03 -0.15890328008E+03 -0.14092175668E+03  0.29375812005E+03  0.89659667338E+02 0.  0.
          5    1    1    2  502    0  0.14224917522E+03  0.15150426198E+03 -0.51533987277E+03  0.55568068719E+03  0.41800000000E+01 0. -1.
         -5    1    1    2    0  502  0.39810658962E+02  0.73990180935E+01 -0.21156402269E+02  0.45877007234E+02  0.41800000000E+01 0. -1.
        -11    1    3    3    0    0 -0.13135565729E+03 -0.55560485020E+02 -0.76386439472E+02  0.16179049519E+03  0.00000000000E+00 0.  1.
         11    1    3    3    0    0 -0.50704176890E+02 -0.10334279506E+03 -0.64535317207E+02  0.13196762486E+03  0.00000000000E+00 0. -1.
</event>
<event>
 7    1  0.6988825E-006  0.9894151E+02  0.7561462E-02  0.1282538E+00
          1   -1    0    0  501    0  0.00000000000E+00  0.00000000000E+00  0.14278534161E+03  0.14278534161E+03  0.00000000000E+00 0. -1.
         -1   -1    0    0    0  501 -0.00000000000E+00 -0.00000000000E+00 -0.90251261158E+02  0.90251261158E+02  0.00000000000E+00 0.  1.
         23    2    1    2    0    0 -0.40926269564E+02  0.37731920518E+01  0.29083427723E+02  0.99295762400E+02  0.85583912879E+02 0.  0.
          5    1    1    2  502    0  0.21386064501E+02  0.58126181699E+02 -0.59480916173E+01  0.62360796561E+02  0.41800000000E+01 0.  1.
         -5    1    1    2    0  502  0.19540205063E+02 -0.61899373751E+02  0.29398744345E+02  0.71380043806E+02  0.41800000000E+01 0.  1.
        -11    1    3    3    0    0 -0.30835649299E+02  0.29778606133E+02 -0.16435224755E+02  0.45909903764E+02  0.00000000000E+00 0.  1.
         11    1    3    3    0    0 -0.10090620266E+02 -0.26005414081E+02  0.45518652478E+02  0.53385858636E+02  0.00000000000E+00 0. -1.
</event>
<event>
 7    1  0.6988825E-006  0.1587534E+03  0.7561462E-02  0.1190111E+00
          1   -1    0    0  501    0  0.00000000000E+00  0.00000000000E+00  0.21241964312E+03  0.21241964312E+03  0.00000000000E+00 0. -1.
         -1   -1    0    0    0  501 -0.00000000000E+00 -0.00000000000E+00 -0.18952821751E+03  0.18952821751E+03  0.00000000000E+00 0.  1.
         23    2    1    2    0    0 -0.11971539584E+03  0.22468581593E+02 -0.10636132955E+03  0.18471134775E+03  0.89268899413E+02 0.  0.
          5    1    1    2  502    0 -0.21783206299E+02  0.41369327391E+01 -0.16208919158E+01  0.22621272727E+02  0.41800000000E+01 0.  1.
         -5    1    1    2    0  502  0.14149860214E+03 -0.26605514332E+02  0.13087364708E+03  0.19461524016E+03  0.41800000000E+01 0.  1.
        -11    1    3    3    0    0 -0.92077321696E+02 -0.25500547183E+02 -0.70722164529E+02  0.11887024705E+03  0.00000000000E+00 0. -1.
         11    1    3    3    0    0 -0.27638074146E+02  0.47969128775E+02 -0.35639165021E+02  0.65841100700E+02  0.00000000000E+00 0.  1.
</event>
<event>
 7    1  0.6988825E-006  0.1031977E+03  0.7561462E-02  0.1273712E+00
         -1   -1    0    0    0  501 -0.00000000000E+00  0.00000000000E+00  0.35221071603E+02  0.35221071603E+02  0.00000000000E+00 0.  1.
          1   -1    0    0  501    0  0.00000000000E+00 -0.00000000000E+00 -0.37658910220E+03  0.37658910220E+03  0.00000000000E+00 0. -1.
         23    2    1    2    0    0  0.45223992745E+01  0.94566861194E+01 -0.13608260909E+03  0.17118748404E+03  0.10332858843E+03 0.  0.
          5    1    1    2  502    0 -0.29816310716E+02  0.51080411970E+02 -0.10802260191E+03  0.12322571077E+03  0.41800000000E+01 0. -1.
         -5    1    1    2    0  502  0.25293911441E+02 -0.60537098090E+02 -0.97262819594E+02  0.11739697899E+03  0.41800000000E+01 0. -1.
        -11    1    3    3    0    0  0.26247811736E+02 -0.27799072365E+02 -0.12387269753E+02  0.40189308246E+02  0.00000000000E+00 0.  1.
         11    1    3    3    0    0 -0.21725412462E+02  0.37255758485E+02 -0.12369533934E+03  0.13099817579E+03  0.00000000000E+00 0. -1.
</event>
<event>
 6    1  0.6988825E-006  0.3270003E+03  0.7561462E-02  0.1072472E+00
          2   -1    0    0  501    0  0.00000000000E+00  0.00000000000E+00  0.38033738034E+03  0.38033738034E+03  0.00000000000E+00 0. -1.
         -2   -1    0    0    0  501 -0.00000000000E+00 -0.00000000000E+00 -0.43704748888E+03  0.43704748888E+03  0.00000000000E+00 0.  1.
          5    1    1    2  502    0 -0.24385372180E+03  0.18896401008E+03  0.21447916907E+03  0.37575367078E+03  0.41800000000E+01 0. -1.
         -5    1    1    2    0  502  0.19855324878E+03 -0.21175993240E+03 -0.20595829867E+03  0.35595218044E+03  0.41800000000E+01 0.  1.
        -11    1    1    2    0    0  0.10150654690E+02  0.16611527455E+02 -0.18293085178E+02  0.26713584566E+02  0.00000000000E+00 0. -1.
         11    1    1    2    0    0  0.35149818330E+02  0.61843948642E+01 -0.46937893769E+02  0.58965433433E+02  0.00000000000E+00 0.  1.
</event>
<event>
 7    1  0.6988825E-006  0.1101181E+03  0.7561462E-02  0.1260351E+00
          1   -1    0    0  501    0  0.00000000000E+00  0.00000000000E+00  0.12095870132E+03  0.12095870132E+03  0.00000000000E+00 0. -1.
         -1   -1    0    0    0  501 -0.00000000000E+00 -0.00000000000E+00 -0.14763359364E+03  0.14763359364E+03  0.00000000000E+00 0.  1.
         23    2    1    2    0    0  0.40987819885E+02 -0.56115220763E+02 -0.46348488483E+02  0.12384033947E+03  0.91429360242E+02 0.  0.
          5    1    1    2  502    0  0.21631568721E+02  0.74627020914E+02  0.72214260898E+01  0.78145623106E+02  0.41800000000E+01 0. -1.
         -5    1    1    2    0  502 -0.62619388606E+02 -0.18511800151E+02  0.12452170080E+02  0.66606332387E+02  0.41800000000E+01 0. -1.
        -11    1    3    3    0    0  0.25073664998E+02 -0.80074401774E+01  0.25018235145E+02  0.36314182690E+02  0.00000000000E+00 0. -1.
         11    1    3    3    0    0  0.15914154887E+02 -0.48107780585E+02 -0.71366723629E+02  0.87526156777E+02  0.00000000000E+00 0.  1.
</event>
<event>
 7    1  0.6988825E-006  0.9153687E+02  0.7561462E-02  0.1299172E+00
         -2   -1    0    0    0  501 -0.00000000000E+00  0.00000000000E+00  0.32944506226E+02  0.32944506226E+02  0.00000000000E+00 0.  1.
          2   -1    0    0  501    0  0.00000000000E+00 -0.00000000000E+00 -0.48891319215E+03  0.48891319215E+03  0.00000000000E+00 0. -1.
         23    2    1    2    0    0  0.55235255459E+01  0.46953973785E+02 -0.12143911181E+03  0.16159100487E+03  0.95545852816E+02 0.  0.
          5    1    1    2  502    0  0.41930732794E+02 -0.50074294380E+02 -0.28109119186E+03  0.28860934124E+03  0.41800000000E+01 0. -1.
         -5    1    1    2    0  502 -0.47454258340E+02  0.31203205953E+01 -0.53438382255E+02  0.71657352262E+02  0.41800000000E+01 0. -1.
        -11    1    3    3    0    0 -0.15345245475E+02 -0.31026218758E+01  0.10560643254E+02  0.18884650040E+02  0.00000000000E+00 0.  1.
         11    1    3    3    0    0  0.20868771021E+02  0.50056595661E+02 -0.13199975507E+03  0.14270635484E+03  0.00000000000E+00 0. -1.
</event>
<event>
 7    1  0.6988825E-006  0.1268360E+03  0.7561462E-02  0.1232227E+00
          2   -1    0    0  501    0  0.00000000000E+00  0.00000000000E+00  0.16653534918E+03  0.16653534918E+03  0.00000000000E+00 0. -1.
         -2   -1    0    0    0  501 -0.00000000000E+00 -0.00000000000E+00 -0.11818864796E+03  0.11818864796E+03  0.00000000000E+00 0.  1.
         23    2    1    2    0    0  0.81561918165E+02 -0.10370758737E+02 -0.12736573643E+02  0.12304881362E+03  0.90658099982E+02 0.  0.
          5    1    1    2  502    0 -0.91885766342E+02 -0.24312961484E+02  0.56032961447E+01  0.95304687608E+02  0.41800000000E+01 0. -1.
         -5    1    1    2    0  502  0.10323848177E+02  0.34683720221E+02  0.55479978721E+02  0.66370495919E+02  0.41800000000E+01 0. -1.
        -11    1    3    3    0    0  0.68567904872E+02  0.33525361473E+02 -0.38984703961E+01  0.76424508581E+02  0.00000000000E+00 0.  1.
         11    1    3    3    0    0  0.12994013293E+02 -0.43896120210E+02 -0.88381032472E+01  0.46624305034E+02  0.00000000000E+00 0. -1.
</event>
<event>
 7    1  0.6988825E-006  0.9557849E+02  0.7561462E-02  0.1289878E+00
          1   -1    0    0  501    0  0.00000000000E+00  0.00000000000E+00  0.21945374472E+02  0.21945374472E+02  0.00000000000E+00 0. -1.
         -1   -1    0    0    0  501 -0.00000000000E+00 -0.00000000000E+00 -0.63772626229E+03  0.63772626229E+03  0.00000000000E+00 0.  1.
         23    2    1    2    0    0  0.10131691338E+02 -0.40436591894E+02 -0.32825067842E+03  0.34334686642E+03  0.91655843596E+02 0.  0.
          5    1    1    2  502    0  0.34831588441E+02  0.45349398123E+02 -0.55174626734E+02  0.79570844527E+02  0.41800000000E+01 0.  1.
         -5    1    1    2    0  502 -0.44963279779E+02 -0.49128062288E+01 -0.23235558266E+03  0.23675392581E+03  0.41800000000E+01 0.  1.
        -11    1    3    3    0    0 -0.34185646449E+02 -0.19878770003E+02 -0.23265043008E+03  0.23598738640E+03  0.00000000000E+00 0. -1.
         11    1    3    3    0    0  0.44317337787E+02 -0.20557821891E+02 -0.95600248338E+02  0.10735948003E+03  0.00000000000E+00 0.  1.
</event>
<event>
 7    1  0.6988825E-006  0.1139154E+03  0.7561462E-02  0.1253486E+00
         -1   -1    0    0    0  501 -0.00000000000E+00  0.00000000000E+00  0.16479393921E+03  0.16479393921E+03  0.00000000000E+00 0.  1.
          1   -1    0    0  501    0  0.00000000000E+00 -0.00000000000E+00 -0.13227740084E+03  0.13227740084E+03  0.00000000000E+00 0. -1.
         23    2    1    2    0    0 -0.18552860420E+02 -0.75823258314E+02  0.77720925980E+02  0.14284410108E+03  0.90942397955E+02 0.  0.
          5    1    1    2  502    0  0.30677663333E+02  0.10770359118E+03 -0.42143948479E+02  0.11972788888E+03  0.41800000000E+01 0.  1.
         -5    1    1    2    0  502 -0.12124802913E+02 -0.31880332871E+02 -0.30604391295E+01  0.34499350100E+02  0.41800000000E+01 0.  1.
        -11    1    3    3    0    0 -0.13479025401E+02 -0.14231332710E+02 -0.19496366450E+02  0.27646396894E+02  0.00000000000E+00 0. -1.
         11    1    3    3    0    0 -0.50738350188E+01 -0.61591925604E+02  0.97217292430E+02  0.11519770418E+03  0.00000000000E+00 0.  1.
</event>
<event>
 7    1  0.6988825E-006  0.2308594E+03  0.7561462E-02  0.1126036E+00
         -1   -1    0    0    0  501 -0.00000000000E+00  0.00000000000E+00  0.27332085368E+03  0.27332085368E+03  0.00000000000E+00 0.  1.
          1   -1    0    0  501    0  0.00000000000E+00 -0.00000000000E+00 -0.42600927853E+03  0.42600927853E+03  0.00000000000E+00 0. -1.
         23    2    1    2    0    0  0.39357799409E+02 -0.10635080775E+03  0.10398147813E+03  0.17910936729E+03  0.91697802439E+02 0.  0.
          5    1    1    2  502    0 -0.15362703358E+03 -0.10103628801E+02 -0.31195567291E+03  0.34790395661E+03  0.41800000000E+01 0. -1.
         -5    1    1    2    0  502  0.11426923417E+03  0.11645443655E+03  0.55285769925E+02  0.17231680831E+03  0.41800000000E+01 0.  1.
        -11    1    3    3    0    0  0.59397208731E+02 -0.31952594697E+02  0.36514663136E+02  0.76696266772E+02  0.00000000000E+00 0.  1.
         11    1    3    3    0    0 -0.20039409322E+02 -0.74398213051E+02  0.67466814996E+02  0.10241310051E+03  0.00000000000E+00 0. -1.
</event>
<event>
 7    1  0.6988825E-006  0.2447388E+03  0.7561462E-02  0.1116676E+00
          2   -1    0    0  501    0  0.00000000000E+00  0.00000000000E+00  0.18521169243E+04  0.18521169243E+04  0.00000000000E+00 0. -1.
         -2   -1    0    0    0  501 -0.00000000000E+00 -0.00000000000E+00 -0.37040250466E+02  0.37040250466E+02  0.00000000000E+00 0.  1.
         23    2    1    2    0    0  0.60463073030E+02 -0.22643105579E+03  0.72982476702E+03  0.77186108276E+03  0.90545758032E+02 0.  0.
          5    1    1    2  502    0 -0.65179292298E+02  0.17828727986E+03  0.10103273685E+04  0.10280143765E+04  0.41800000000E+01 0.  1.
         -5    1    1    2    0  502  0.47162192675E+01  0.48143775931E+02  0.74924538285E+02  0.89281715498E+02  0.41800000000E+01 0.  1.
        -11    1    3    3    0    0 -0.13717378372E+02 -0.12302448456E+03  0.34453120317E+03  0.36609416853E+03  0.00000000000E+00 0.  1.
         11    1    3    3    0    0  0.74180451402E+02 -0.10340657124E+03  0.38529356385E+03  0.40576691423E+03  0.00000000000E+00 0. -1.
</event>
<event>
 7    1  0.6988825E-006  0.1140833E+03  0.7561462E-02  0.1253190E+00
          2   -1    0    0  501    0  0.00000000000E+00  0.00000000000E+00  0.65755442436E+03  0.65755442436E+03  0.00000000000E+00 0. -1.
         -2   -1    0    0    0  501 -0.00000000000E+00 -0.00000000000E+00 -0.29024839290E+02  0.29024839290E+02  0.00000000000E+00 0.  1.
         23    2    1    2    0    0  0.17370705392E+01 -0.64042868469E+02  0.14910563074E+03  0.18696915542E+03  0.92846483739E+02 0.  0.
          5    1    1    2  502    0  0.42420859847E+02  0.81863362425E+02  0.33494943536E+03  0.34743306709E+03  0.41800000000E+01 0.  1.
         -5    1    1    2    0  502 -0.44157930386E+02 -0.17820493956E+02  0.14447451897E+03  0.15217704115E+03  0.41800000000E+01 0.  1.
        -11    1    3    3    0    0 -0.26212121775E+02 -0.11643719484E+02  0.24984932340E+01  0.28790519269E+02  0.00000000000E+00 0.  1.
         11    1    3    3    0    0  0.27949192314E+02 -0.52399148985E+02  0.14660713751E+03  0.15817863615E+03  0.00000000000E+00 0. -1.
</event>
<event>
 7    1  0.6988825E-006  0.1047311E+03  0.7561462E-02  0.1270650E+00
         -2   -1    0    0    0  501 -0.00000000000E+00  0.00000000000E+00  0.12368210839E+03  0.12368210839E+03  0.00000000000E+00 0.  1.
          2   -1    0    0  501    0  0.00000000000E+00 -0.00000000000E+00 -0.11671800385E+03  0.11671800385E+03  0.00000000000E+00 0. -1.
         23    2    1    2    0    0  0.28827625825E+01  0.30221154445E+02  0.46488714266E+02  0.10574709182E+03  0.89997879850E+02 0.  0.
          5    1    1    2  502    0  0.35615477038E+02  0.27590435065E+02  0.13446983530E+02  0.47201568595E+02  0.41800000000E+01 0. -1.
         -5    1    1    2    0  502 -0.38498239621E+02 -0.57811589510E+02 -0.52971593253E+02  0.87451451831E+02  0.41800000000E+01 0. -1.
        -11    1    3    3    0    0 -0.34546378124E+02 -0.13490413289E+02  0.22661218740E+02  0.43462332277E+02  0.00000000000E+00 0.  1.
         11    1    3    3    0    0  0.37429140707E+02  0.43711567734E+02  0.23827495527E+02  0.62284759540E+02  0.00000000000E+00 0. -1.
</event>
<event>
 7    1  0.6988825E-006  0.8626428E+02  0.7561462E-02  0.1312159E+00
         -1   -1    0    0    0  501 -0.00000000000E+00  0.00000000000E+00  0.15961961461E+03  0.15961961461E+03  0.00000000000E+00 0.  1.
          1   -1    0    0  501    0  0.00000000000E+00 -0.00000000000E+00 -0.12949636867E+03  0.12949636867E+03  0.00000000000E+00 0. -1.
         23    2    1    2    0    0 -0.30486809940E+01  0.32769948215E+01  0.10880767111E+03  0.14126878336E+03  0.89987369718E+02 0.  0.
          5    1    1    2  502    0  0.48818752161E+02 -0.39116619290E+02 -0.21725899890E+02  0.66354107584E+02  0.41800000000E+01 0.  1.
         -5    1    1    2    0  502 -0.45770071167E+02  0.35839624469E+02 -0.56958525280E+02  0.81493092338E+02  0.41800000000E+01 0.  1.
        -11    1    3    3    0    0  0.47003590174E+00  0.27282992381E+02  0.11334701879E+03  0.11658528756E+03  0.00000000000E+00 0.  1.
         11    1    3    3    0    0 -0.35187168958E+01 -0.24005997559E+02 -0.45393476822E+01  0.24683495797E+02  0.00000000000E+00 0. -1.
</event>
<event>
 7    1  0.6988825E-006  0.2234275E+03  0.7561462E-02  0.1131353E+00
         -2   -1    0    0    0  501 -0.00000000000E+00  0.00000000000E+00  0.89920641177E+02  0.89920641177E+02  0.00000000000E+00 0.  1.
          2   -1    0    0  501    0  0.00000000000E+00 -0.00000000000E+00 -0.73064004061E+03  0.73064004061E+03  0.00000000000E+00 0. -1.
         23    2    1    2    0    0  0.93605130317E+02 -0.19337822823E+03 -0.17194310141E+03  0.28994215005E+03  0.91350756325E+02 0.  0.
          5    1    1    2  502    0 -0.39057536894E+02  0.11861080931E+03 -0.13380552119E+03  0.18307213107E+03  0.41800000000E+01 0. -1.
         -5    1    1    2    0  502 -0.54547593423E+02  0.74767418920E+02 -0.33497077683E+03  0.34754640066E+03  0.41800000000E+01 0. -1.
        -11    1    3    3    0    0  0.28388268447E+02 -0.14579648021E+03 -0.84320509231E+02  0.17079946049E+03  0.00000000000E+00 0.  1.
         11    1    3    3    0    0  0.65216861870E+02 -0.47581748023E+02 -0.87622592177E+02  0.11914268957E+03  0.00000000000E+00 0. -1.
</event>
<event>
 7    1  0.6988825E-006  0.1106110E+03  0.7561462E-02  0.1259443E+00
         -2   -1    0    0    0  501 -0.00000000000E+00  0.00000000000E+00  0.14782664556E+02  0.14782664556E+02  0.00000000000E+00 0. -1.
          2   -1    0    0  501    0  0.00000000000E+00 -0.00000000000E+00 -0.13004753277E+04  0.13004753277E+04  0.00000000000E+00 0.  1.
         23    2    1    2    0    0  0.20899852473E+02  0.25400477314E+02 -0.20009743490E+03  0.22198457177E+03  0.90311563887E+02 0.  0.
          5    1    1    2  502    0  0.38768353753E+02  0.26297340932E+02 -0.52978317683E+03  0.53186673353E+03  0.41800000000E+01 0.  1.
         -5    1    1    2    0  502 -0.59668206226E+02 -0.51697818247E+02 -0.55581205143E+03  0.56140668696E+03  0.41800000000E+01 0.  1.
        -11    1    3    3    0    0  0.46517340585E+02 -0.13603694857E+02 -0.11775202649E+03  0.12733602487E+03  0.00000000000E+00 0.  1.
         11    1    3    3    0    0 -0.25617488112E+02  0.39004172171E+02 -0.82345408410E+02  0.94648546900E+02  0.00000000000E+00 0. -1.
</event>
<event>
 7    1  0.6988825E-006  0.8568413E+02  0.7561462E-02  0.1313653E+00
         -2   -1    0    0    0  501 -0.00000000000E+00  0.00000000000E+00  0.55120787580E+02  0.55120787580E+02  0.00000000000E+00 0.  1.
          2   -1    0    0  501    0  0.00000000000E+00 -0.00000000000E+00 -0.26331342232E+03  0.26331342232E+03  0.00000000000E+00 0. -1.
         23    2    1    2    0    0 -0.44576229287E+01 -0.26322702367E+02 -0.16928730314E+02  0.95093728251E+02  0.89685451332E+02 0.  0.
          5    1    1    2  502    0 -0.29429706069E+02  0.57577192866E+02 -0.14001355382E+03  0.15428061573E+03  0.41800000000E+01 0. -1.
         -5    1    1    2    0  502  0.33887328998E+02 -0.31254490498E+02 -0.51250350601E+02  0.69059865911E+02  0.41800000000E+01 0.  1.
        -11    1    3    3    0    0  0.19166617543E+02  0.61461794585E+01 -0.42821000224E+02  0.47315671929E+02  0.00000000000E+00 0.  1.
         11    1    3    3    0    0 -0.23624240471E+02 -0.32468881826E+02  0.25892269910E+02  0.47778056322E+02  0.00000000000E+00 0. -1.
</event>
<event>
 7    1  0.6988825E-006  0.1313110E+03  0.7561462E-02  0.1225523E+00
         -1   -1    0    0    0  501 -0.00000000000E+00  0.00000000000E+00  0.82893969450E+03  0.82893969450E+03  0.00000000000E+00 0.  1.
          1   -1    0    0  501    0  0.00000000000E+00 -0.00000000000E+00 -0.27768846477E+02  0.27768846477E+02  0.00000000000E+00 0. -1.
         23    2    1    2    0    0  0.90794301314E+02  0.54914746378E+02  0.36421360851E+03  0.38997650024E+03  0.90392939973E+02 0.  0.
          5    1    1    2  502    0 -0.57997918526E+02 -0.66466681691E+02  0.12633328367E+03  0.15414003144E+03  0.41800000000E+01 0. -1.
         -5    1    1    2    0  502 -0.32796382788E+02  0.11551935313E+02  0.31062395584E+03  0.31259200930E+03  0.41800000000E+01 0. -1.
        -11    1    3    3    0    0  0.46811509856E+02  0.76968397021E+02  0.22827830398E+03  0.24541074887E+03  0.00000000000E+00 0.  1.
         11    1    3    3    0    0  0.43982791458E+02 -0.22053650643E+02  0.13593530453E+03  0.14456575137E+03  0.00000000000E+00 0. -1.
</event>
<event>
 7    1  0.6988825E-006  0.1272318E+03  0.7561462E-02  0.1231622E+00
         -1   -1    0    0    0  501 -0.00000000000E+00  0.00000000000E+00  0.11494479996E+02  0.11494479996E+02  0.00000000000E+00 0.  1.
          1   -1    0    0  501    0  0.00000000000E+00 -0.00000000000E+00 -0.23987795748E+04  0.23987795748E+04  0.00000000000E+00 0. -1.
         23    2    1    2    0    0 -0.71453253104E+02  0.46623067393E+02 -0.43163599018E+03  0.44877204276E+03  0.88359722415E+02 0.  0.
          5    1    1    2  502    0  0.62747212628E+02 -0.85438458885E+02 -0.11575252434E+04  0.11623764900E+04  0.41800000000E+01 0.  1.
         -5    1    1    2    0  502  0.87060404757E+01  0.38815391492E+02 -0.79812386121E+03  0.79912552205E+03  0.41800000000E+01 0.  1.
        -11    1    3    3    0    0 -0.13026289008E+02  0.48200550766E+02 -0.97273118511E+02  0.10933909129E+03  0.00000000000E+00 0.  1.
         11    1    3    3    0    0 -0.58426964096E+02 -0.15774833722E+01 -0.33436287167E+03  0.33943295146E+03  0.00000000000E+00 0. -1.
</event>
<event>
 7    1  0.6988825E-006  0.1385680E+03  0.7561462E-02  0.1215269E+00
          2   -1    0    0  501    0  0.00000000000E+00  0.00000000000E+00  0.34727932060E+03  0.34727932060E+03  0.00000000000E+00 0. -1.
         -2   -1    0    0    0  501 -0.00000000000E+00 -0.00000000000E+00 -0.12319248805E+03  0.12319248805E+03  0.00000000000E+00 0.  1.
         23    2    1    2    0    0 -0.43113512086E+01 -0.10443887240E+03 -0.54228736804E+02  0.14793114783E+03  0.89536600248E+02 0.  0.
          5    1    1    2  502    0 -0.46016285837E+02  0.43558282645E+02  0.20528764002E+03  0.21488441101E+03  0.41800000000E+01 0.  1.
         -5    1    1    2    0  502  0.50327637045E+02  0.60880589758E+02  0.73027929331E+02  0.10765624981E+03  0.41800000000E+01 0.  1.
        -11    1    3    3    0    0  0.40112408485E+02 -0.44199859611E+02 -0.39703594536E+02  0.71686876924E+02  0.00000000000E+00 0. -1.
         11    1    3    3    0    0 -0.44423759694E+02 -0.60239012792E+02 -0.14525142268E+02  0.76244270903E+02  0.00000000000E+00 0.  1.
</event>
<event>
 7    1  0.6988825E-006  0.3504130E+03  0.7561462E-02  0.1062446E+00
          2   -1    0    0  501    0  0.00000000000E+00  0.00000000000E+00  0.77929049593E+02  0.77929049593E+02  0.00000000000E+00 0. -1.
         -2   -1    0    0    0  501 -0.00000000000E+00 -0.00000000000E+00 -0.16381537895E+04  0.16381537895E+04  0.00000000000E+00 0.  1.
         23    2    1    2    0    0  0.33358069165E+03 -0.51370229739E+02 -0.87213721990E+03  0.93953474810E+03  0.90483336591E+02 0.  0.
          5    1    1    2  502    0 -0.92877467322E+02 -0.31185564093E+02 -0.26805089530E+03  0.28542515343E+03  0.41800000000E+01 0. -1.
         -5    1    1    2    0  502 -0.24070322433E+03  0.82555793831E+02 -0.42003662467E+03  0.49112293752E+03  0.41800000000E+01 0. -1.
        -11    1    3    3    0    0  0.12352674977E+03  0.22575128011E+02 -0.35216258513E+03  0.37388097127E+03  0.00000000000E+00 0. -1.
         11    1    3    3    0    0  0.21005394188E+03 -0.73945357750E+02 -0.51997463478E+03  0.56565377683E+03  0.00000000000E+00 0.  1.
</event>
<event>
 7    1  0.6988825E-006  0.1158136E+03  0.7561462E-02  0.1250168E+00
          2   -1    0    0  501    0  0.00000000000E+00  0.00000000000E+00  0.29722761105E+03  0.29722761105E+03  0.00000000000E+00 0. -1.
         -2   -1    0    0    0  501 -0.00000000000E+00 -0.00000000000E+00 -0.69000746051E+02  0.69000746051E+02  0.00000000000E+00 0.  1.
         23    2    1    2    0    0 -0.65281321001E+02 -0.29321977754E+02  0.26939588618E+02  0.11866986225E+03  0.90748914711E+02 0.  0.
          5    1    1    2  502    0  0.19941899899E+02 -0.40551014157E+02  0.13050851473E+03  0.13817383593E+03  0.41800000000E+01 0.  1.
         -5    1    1    2    0  502  0.45339421102E+02  0.69872991910E+02  0.70778761657E+02  0.10938465892E+03  0.41800000000E+01 0.  1.
        -11    1    3    3    0    0 -0.73223423317E+02 -0.44521896741E+02 -0.12130336604E+01  0.85704961714E+02  0.00000000000E+00 0.  1.
         11    1    3    3    0    0  0.79421023164E+01  0.15199918987E+02  0.28152622278E+02  0.32964900539E+02  0.00000000000E+00 0. -1.
</event>
<event>
 7    1  0.6988825E-006  0.9765658E+02  0.7561462E-02  0.1285302E+00
          2   -1    0    0  501    0  0.00000000000E+00  0.00000000000E+00  0.43806493605E+03  0.43806493605E+03  0.00000000000E+00 0. -1.
         -2   -1    0    0    0  501 -0.00000000000E+00 -0.00000000000E+00 -0.41576750277E+02  0.41576750277E+02  0.00000000000E+00 0.  1.
         23    2    1    2    0    0  0.62581569366E+02 -0.45162668927E+02  0.12269282557E+03  0.16889016055E+03  0.86684701047E+02 0.  0.
          5    1    1    2  502    0 -0.10607230165E+02  0.35471543924E+02  0.24976068994E+03  0.25252449070E+03  0.41800000000E+01 0. -1.
         -5    1    1    2    0  502 -0.51974339202E+02  0.96911250029E+01  0.24034670252E+02  0.58227035073E+02  0.41800000000E+01 0. -1.
        -11    1    3    3    0    0  0.61430444017E+02 -0.62504945441E+02  0.12356382774E+03  0.15148791101E+03  0.00000000000E+00 0.  1.
         11    1    3    3    0    0  0.11511253495E+01  0.17342276514E+02 -0.87100217084E+00  0.17402249539E+02  0.00000000000E+00 0. -1.
</event>
<event>
 7    1  0.6988825E-006  0.7238192E+02  0.7561462E-02  0.1352176E+00
          3   -1    0    0  501    0  0.00000000000E+00  0.00000000000E+00  0.17262712642E+03  0.17262712642E+03  0.00000000000E+00 0. -1.
         -3   -1    0    0    0  501 -0.00000000000E+00 -0.00000000000E+00 -0.11432025087E+03  0.11432025087E+03  0.00000000000E+00 0.  1.
         23    2    1    2    0    0  0.68585752906E+02  0.74186629255E+01 -0.31154437924E+02  0.11839511432E+03  0.91037146438E+02 0.  0.
          5    1    1    2  502    0 -0.96450810301E+01 -0.93036102053E+01  0.10618873436E+03  0.10711257842E+03  0.41800000000E+01 0.  1.
         -5    1    1    2    0  502 -0.58940671876E+02  0.18849472799E+01 -0.16727420887E+02  0.61439684545E+02  0.41800000000E+01 0.  1.
        -11    1    3    3    0    0  0.51526345118E+02  0.13883636933E+02 -0.62465920235E+02  0.82156623632E+02  0.00000000000E+00 0.  1.
         11    1    3    3    0    0  0.17059407788E+02 -0.64649740072E+01  0.31311482311E+02  0.36238490690E+02  0.00000000000E+00 0. -1.
</event>
<event>
 7    1  0.6988825E-006  0.1063653E+03  0.7561462E-02  0.1267453E+00
          1   -1    0    0  501    0  0.00000000000E+00  0.00000000000E+00  0.10525985118E+03  0.10525985118E+03  0.00000000000E+00 0. -1.
         -1   -1    0    0    0  501 -0.00000000000E+00 -0.00000000000E+00 -0.12411745337E+03  0.12411745337E+03  0.00000000000E+00 0.  1.
         23    2    1    2    0    0  0.33447012647E+02 -0.14640244781E+02 -0.18470401051E+02  0.99066380321E+02  0.90221685712E+02 0.  0.
          5    1    1    2  502    0 -0.75792919514E+02 -0.13477304625E+02 -0.11945588609E+02  0.78015215667E+02  0.41800000000E+01 0.  1.
         -5    1    1    2    0  502  0.42345906867E+02  0.28117549406E+02  0.11558387479E+02  0.52295708563E+02  0.41800000000E+01 0.  1.
        -11    1    3    3    0    0 -0.15643888494E+02 -0.29458224521E+02 -0.31799385282E+02  0.46083827353E+02  0.00000000000E+00 0.  1.
         11    1    3    3    0    0  0.49090901141E+02  0.14817979740E+02  0.13328984230E+02  0.52982552969E+02  0.00000000000E+00 0. -1.
</event>
<event>
 7    1  0.6988825E-006  0.1032651E+03  0.7561462E-02  0.1273576E+00
          1   -1    0    0  501    0  0.00000000000E+00  0.00000000000E+00  0.15138039824E+03  0.15138039824E+03  0.00000000000E+00 0.  1.
         -1   -1    0    0    0  501 -0.00000000000E+00 -0.00000000000E+00 -0.83222516238E+02  0.83222516238E+02  0.00000000000E+00 0. -1.
         23    2    1    2    0    0 -0.22971376436E+02 -0.26599080982E+02  0.15910515569E+02  0.94556819469E+02  0.86328745838E+02 0.  0.
          5    1    1    2  502    0  0.14296275375E+02 -0.42308644743E+02  0.54310769160E+02  0.70438178258E+02  0.41800000000E+01 0. -1.
         -5    1    1    2    0  502  0.86751010608E+01  0.68907725725E+02 -0.20634027313E+01  0.69607916746E+02  0.41800000000E+01 0. -1.
        -11    1    3    3    0    0 -0.35831146127E+02  0.21852941249E+02  0.21066274603E-01  0.41969304471E+02  0.00000000000E+00 0. -1.
         11    1    3    3    0    0  0.12859769691E+02 -0.48452022231E+02  0.15889449294E+02  0.52587514998E+02  0.00000000000E+00 0.  1.
</event>
<event>
 7    1  0.6988825E-006  0.1070192E+03  0.7561462E-02  0.1266192E+00
          2   -1    0    0  501    0  0.00000000000E+00  0.00000000000E+00  0.78737713684E+03  0.78737713684E+03  0.00000000000E+00 0.  1.
         -2   -1    0    0    0  501 -0.00000000000E+00 -0.00000000000E+00 -0.19948014877E+02  0.19948014877E+02  0.00000000000E+00 0. -1.
         23    2    1    2    0    0 -0.49128516362E+02  0.44936207067E+02  0.30877433872E+03  0.32727855767E+03  0.85655053771E+02 0.  0.
          5    1    1    2  502    0  0.90333545655E+02 -0.24289697093E+02  0.26912828499E+03  0.28495200479E+03  0.41800000000E+01 0. -1.
         -5    1    1    2    0  502 -0.41205029293E+02 -0.20646509974E+02  0.18952649826E+03  0.19509458925E+03  0.41800000000E+01 0. -1.
        -11    1    3    3    0    0 -0.14419553571E+02 -0.32098520234E+01  0.21088920025E+01  0.14922268617E+02  0.00000000000E+00 0. -1.
         11    1    3    3    0    0 -0.34708962791E+02  0.48146059090E+02  0.30666544671E+03  0.31235628905E+03  0.00000000000E+00 0.  1.
</event>
<event>
 7    1  0.6988825E-006  0.9995880E+02  0.7561462E-02  0.1280383E+00
          1   -1    0    0  501    0  0.00000000000E+00  0.00000000000E+00  0.30401664169E+04  0.30401664169E+04  0.00000000000E+00 0. -1.
         -1   -1    0    0    0  501 -0.00000000000E+00 -0.00000000000E+00 -0.69144795795E+01  0.69144795795E+01  0.00000000000E+00 0.  1.
         23    2    1    2    0    0  0.53076676468E+01 -0.23261417578E+02  0.40910179288E+03  0.41984269759E+03  0.91292655225E+02 0.  0.
          5    1    1    2  502    0 -0.54788496556E+02  0.27502867717E+02  0.78066320694E+03  0.78307771145E+03  0.41800000000E+01 0. -1.
         -5    1    1    2    0  502  0.49480828910E+02 -0.42414501393E+01  0.18434869375E+04  0.18441604875E+04  0.41800000000E+01 0. -1.
        -11    1    3    3    0    0  0.37117949887E+02 -0.38397863817E+02  0.31222753485E+03  0.31676201109E+03  0.00000000000E+00 0.  1.
         11    1    3    3    0    0 -0.31810282241E+02  0.15136446239E+02  0.96874258035E+02  0.10308068651E+03  0.00000000000E+00 0. -1.
</event>
<event>
 7    1  0.6988825E-006  0.1186384E+03  0.7561462E-02  0.1245360E+00
          2   -1    0    0  501    0  0.00000000000E+00  0.00000000000E+00  0.16969069841E+04  0.16969069841E+04  0.00000000000E+00 0.  1.
         -2   -1    0    0    0  501 -0.00000000000E+00 -0.00000000000E+00 -0.11058940553E+02  0.11058940553E+02  0.00000000000E+00 0. -1.
         23    2    1    2    0    0 -0.28729941041E+02  0.59204270131E+02  0.43465130742E+03  0.44881103309E+03  0.90437985735E+02 0.  0.
          5    1    1    2  502    0 -0.93118045936E+01 -0.81073379672E+02  0.10505742805E+04  0.10537473103E+04  0.41800000000E+01 0. -1.
         -5    1    1    2    0  502  0.38041745635E+02  0.21869109541E+02  0.20062245557E+03  0.20540758127E+03  0.41800000000E+01 0. -1.
        -11    1    3    3    0    0  0.31476203504E+02  0.33660008176E+02  0.16216500360E+03  0.16858598972E+03  0.00000000000E+00 0. -1.
         11    1    3    3    0    0 -0.60206144545E+02  0.25544261956E+02  0.27248630382E+03  0.28022504337E+03  0.00000000000E+00 0.  1.
</event>
<event>
 7    1  0.6988825E-006  0.1991320E+03  0.7561462E-02  0.1150473E+00
          2   -1    0    0  501    0  0.00000000000E+00  0.00000000000E+00  0.30072013413E+03  0.30072013413E+03  0.00000000000E+00 0. -1.
         -2   -1    0    0    0  501 -0.00000000000E+00 -0.00000000000E+00 -0.14776022494E+03  0.14776022494E+03  0.00000000000E+00 0.  1.
         23    2    1    2    0    0  0.13243933021E+02 -0.17843561438E+03  0.96102988997E+02  0.22288203741E+03  0.91792961954E+02 0.  0.
          5    1    1    2  502    0 -0.53129635435E+02  0.16877592057E+03  0.43786563756E+02  0.18232609547E+03  0.41800000000E+01 0.  1.
         -5    1    1    2    0  502  0.39885702413E+02  0.96596938085E+01  0.13070356435E+02  0.43272226183E+02  0.41800000000E+01 0.  1.
        -11    1    3    3    0    0  0.18222318308E+02 -0.12003360456E+03  0.14300913201E+02  0.12224825245E+03  0.00000000000E+00 0.  1.
         11    1    3    3    0    0 -0.49783852864E+01 -0.58402009819E+02  0.81802075796E+02  0.10063378496E+03  0.00000000000E+00 0. -1.
</event>
<event>
 7    1  0.6988825E-006  0.1095274E+03  0.7561462E-02  0.1261448E+00
          2   -1    0    0  501    0  0.00000000000E+00  0.00000000000E+00  0.50551366159E+03  0.50551366159E+03  0.00000000000E+00 0.  1.
         -2   -1    0    0    0  501 -0.00000000000E+00 -0.00000000000E+00 -0.30384486744E+02  0.30384486744E+02  0.00000000000E+00 0. -1.
         23    2    1    2    0    0  0.16028251840E+01  0.49024837708E+02  0.10880431144E+03  0.14568252478E+03  0.83540505615E+02 0.  0.
          5    1    1    2  502    0 -0.13364754275E+02 -0.86417077555E+02  0.30498417201E+03  0.31730008750E+03  0.41800000000E+01 0.  1.
         -5    1    1    2    0  502  0.11761929092E+02  0.37392239847E+02  0.61340691396E+02  0.72915536051E+02  0.41800000000E+01 0.  1.
        -11    1    3    3    0    0 -0.31320468151E+02 -0.19788365347E+01  0.60301035744E+02  0.67978691007E+02  0.00000000000E+00 0.  1.
         11    1    3    3    0    0  0.32923293335E+02  0.51003674243E+02  0.48503275694E+02  0.77703833775E+02  0.00000000000E+00 0. -1.
</event>
<event>
 6    1  0.6988825E-006  0.1334700E+03  0.7561462E-02  0.1222396E+00
         -2   -1    0    0    0  501 -0.00000000000E+00  0.00000000000E+00  0.16746411219E+03  0.16746411219E+03  0.00000000000E+00 0.  1.
          2   -1    0    0  501    0  0.00000000000E+00 -0.00000000000E+00 -0.11668633254E+03  0.11668633254E+03  0.00000000000E+00 0. -1.
          5    1    1    2  502    0  0.23984687415E+02  0.10091157689E+02  0.24356854335E+02  0.35886284942E+02  0.41800000000E+01 0.  1.
         -5    1    1    2    0  502 -0.10176813669E+03 -0.80024774784E+02  0.37977367721E+01  0.12958631652E+03  0.41800000000E+01 0.  1.
        -11    1    1    2    0    0  0.24377185825E+02  0.17429931307E+01 -0.96078362966E+01  0.26260154837E+02  0.00000000000E+00 0.  1.
         11    1    1    2    0    0  0.53406263451E+02  0.68190623964E+02  0.32231024838E+02  0.92417688429E+02  0.00000000000E+00 0. -1.
</event>
<event>
 7    1  0.6988825E-006  0.7712510E+02  0.7561462E-02  0.1337414E+00
         -2   -1    0    0    0  501 -0.00000000000E+00  0.00000000000E+00  0.32565895757E+02  0.32565895757E+02  0.00000000000E+00 0.  1.
          2   -1    0    0  501    0  0.00000000000E+00 -0.00000000000E+00 -0.65517236448E+03  0.65517236448E+03  0.00000000000E+00 0. -1.
         23    2    1    2    0    0 -0.47484394009E+02 -0.44202491610E+01 -0.83470234032E+02  0.13222905923E+03  0.90790626485E+02 0.  0.
          5    1    1    2  502    0  0.28185439110E+01  0.31646693588E+02 -0.45646975681E+03  0.45759323497E+03  0.41800000000E+01 0.  1.
         -5    1    1    2    0  502  0.44665850098E+02 -0.27226444427E+02 -0.82666477879E+02  0.97915966043E+02  0.41800000000E+01 0.  1.
        -11    1    3    3    0    0 -0.47305433594E+02  0.15520420003E+02 -0.36104406478E+01  0.49917159037E+02  0.00000000000E+00 0.  1.
         11    1    3    3    0    0 -0.17896041484E+00 -0.19940669163E+02 -0.79859793384E+02  0.82311900190E+02  0.00000000000E+00 0. -1.
</event>
<event>
 7    1  0.6988825E-006  0.9204202E+02  0.7561462E-02  0.1297981E+00
          2   -1    0    0  501    0  0.00000000000E+00  0.00000000000E+00  0.29674058653E+03  0.29674058653E+03  0.00000000000E+00 0. -1.
         -2   -1    0    0    0  501 -0.00000000000E+00 -0.00000000000E+00 -0.37974981862E+02  0.37974981862E+02  0.00000000000E+00 0.  1.
         23    2    1    2    0    0  0.62592262699E+01  0.27325175406E+02  0.13444730244E+03  0.16347633778E+03  0.88671262282E+02 0.  0.
          5    1    1    2  502    0 -0.46569555052E+02 -0.16657571295E+02  0.11907452468E+03  0.12900547650E+03  0.41800000000E+01 0. -1.
         -5    1    1    2    0  502  0.40310328782E+02 -0.10667604111E+02  0.52437775490E+01  0.42233754118E+02  0.41800000000E+01 0.  1.
        -11    1    3    3    0    0  0.46407914561E+02  0.24024059566E+02  0.67825577917E+02  0.85622187497E+02  0.00000000000E+00 0.  1.
         11    1    3    3    0    0 -0.40148688291E+02  0.33011158397E+01  0.66621724524E+02  0.77854150280E+02  0.00000000000E+00 0. -1.
</event>
<event>
 7    1  0.6988825E-006  0.9656573E+02  0.7561462E-02  0.1287688E+00
         -1   -1    0    0    0  501 -0.00000000000E+00  0.00000000000E+00  0.12460510921E+03  0.12460510921E+03  0.00000000000E+00 0.  1.
          1   -1    0    0  501    0  0.00000000000E+00 -0.00000000000E+00 -0.10166417894E+03  0.10166417894E+03  0.00000000000E+00 0. -1.
         23    2    1    2    0    0  0.13309240442E+02  0.32045276436E+02  0.51290675960E+01  0.95240386723E+02  0.88545967191E+02 0.  0.
          5    1    1    2  502    0 -0.19746889458E+02 -0.71178306234E+02 -0.19398871991E+02  0.76485812777E+02  0.41800000000E+01 0. -1.
         -5    1    1    2    0  502  0.64376490160E+01  0.39133029798E+02  0.37210734661E+02  0.54543088656E+02  0.41800000000E+01 0. -1.
        -11    1    3    3    0    0 -0.12059085562E+02  0.47871962162E+02  0.28755871333E+02  0.57131833875E+02  0.00000000000E+00 0.  1.
         11    1    3    3    0    0  0.25368326004E+02 -0.15826685726E+02 -0.23626803737E+02  0.38108552848E+02  0.00000000000E+00 0. -1.
</event>
<event>
 7    1  0.6988825E-006  0.1708625E+03  0.7561462E-02  0.1176951E+00
         -1   -1    0    0    0  501 -0.00000000000E+00  0.00000000000E+00  0.62705849732E+02  0.62705849732E+02  0.00000000000E+00 0.  1.
          1   -1    0    0  501    0  0.00000000000E+00 -0.00000000000E+00 -0.66189286002E+03  0.66189286002E+03  0.00000000000E+00 0. -1.
         23    2    1    2    0    0 -0.14593662006E+03  0.59452104231E+02 -0.16801360026E+03  0.24879276827E+03  0.94006499247E+02 0.  0.
          5    1    1    2  502    0  0.10071378975E+03 -0.64533910891E+02 -0.15477160248E+03  0.19565176829E+03  0.41800000000E+01 0. -1.
         -5    1    1    2    0  502  0.45222830307E+02  0.50818066597E+01 -0.27640180754E+03  0.28015417318E+03  0.41800000000E+01 0. -1.
        -11    1    3    3    0    0 -0.12017160138E+02 -0.17993086996E+02 -0.49147838716E+02  0.53699845139E+02  0.00000000000E+00 0. -1.
         11    1    3    3    0    0 -0.13391945992E+03  0.77445191227E+02 -0.11886576155E+03  0.19509292314E+03  0.00000000000E+00 0.  1.
</event>
<event>
 7    1  0.6988825E-006  0.1948496E+03  0.7561462E-02  0.1154159E+00
          1   -1    0    0  501    0  0.00000000000E+00  0.00000000000E+00  0.13660314489E+03  0.13660314489E+03  0.00000000000E+00 0. -1.
         -1   -1    0    0    0  501 -0.00000000000E+00 -0.00000000000E+00 -0.29584488171E+03  0.29584488171E+03  0.00000000000E+00 0.  1.
         23    2    1    2    0    0  0.42359520959E+02  0.16231326089E+03 -0.54003049092E+02  0.19821367368E+03  0.90732615128E+02 0.  0.
          5    1    1    2  502    0 -0.21855869323E+02  0.13638991253E+02  0.35067077367E+01  0.26333828157E+02  0.41800000000E+01 0.  1.
         -5    1    1    2    0  502 -0.20503651636E+02 -0.17595225214E+03 -0.10874539546E+03  0.20790052477E+03  0.41800000000E+01 0.  1.
        -11    1    3    3    0    0  0.59599884506E+02  0.67529034202E+02 -0.52004066542E+01  0.90218406784E+02  0.00000000000E+00 0. -1.
         11    1    3    3    0    0 -0.17240363547E+02  0.94784226684E+02 -0.48802642438E+02  0.10799526690E+03  0.00000000000E+00 0.  1.
</event>
<event>
 7    1  0.6988825E-006  0.3305203E+03  0.7561462E-02  0.1070907E+00
          1   -1    0    0  501    0  0.00000000000E+00  0.00000000000E+00  0.21298904921E+03  0.21298904921E+03  0.00000000000E+00 0. -1.
         -1   -1    0    0    0  501 -0.00000000000E+00 -0.00000000000E+00 -0.57390574914E+03  0.57390574914E+03  0.00000000000E+00 0.  1.
         23    2    1    2    0    0 -0.85571330331E+02 -0.30414890487E+03 -0.29234152271E+03  0.44022785962E+03  0.92238785672E+02 0.  0.
          5    1    1    2  502    0  0.50809452682E+02  0.29052792266E+03 -0.36401905570E+02  0.29720471977E+03  0.41800000000E+01 0. -1.
         -5    1    1    2    0  502  0.34761877649E+02  0.13620982210E+02 -0.32173271654E+02  0.49462218945E+02  0.41800000000E+01 0. -1.
        -11    1    3    3    0    0 -0.91579377224E+02 -0.16094955925E+03 -0.15110503988E+03  0.23900685352E+03  0.00000000000E+00 0.  1.
         11    1    3    3    0    0  0.60080468932E+01 -0.14319934562E+03 -0.14123648283E+03  0.20122100610E+03  0.00000000000E+00 0. -1.
</event>
<event>
 7    1  0.6988825E-006  0.1316416E+03  0.7561462E-02  0.1225040E+00
          1   -1    0    0  501    0  0.00000000000E+00  0.00000000000E+00  0.42074086458E+02  0.42074086458E+02  0.00000000000E+00 0. -1.
         -1   -1    0    0    0  501 -0.00000000000E+00 -0.00000000000E+00 -0.51104766370E+03  0.51104766370E+03  0.00000000000E+00 0.  1.
         23    2    1    2    0    0  0.48897418755E+02  0.62151156650E+02 -0.32560832555E+03  0.34707504385E+03  0.90479724604E+02 0.  0.
          5    1    1    2  502    0 -0.20677938434E+02  0.37193994547E+02 -0.27799620375E+02  0.51002565242E+02  0.41800000000E+01 0. -1.
         -5    1    1    2    0  502 -0.28219480321E+02 -0.99345151197E+02 -0.11556563131E+03  0.15504414106E+03  0.41800000000E+01 0. -1.
        -11    1    3    3    0    0  0.36160093106E+02  0.84235429490E+02 -0.21802523559E+03  0.23651250129E+03  0.00000000000E+00 0. -1.
         11    1    3    3    0    0  0.12737325649E+02 -0.22084272840E+02 -0.10758308996E+03  0.11056254256E+03  0.00000000000E+00 0.  1.
</event>
<event>
 7    1  0.6988825E-006  0.9466703E+02  0.7561462E-02  0.1291928E+00
         -1   -1    0    0    0  501 -0.00000000000E+00  0.00000000000E+00  0.10812603390E+03  0.10812603390E+03  0.00000000000E+00 0.  1.
          1   -1    0    0  501    0  0.00000000000E+00 -0.00000000000E+00 -0.17888231707E+03  0.17888231707E+03  0.00000000000E+00 0. -1.
         23    2    1    2    0    0  0.76696037284E+01 -0.56880448920E+02  0.45083280930E+02  0.11522212842E+03  0.89159566885E+02 0.  0.
          5    1    1    2  502    0  0.51962834312E+02  0.36506108603E+02 -0.55599158988E+02  0.84507816178E+02  0.41800000000E+01 0. -1.
         -5    1    1    2    0  502 -0.59632438040E+02  0.20374340317E+02 -0.60240405114E+02  0.87278406369E+02  0.41800000000E+01 0.  1.
        -11    1    3    3    0    0 -0.60425137362E+01 -0.41473774029E+02 -0.20367545782E+02  0.46598528149E+02  0.00000000000E+00 0. -1.
         11    1    3    3    0    0  0.13712117465E+02 -0.15406674891E+02  0.65450826712E+02  0.68623600269E+02  0.00000000000E+00 0.  1.
</event>
<event>
 7    1  0.6988825E-006  0.5310148E+02  0.7561462E-02  0.1429296E+00
          3   -1    0    0  501    0  0.00000000000E+00  0.00000000000E+00  0.31501181011E+03  0.31501181011E+03  0.00000000000E+00 0. -1.
         -3   -1    0    0    0  501 -0.00000000000E+00 -0.00000000000E+00 -0.42438706780E+02  0.42438706780E+02  0.00000000000E+00 0.  1.
         23    2    1    2    0    0 -0.17831356183E+01  0.37213492600E+01  0.54890043463E+02  0.10635095278E+03  0.90997693783E+02 0.  0.
          5    1    1    2  502    0 -0.18183545717E+02 -0.21834195492E+02  0.22167585885E+03  0.22352859375E+03  0.41800000000E+01 0.  1.
         -5    1    1    2    0  502  0.19966681335E+02  0.18112846232E+02 -0.39927989901E+01  0.27570970348E+02  0.41800000000E+01 0.  1.
        -11    1    3    3    0    0 -0.21057286163E+01  0.26919693931E+02 -0.16255991489E+02  0.31517634328E+02  0.00000000000E+00 0.  1.
         11    1    3    3    0    0  0.32259299797E+00 -0.23198344670E+02  0.71146034953E+02  0.74833318456E+02  0.00000000000E+00 0. -1.
</event>
<event>
 7    1  0.6988825E-006  0.8320530E+02  0.7561462E-02  0.1320194E+00
         -2   -1    0    0    0  501 -0.00000000000E+00  0.00000000000E+00  0.30877957909E+02  0.30877957909E+02  0.00000000000E+00 0.  1.
          2   -1    0    0  501    0  0.00000000000E+00 -0.00000000000E+00 -0.66517227156E+03  0.66517227156E+03  0.00000000000E+00 0. -1.
         23    2    1    2    0    0  0.50659517499E+02  0.16457931032E+01 -0.10525083251E+03  0.15006165575E+03  0.94189529327E+02 0.  0.
          5    1    1    2  502    0  0.15538225721E+02  0.22848886067E+02 -0.37996820256E+03  0.38099450837E+03  0.41800000000E+01 0. -1.
         -5    1    1    2    0  502 -0.66197743220E+02 -0.24494679170E+02 -0.14907527858E+03  0.16499406535E+03  0.41800000000E+01 0. -1.
        -11    1    3    3    0    0  0.53337131578E+02 -0.11313400041E+02 -0.11905068943E+03  0.13094238916E+03  0.00000000000E+00 0. -1.
         11    1    3    3    0    0 -0.26776140790E+01  0.12959193144E+02  0.13799856918E+02  0.19119266593E+02  0.00000000000E+00 0.  1.
</event>
<event>
 7    1  0.6988825E-006  0.9387499E+02  0.7561462E-02  0.1293730E+00
         -2   -1    0    0    0  501 -0.00000000000E+00  0.00000000000E+00  0.27653515029E+02  0.27653515029E+02  0.00000000000E+00 0.  1.
          2   -1    0    0  501    0  0.00000000000E+00 -0.00000000000E+00 -0.86337932376E+03  0.86337932376E+03  0.00000000000E+00 0. -1.
         23    2    1    2    0    0  0.30785131196E+02  0.24117019356E+02 -0.93608210246E+02  0.13743102050E+03  0.92711560473E+02 0.  0.
          5    1    1    2  502    0 -0.58358125641E+02 -0.17855389695E+02 -0.70019929555E+03  0.70286628291E+03  0.41800000000E+01 0.  1.
         -5    1    1    2    0  502  0.27572994445E+02 -0.62616296613E+01 -0.41918302935E+02  0.50735535373E+02  0.41800000000E+01 0.  1.
        -11    1    3    3    0    0  0.61586882865E+02  0.51021987379E+01 -0.73483737957E+02  0.96014771348E+02  0.00000000000E+00 0.  1.
         11    1    3    3    0    0 -0.30801751669E+02  0.19014820618E+02 -0.20124472290E+02  0.41416249154E+02  0.00000000000E+00 0. -1.
</event>
<event>
 7    1  0.6988825E-006  0.1201810E+03  0.7561462E-02  0.1242799E+00
         -2   -1    0    0    0  501 -0.00000000000E+00  0.00000000000E+00  0.12206574826E+03  0.12206574826E+03  0.00000000000E+00 0. -1.
          2   -1    0    0  501    0  0.00000000000E+00 -0.00000000000E+00 -0.13961517465E+03  0.13961517465E+03  0.00000000000E+00 0.  1.
         23    2    1    2    0    0  0.19642943503E+02 -0.47331314802E+02  0.41173595295E+02  0.11429576819E+03  0.93499513829E+02 0.  0.
          5    1    1    2  502    0  0.52045675897E+02  0.29031722387E+02 -0.36542411559E+02  0.70031518096E+02  0.41800000000E+01 0. -1.
         -5    1    1    2    0  502 -0.71688619400E+02  0.18299592414E+02 -0.22180610124E+02  0.77353636627E+02  0.41800000000E+01 0. -1.
        -11    1    3    3    0    0  0.39093535693E+02 -0.67809623044E+02  0.27975822039E+02  0.83120972859E+02  0.00000000000E+00 0. -1.
         11    1    3    3    0    0 -0.19450592189E+02  0.20478308242E+02  0.13197773256E+02  0.31174795330E+02  0.00000000000E+00 0.  1.
</event>
<event>
 7    1  0.7385624E-006  0.1818781E+03  0.7561462E-02  0.1165998E+00
         -1   -1    0    0    0  501 -0.00000000000E+00  0.00000000000E+00  0.83381387458E+02  0.83381387458E+02  0.00000000000E+00 0.  1.
          1   -1    0    0  501    0  0.00000000000E+00 -0.00000000000E+00 -0.50821649194E+03  0.50821649194E+03  0.00000000000E+00 0. -1.
         23    2    1    2    0    0 -0.11141706479E+03 -0.11585848773E+03 -0.10612479050E+03  0.21336438583E+03  0.91787463608E+02 0.  0.
          5    1    1    2  502    0  0.97941195177E+02  0.19938751408E+02 -0.20974790556E+03  0.23238263233E+03  0.41800000000E+01 0.  1.
         -5    1    1    2    0  502  0.13475869611E+02  0.95919736319E+02 -0.10896240842E+03  0.14585086124E+03  0.41800000000E+01 0.  1.
        -11    1    3    3    0    0 -0.51941520408E+02 -0.85375427540E+02 -0.16067663376E+02  0.10121785898E+03  0.00000000000E+00 0.  1.
         11    1    3    3    0    0 -0.59475544380E+02 -0.30483060186E+02 -0.90057127126E+02  0.11214652685E+03  0.00000000000E+00 0. -1.
</event>
<event>
 7    1  0.6988825E-006  0.9543608E+02  0.7561462E-02  0.1290197E+00
         -1   -1    0    0    0  501 -0.00000000000E+00  0.00000000000E+00  0.37085102832E+02  0.37085102832E+02  0.00000000000E+00 0.  1.
          1   -1    0    0  501    0  0.00000000000E+00 -0.00000000000E+00 -0.37426594562E+03  0.37426594562E+03  0.00000000000E+00 0. -1.
         23    2    1    2    0    0  0.22266823898E+02  0.13042738867E+01 -0.74836679623E+02  0.11985631635E+03  0.90925768489E+02 0.  0.
          5    1    1    2  502    0  0.25311954981E+02  0.32001541903E+02 -0.27119873089E+02  0.49170658583E+02  0.41800000000E+01 0. -1.
         -5    1    1    2    0  502 -0.47578778879E+02 -0.33305815790E+02 -0.23522429007E+03  0.24232407352E+03  0.41800000000E+01 0. -1.
        -11    1    3    3    0    0 -0.10721487900E+02  0.39633741390E+02 -0.45932744189E+02  0.61608447051E+02  0.00000000000E+00 0.  1.
         11    1    3    3    0    0  0.32988311798E+02 -0.38329467503E+02 -0.28903935434E+02  0.58247869299E+02  0.00000000000E+00 0. -1.
</event>
<event>
 7    1  0.6988825E-006  0.1452807E+03  0.7561462E-02  0.1206395E+00
         -1   -1    0    0    0  501 -0.00000000000E+00  0.00000000000E+00  0.20546470478E+02  0.20546470478E+02  0.00000000000E+00 0.  1.
          1   -1    0    0  501    0  0.00000000000E+00 -0.00000000000E+00 -0.14522460071E+04  0.14522460071E+04  0.00000000000E+00 0. -1.
         23    2    1    2    0    0  0.90325390716E+02 -0.73873231160E+02 -0.38021749525E+03  0.40748597549E+03  0.88676637496E+02 0.  0.
          5    1    1    2  502    0  0.17734786764E+02 -0.50281923274E+01 -0.38770840492E+03  0.38816888725E+03  0.41800000000E+01 0. -1.
         -5    1    1    2    0  502 -0.10806017748E+03  0.78901423487E+02 -0.66377363649E+03  0.67713761488E+03  0.41800000000E+01 0. -1.
        -11    1    3    3    0    0  0.66335154552E+02 -0.69464789858E+01 -0.25411294796E+03  0.26272037725E+03  0.00000000000E+00 0.  1.
         11    1    3    3    0    0  0.23990236163E+02 -0.66926752174E+02 -0.12610454729E+03  0.14476559824E+03  0.00000000000E+00 0. -1.
</event>
<event>
 7    1  0.6988825E-006  0.9310222E+02  0.7561462E-02  0.1295508E+00
          1   -1    0    0  501    0  0.00000000000E+00  0.00000000000E+00  0.64387350110E+03  0.64387350110E+03  0.00000000000E+00 0.  1.
         -1   -1    0    0    0  501 -0.00000000000E+00 -0.00000000000E+00 -0.21955904403E+02  0.21955904403E+02  0.00000000000E+00 0. -1.
         23    2    1    2    0    0  0.43448029451E+02  0.72469749698E+01  0.25924681605E+03  0.27966921501E+03  0.95214013043E+02 0.  0.
          5    1    1    2  502    0  0.20432999373E+01  0.32436769700E+02  0.20440576407E+02  0.38621349887E+02  0.41800000000E+01 0.  1.
         -5    1    1    2    0  502 -0.45491329388E+02 -0.39683744670E+02  0.34223020424E+03  0.34753884061E+03  0.41800000000E+01 0.  1.
        -11    1    3    3    0    0  0.25017617033E+02 -0.37186800455E+02  0.19090177005E+03  0.19609238919E+03  0.00000000000E+00 0.  1.
         11    1    3    3    0    0  0.18430412418E+02  0.44433775425E+02  0.68345046000E+02  0.83576825814E+02  0.00000000000E+00 0. -1.
</event>
<event>
 7    1  0.6988825E-006  0.1058132E+03  0.7561462E-02  0.1268526E+00
         -1   -1    0    0    0  501 -0.00000000000E+00  0.00000000000E+00  0.25153422420E+02  0.25153422420E+02  0.00000000000E+00 0.  1.
          1   -1    0    0  501    0  0.00000000000E+00 -0.00000000000E+00 -0.70161111564E+03  0.70161111564E+03  0.00000000000E+00 0. -1.
         23    2    1    2    0    0  0.54055395062E+02  0.48302327122E+02 -0.22887859474E+03  0.25641364533E+03  0.90041356300E+02 0.  0.
          5    1    1    2  502    0  0.30889251770E+02  0.48340510030E+01 -0.41814372100E+02  0.52377743729E+02  0.41800000000E+01 0.  1.
         -5    1    1    2    0  502 -0.84944646832E+02 -0.53136378125E+02 -0.40576472638E+03  0.41797314900E+03  0.41800000000E+01 0.  1.
        -11    1    3    3    0    0  0.52289399699E+02  0.27795563810E+02 -0.22826557355E+03  0.23582185386E+03  0.00000000000E+00 0. -1.
         11    1    3    3    0    0  0.17659953628E+01  0.20506763312E+02 -0.61302118404E+00  0.20591791475E+02  0.00000000000E+00 0.  1.
</event>
<event>
 7    1  0.6988825E-006  0.1227678E+03  0.7561462E-02  0.1238600E+00
          3   -1    0    0  501    0  0.00000000000E+00  0.00000000000E+00  0.22742757646E+03  0.22742757646E+03  0.00000000000E+00 0. -1.
         -3   -1    0    0    0  501 -0.00000000000E+00 -0.00000000000E+00 -0.11390766355E+03  0.11390766355E+03  0.00000000000E+00 0.  1.
         23    2    1    2    0    0 -0.59503321689E+02  0.57402297483E+02 -0.37516245439E+02  0.12850832923E+03  0.90946429076E+02 0.  0.
          5    1    1    2  502    0  0.92626031752E+02 -0.67590574053E+02  0.10997080716E+03  0.15893117468E+03  0.41800000000E+01 0.  1.
         -5    1    1    2    0  502 -0.33122710063E+02  0.10188276571E+02  0.41065351185E+02  0.53895736096E+02  0.41800000000E+01 0.  1.
        -11    1    3    3    0    0 -0.57541036576E+01 -0.88622115238E+01 -0.41764027119E+02  0.43079954308E+02  0.00000000000E+00 0.  1.
         11    1    3    3    0    0 -0.53749218032E+02  0.66264509007E+02  0.42477816798E+01  0.85428374924E+02  0.00000000000E+00 0. -1.
</event>
<event>
 7    1  0.6988825E-006  0.1073504E+03  0.7561462E-02  0.1265557E+00
         -1   -1    0    0    0  501 -0.00000000000E+00  0.00000000000E+00  0.10382426452E+03  0.10382426452E+03  0.00000000000E+00 0.  1.
          1   -1    0    0  501    0  0.00000000000E+00 -0.00000000000E+00 -0.16892810451E+03  0.16892810451E+03  0.00000000000E+00 0. -1.
         23    2    1    2    0    0 -0.30594907772E+01 -0.52725238045E+02  0.26214572902E+02  0.10911667794E+03  0.91814673999E+02 0.  0.
          5    1    1    2  502    0 -0.10291567568E+02  0.92052975359E+02 -0.73191770249E+02  0.11812778787E+03  0.41800000000E+01 0. -1.
         -5    1    1    2    0  502  0.13351058345E+02 -0.39327737314E+02 -0.18126642643E+02  0.45507903212E+02  0.41800000000E+01 0. -1.
        -11    1    3    3    0    0  0.33358858783E+01 -0.65693696194E+02  0.49074407901E+02  0.82067578038E+02  0.00000000000E+00 0.  1.
         11    1    3    3    0    0 -0.63953766554E+01  0.12968458149E+02 -0.22859834999E+02  0.27049099902E+02  0.00000000000E+00 0. -1.
</event>
<event>
 7    1  0.6988825E-006  0.1223281E+03  0.7561462E-02  0.1239305E+00
          2   -1    0    0  501    0  0.00000000000E+00  0.00000000000E+00  0.53673519473E+03  0.53673519473E+03  0.00000000000E+00 0. -1.
         -2   -1    0    0    0  501 -0.00000000000E+00 -0.00000000000E+00 -0.36357099888E+02  0.36357099888E+02  0.00000000000E+00 0.  1.
         23    2    1    2    0    0  0.53692991540E+02 -0.27022318615E+02  0.98930596768E+02  0.14833568557E+03  0.92752733610E+02 0.  0.
          5    1    1    2  502    0  0.40503569878E+02  0.18662696017E+00  0.12116927532E+03  0.12782816468E+03  0.41800000000E+01 0.  1.
         -5    1    1    2    0  502 -0.94196561418E+02  0.26835691655E+02  0.28027822275E+03  0.29692844437E+03  0.41800000000E+01 0.  1.
        -11    1    3    3    0    0  0.14032327918E+02  0.31915244922E+02  0.13894229913E+02  0.37530503728E+02  0.00000000000E+00 0.  1.
         11    1    3    3    0    0  0.39660663621E+02 -0.58937563537E+02  0.85036366855E+02  0.11080518184E+03  0.00000000000E+00 0. -1.
</event>
<event>
 7    1  0.6988825E-006  0.1209502E+03  0.7561462E-02  0.1241538E+00
          2   -1    0    0  501    0  0.00000000000E+00  0.00000000000E+00  0.81540280784E+03  0.81540280784E+03  0.00000000000E+00 0. -1.
         -2   -1    0    0    0  501 -0.00000000000E+00 -0.00000000000E+00 -0.22193723643E+02  0.22193723643E+02  0.00000000000E+00 0.  1.
         23    2    1    2    0    0  0.62033305136E+02 -0.11280330333E+02  0.20976310222E+03  0.23756974579E+03  0.91997001396E+02 0.  0.
          5    1    1    2  502    0 -0.64374496979E+02 -0.42397717544E+02  0.23283653466E+03  0.24529974844E+03  0.41800000000E+01 0. -1.
         -5    1    1    2    0  502  0.23411918433E+01  0.53678047877E+02  0.35060944732E+03  0.35472703724E+03  0.41800000000E+01 0. -1.
        -11    1    3    3    0    0  0.86099528803E+02 -0.10470549488E+02  0.15230719003E+03  0.17527190706E+03  0.00000000000E+00 0.  1.
         11    1    3    3    0    0 -0.24066223667E+02 -0.80978084462E+00  0.57455912182E+02  0.62297838737E+02  0.00000000000E+00 0. -1.
</event>
<event>
 7    1  0.6988825E-006  0.1124225E+03  0.7561462E-02  0.1256148E+00
          1   -1    0    0  501    0  0.00000000000E+00  0.00000000000E+00  0.11990415739E+04  0.11990415739E+04  0.00000000000E+00 0. -1.
         -1   -1    0    0    0  501 -0.00000000000E+00 -0.00000000000E+00 -0.16872834884E+02  0.16872834884E+02  0.00000000000E+00 0.  1.
         23    2    1    2    0    0 -0.66179266676E+02  0.51178145045E+02  0.49896224635E+03  0.51633025899E+03  0.10312475548E+03 0.  0.
          5    1    1    2  502    0  0.76404329124E+02 -0.43199250301E+02  0.67990965562E+03  0.68556429964E+03  0.41800000000E+01 0. -1.
         -5    1    1    2    0  502 -0.10225062448E+02 -0.79788947441E+01  0.32968370192E+01  0.14019850132E+02  0.41800000000E+01 0. -1.
        -11    1    3    3    0    0  0.12575383609E+02  0.42257852828E+02  0.95902162788E+02  0.10555136771E+03  0.00000000000E+00 0.  1.
         11    1    3    3    0    0 -0.78754650285E+02  0.89202922176E+01  0.40306008356E+03  0.41077889127E+03  0.00000000000E+00 0. -1.
</event>
<event>
 7    1  0.6988825E-006  0.1284729E+03  0.7561462E-02  0.1229739E+00
         -1   -1    0    0    0  501 -0.00000000000E+00  0.00000000000E+00  0.20228036534E+02  0.20228036534E+02  0.00000000000E+00 0.  1.
          1   -1    0    0  501    0  0.00000000000E+00 -0.00000000000E+00 -0.84961630005E+03  0.84961630005E+03  0.00000000000E+00 0. -1.
         23    2    1    2    0    0 -0.69617107401E+02  0.10644970462E+02 -0.36139755121E+03  0.38033128359E+03  0.95309171715E+02 0.  0.
          5    1    1    2  502    0  0.19697399601E+02  0.55874066730E+02 -0.16847554033E+03  0.17863756316E+03  0.41800000000E+01 0. -1.
         -5    1    1    2    0  502  0.49919707800E+02 -0.66519037193E+02 -0.29951517197E+03  0.31087548983E+03  0.41800000000E+01 0. -1.
        -11    1    3    3    0    0 -0.21004240146E+02 -0.39314979185E+02 -0.94565742337E+02  0.10454437008E+03  0.00000000000E+00 0.  1.
         11    1    3    3    0    0 -0.48612867254E+02  0.49959949648E+02 -0.26683180888E+03  0.27578691350E+03  0.00000000000E+00 0. -1.
</event>
<event>
 7    1  0.6988825E-006  0.1062624E+03  0.7561462E-02  0.1267652E+00
         -2   -1    0    0    0  501 -0.00000000000E+00  0.00000000000E+00  0.23915413979E+03  0.23915413979E+03  0.00000000000E+00 0.  1.
          2   -1    0    0  501    0  0.00000000000E+00 -0.00000000000E+00 -0.67527822103E+02  0.67527822103E+02  0.00000000000E+00 0. -1.
         23    2    1    2    0    0  0.34592394861E+02 -0.71494929071E+02  0.74508331676E+02  0.12951838605E+03  0.70109643920E+02 0.  0.
          5    1    1    2  502    0  0.22837965501E+02  0.10905720529E+02 -0.20523029761E+02  0.32850792365E+02  0.41800000000E+01 0. -1.
         -5    1    1    2    0  502 -0.57430360362E+02  0.60589208542E+02  0.11764101577E+03  0.14431278347E+03  0.41800000000E+01 0. -1.
        -11    1    3    3    0    0 -0.10502798438E+02 -0.53846336127E+02  0.53839253699E+02  0.76866129915E+02  0.00000000000E+00 0.  1.
         11    1    3    3    0    0  0.45095193299E+02 -0.17648592944E+02  0.20669077977E+02  0.52652256134E+02  0.00000000000E+00 0. -1.
</event>
<event>
 7    1  0.6988825E-006  0.7716100E+02  0.7561462E-02  0.1337307E+00
          2   -1    0    0  501    0  0.00000000000E+00  0.00000000000E+00  0.14159832491E+04  0.14159832491E+04  0.00000000000E+00 0. -1.
         -2   -1    0    0    0  501 -0.00000000000E+00 -0.00000000000E+00 -0.97351863200E+01  0.97351863200E+01  0.00000000000E+00 0.  1.
         23    2    1    2    0    0  0.45881722211E+01 -0.87717144332E+01  0.34908140110E+03  0.36113105522E+03  0.91977280617E+02 0.  0.
          5    1    1    2  502    0 -0.28282439352E+02 -0.11162670514E+02  0.99035606925E+03  0.99083152851E+03  0.41800000000E+01 0. -1.
         -5    1    1    2    0  502  0.23694267130E+02  0.19934384948E+02  0.66810592426E+02  0.73755851689E+02  0.41800000000E+01 0. -1.
        -11    1    3    3    0    0  0.41492794041E+02  0.19547782173E+02  0.18263593832E+03  0.18830733844E+03  0.00000000000E+00 0. -1.
         11    1    3    3    0    0 -0.36904621820E+02 -0.28319496606E+02  0.16644546278E+03  0.17282371678E+03  0.00000000000E+00 0.  1.
</event>
<event>
 7    1  0.6988825E-006  0.9210310E+02  0.7561462E-02  0.1297837E+00
          2   -1    0    0  501    0  0.00000000000E+00  0.00000000000E+00  0.62167759337E+03  0.62167759337E+03  0.00000000000E+00 0.  1.
         -2   -1    0    0    0  501 -0.00000000000E+00 -0.00000000000E+00 -0.25359902580E+02  0.25359902580E+02  0.00000000000E+00 0. -1.
         23    2    1    2    0    0 -0.32269961451E+02  0.43421535038E+02  0.20121392517E+03  0.22908811707E+03  0.95223639847E+02 0.  0.
          5    1    1    2  502    0  0.35431470195E+01 -0.54798211039E+02  0.60170941460E+02  0.81568452358E+02  0.41800000000E+01 0. -1.
         -5    1    1    2    0  502  0.28726814431E+02  0.11376676001E+02  0.33493282417E+03  0.33638092652E+03  0.41800000000E+01 0. -1.
        -11    1    3    3    0    0 -0.22501846922E+02  0.67936626005E+02  0.91060236463E+02  0.11581746385E+03  0.00000000000E+00 0. -1.
         11    1    3    3    0    0 -0.97681145287E+01 -0.24515090967E+02  0.11015368870E+03  0.11327065322E+03  0.00000000000E+00 0.  1.
</event>
<event>
 7    1  0.6988825E-006  0.1494865E+03  0.7561462E-02  0.1201105E+00
         -1   -1    0    0    0  501 -0.00000000000E+00  0.00000000000E+00  0.94366540624E+02  0.94366540624E+02  0.00000000000E+00 0.  1.
          1   -1    0    0  501    0  0.00000000000E+00 -0.00000000000E+00 -0.33519558981E+03  0.33519558981E+03  0.00000000000E+00 0. -1.
         23    2    1    2    0    0 -0.91589807542E+02 -0.46812599325E+02 -0.20115334164E+02  0.13859699724E+03  0.90688415319E+02 0.  0.
          5    1    1    2  502    0  0.11778207724E+03  0.60197295316E+02 -0.22491415408E+03  0.26096011417E+03  0.41800000000E+01 0. -1.
         -5    1    1    2    0  502 -0.26192269697E+02 -0.13384695990E+02  0.42004390584E+01  0.30005019029E+02  0.41800000000E+01 0.  1.
        -11    1    3    3    0    0 -0.90363684120E+02 -0.69626805873E+02 -0.13906025954E+02  0.11492112539E+03  0.00000000000E+00 0.  1.
         11    1    3    3    0    0 -0.12261234218E+01  0.22814206548E+02 -0.62093082107E+01  0.23675871842E+02  0.00000000000E+00 0. -1.
</event>
<event>
 7    1  0.6988825E-006  0.1370502E+03  0.7561462E-02  0.1217354E+00
         -1   -1    0    0    0  501 -0.00000000000E+00  0.00000000000E+00  0.28999292113E+02  0.28999292113E+02  0.00000000000E+00 0.  1.
          1   -1    0    0  501    0  0.00000000000E+00 -0.00000000000E+00 -0.12380847942E+04  0.12380847942E+04  0.00000000000E+00 0. -1.
         23    2    1    2    0    0 -0.49510911675E+02 -0.11110889336E+03 -0.25149681881E+03  0.29372883282E+03  0.90716375588E+02 0.  0.
          5    1    1    2  502    0  0.38731393811E+02  0.20586159345E+02 -0.82568840916E+02  0.93589511770E+02  0.41800000000E+01 0.  1.
         -5    1    1    2    0  502  0.10779517864E+02  0.90522734019E+02 -0.87501984241E+03  0.87976574177E+03  0.41800000000E+01 0.  1.
        -11    1    3    3    0    0 -0.57784645148E+02 -0.47966247273E+02 -0.75176444544E+02  0.10626064138E+03  0.00000000000E+00 0.  1.
         11    1    3    3    0    0  0.82737334731E+01 -0.63142646091E+02 -0.17632037426E+03  0.18746819144E+03  0.00000000000E+00 0. -1.
</event>
<event>
 7    1  0.6988825E-006  0.2844671E+03  0.7561462E-02  0.1093274E+00
          2   -1    0    0  501    0  0.00000000000E+00  0.00000000000E+00  0.40406947375E+03  0.40406947375E+03  0.00000000000E+00 0. -1.
         -2   -1    0    0    0  501 -0.00000000000E+00 -0.00000000000E+00 -0.21120351410E+03  0.21120351410E+03  0.00000000000E+00 0.  1.
         23    2    1    2    0    0 -0.25836755297E+03  0.74428588442E+02  0.58543822791E+02  0.28972277159E+03  0.90655931898E+02 0.  0.
          5    1    1    2  502    0  0.22958299304E+03 -0.16767519068E+02  0.11903390103E+03  0.25918341457E+03  0.41800000000E+01 0. -1.
         -5    1    1    2    0  502  0.28784559925E+02 -0.57661069374E+02  0.15288235831E+02  0.66366801688E+02  0.41800000000E+01 0. -1.
        -11    1    3    3    0    0 -0.10064101289E+03  0.56397699238E+02 -0.12024952345E+02  0.11599100583E+03  0.00000000000E+00 0.  1.
         11    1    3    3    0    0 -0.15772654008E+03  0.18030889203E+02  0.70568775135E+02  0.17373176577E+03  0.00000000000E+00 0. -1.
</event>
<event>
 7    1  0.6988825E-006  0.9759571E+02  0.7561462E-02  0.1285435E+00
         -3   -1    0    0    0  501 -0.00000000000E+00  0.00000000000E+00  0.61018557320E+03  0.61018557320E+03  0.00000000000E+00 0.  1.
          3   -1    0    0  501    0  0.00000000000E+00 -0.00000000000E+00 -0.28388010393E+02  0.28388010393E+02  0.00000000000E+00 0. -1.
         23    2    1    2    0    0 -0.66489435134E+02  0.30697331243E+01  0.34140178310E+03  0.35952436503E+03  0.90952313328E+02 0.  0.
          5    1    1    2  502    0  0.51915906258E+02 -0.27731527785E+02  0.24292589725E+03  0.24998952560E+03  0.41800000000E+01 0.  1.
         -5    1    1    2    0  502  0.14573528876E+02  0.24661794661E+02 -0.25301175509E+01  0.29059692955E+02  0.41800000000E+01 0.  1.
        -11    1    3    3    0    0 -0.54925414465E+02  0.40381834581E+02  0.26609567773E+03  0.27468964929E+03  0.00000000000E+00 0.  1.
         11    1    3    3    0    0 -0.11564020669E+02 -0.37312101457E+02  0.75306105368E+02  0.84834715741E+02  0.00000000000E+00 0. -1.
</event>
<event>
 7    1  0.6988825E-006  0.1062801E+03  0.7561462E-02  0.1267618E+00
          1   -1    0    0  501    0  0.00000000000E+00  0.00000000000E+00  0.10930987743E+03  0.10930987743E+03  0.00000000000E+00 0. -1.
         -1   -1    0    0    0  501 -0.00000000000E+00 -0.00000000000E+00 -0.14863184166E+03  0.14863184166E+03  0.00000000000E+00 0.  1.
         23    2    1    2    0    0  0.15092890268E+02 -0.50040433190E+02 -0.58751690019E+02  0.12098936366E+03  0.91950120980E+02 0.  0.
          5    1    1    2  502    0  0.21799275543E+02  0.82297658123E+02  0.37155659583E+01  0.85319345854E+02  0.41800000000E+01 0. -1.
         -5    1    1    2    0  502 -0.36892165811E+02 -0.32257224933E+02  0.15714159830E+02  0.51633009575E+02  0.41800000000E+01 0. -1.
        -11    1    3    3    0    0 -0.19398398751E+02 -0.36009819336E+02  0.10617725642E+02  0.42258029539E+02  0.00000000000E+00 0. -1.
         11    1    3    3    0    0  0.34491289019E+02 -0.14030613854E+02 -0.69369415661E+02  0.78731334121E+02  0.00000000000E+00 0.  1.
</event>
<event>
 7    1  0.6988825E-006  0.3812408E+03  0.7561462E-02  0.1050476E+00
         -2   -1    0    0    0  501 -0.00000000000E+00  0.00000000000E+00  0.13068451432E+03  0.13068451432E+03  0.00000000000E+00 0.  1.
          2   -1    0    0  501    0  0.00000000000E+00 -0.00000000000E+00 -0.11900999052E+04  0.11900999052E+04  0.00000000000E+00 0. -1.
         23    2    1    2    0    0  0.29771328858E+03 -0.23333293797E+03 -0.53337195560E+03  0.66090066682E+03  0.96055120867E+02 0.  0.
          5    1    1    2  502    0 -0.52888033582E+02  0.31140065247E+02 -0.24399679828E+02  0.66179033957E+02  0.41800000000E+01 0.  1.
         -5    1    1    2    0  502 -0.24482525500E+03  0.20219287272E+03 -0.50164375543E+03  0.59370471872E+03  0.41800000000E+01 0.  1.
        -11    1    3    3    0    0  0.28271768953E+03 -0.19836706842E+03 -0.43502242658E+03  0.55544873520E+03  0.00000000000E+00 0.  1.
         11    1    3    3    0    0  0.14995599052E+02 -0.34965869550E+02 -0.98349529026E+02  0.10545193163E+03  0.00000000000E+00 0. -1.
</event>
<event>
 7    1  0.6988825E-006  0.1556192E+03  0.7561462E-02  0.1193733E+00
         -1   -1    0    0    0  501 -0.00000000000E+00  0.00000000000E+00  0.14772291520E+03  0.14772291520E+03  0.00000000000E+00 0.  1.
          1   -1    0    0  501    0  0.00000000000E+00 -0.00000000000E+00 -0.20407698166E+03  0.20407698166E+03  0.00000000000E+00 0. -1.
         23    2    1    2    0    0 -0.36658361831E+02  0.12550317571E+03  0.84644041593E+01  0.15959332892E+03  0.91123552903E+02 0.  0.
          5    1    1    2  502    0  0.51472293522E+02  0.20063394776E+01 -0.10391818521E+02  0.52715127721E+02  0.41800000000E+01 0. -1.
         -5    1    1    2    0  502 -0.14813931691E+02 -0.12750951519E+03 -0.54426652093E+02  0.13949144021E+03  0.41800000000E+01 0. -1.
        -11    1    3    3    0    0 -0.10378928418E+01  0.14653341475E+02  0.36919116200E+02  0.39734352630E+02  0.00000000000E+00 0. -1.
         11    1    3    3    0    0 -0.35620468990E+02  0.11084983423E+03 -0.28454712040E+02  0.11985897629E+03  0.00000000000E+00 0.  1.
</event>
<event>
 7    1  0.6988825E-006  0.1041486E+03  0.7561462E-02  0.1271806E+00
         -2   -1    0    0    0  501 -0.00000000000E+00  0.00000000000E+00  0.10850736623E+02  0.10850736623E+02  0.00000000000E+00 0.  1.
          2   -1    0    0  501    0  0.00000000000E+00 -0.00000000000E+00 -0.11797979061E+04  0.11797979061E+04  0.00000000000E+00 0. -1.
         23    2    1    2    0    0  0.42784707454E+01 -0.46594331852E+01 -0.33884578091E+03  0.35115176969E+03  0.91929791073E+02 0.  0.
          5    1    1    2  502    0 -0.42331073882E+02  0.44439209878E+02 -0.28253530342E+03  0.28915468744E+03  0.41800000000E+01 0. -1.
         -5    1    1    2    0  502  0.38052603136E+02 -0.39779776693E+02 -0.54756608516E+03  0.55034218561E+03  0.41800000000E+01 0. -1.
        -11    1    3    3    0    0 -0.37152941138E+02 -0.25631126036E+02 -0.18661154625E+03  0.19199261665E+03  0.00000000000E+00 0.  1.
         11    1    3    3    0    0  0.41431411884E+02  0.20971692851E+02 -0.15223423466E+03  0.15915915303E+03  0.00000000000E+00 0. -1.
</event>
<event>
 7    1  0.6988825E-006  0.1027984E+03  0.7561462E-02  0.1274519E+00
          2   -1    0    0  501    0  0.00000000000E+00  0.00000000000E+00  0.10217632752E+04  0.10217632752E+04  0.00000000000E+00 0.  1.
         -2   -1    0    0    0  501 -0.00000000000E+00 -0.00000000000E+00 -0.12959941017E+02  0.12959941017E+02  0.00000000000E+00 0. -1.
         23    2    1    2    0    0  0.28099816593E+01 -0.35031110836E+01  0.27197758057E+03  0.28734117665E+03  0.92590386548E+02 0.  0.
          5    1    1    2  502    0 -0.60989207815E+02 -0.16338275144E+02  0.34826700738E+03  0.35396893018E+03  0.41800000000E+01 0. -1.
         -5    1    1    2    0  502  0.58179226155E+02  0.19841386228E+02  0.38855874624E+03  0.39341310939E+03  0.41800000000E+01 0. -1.
        -11    1    3    3    0    0  0.33915134143E+02  0.22049313824E+02  0.20691618892E+03  0.21083338872E+03  0.00000000000E+00 0.  1.
         11    1    3    3    0    0 -0.31105152483E+02 -0.25552424907E+02  0.65061391654E+02  0.76507787928E+02  0.00000000000E+00 0. -1.
</event>
<event>
 7    1  0.6988825E-006  0.1300049E+03  0.7561462E-02  0.1227448E+00
         -2   -1    0    0    0  501 -0.00000000000E+00  0.00000000000E+00  0.71689811994E+03  0.71689811994E+03  0.00000000000E+00 0.  1.
          2   -1    0    0  501    0  0.00000000000E+00 -0.00000000000E+00 -0.34207972226E+02  0.34207972226E+02  0.00000000000E+00 0. -1.
         23    2    1    2    0    0 -0.53511588712E+02  0.76625422827E+02  0.45799162287E+03  0.47748213846E+03  0.97457274632E+02 0.  0.
          5    1    1    2  502    0 -0.18702939906E+02  0.17858137099E+02  0.97776060848E+01  0.27960454261E+02  0.41800000000E+01 0.  1.
         -5    1    1    2    0  502  0.72214528617E+02 -0.94483559925E+02  0.21492091876E+03  0.24566349945E+03  0.41800000000E+01 0.  1.
        -11    1    3    3    0    0 -0.31762144639E+02 -0.33522165269E+01  0.39181385546E+02  0.50549502085E+02  0.00000000000E+00 0. -1.
         11    1    3    3    0    0 -0.21749444072E+02  0.79977639354E+02  0.41881023732E+03  0.42693263637E+03  0.00000000000E+00 0.  1.
</event>
<event>
 7    1  0.6988825E-006  0.3272509E+03  0.7561462E-02  0.1072360E+00
          1   -1    0    0  501    0  0.00000000000E+00  0.00000000000E+00  0.17219682374E+04  0.17219682374E+04  0.00000000000E+00 0. -1.
         -1   -1    0    0    0  501 -0.00000000000E+00 -0.00000000000E+00 -0.65959052673E+02  0.65959052673E+02  0.00000000000E+00 0.  1.
         23    2    1    2    0    0  0.24952700486E+03 -0.19604701631E+03  0.90215077969E+03  0.96049350997E+03  0.89294986625E+02 0.  0.
          5    1    1    2  502    0 -0.21382602661E+01 -0.66481684860E+01  0.91814658933E+02  0.92174694445E+02  0.41800000000E+01 0. -1.
         -5    1    1    2    0  502 -0.24738874460E+03  0.20269518479E+03  0.66204374610E+03  0.73525908566E+03  0.41800000000E+01 0. -1.
        -11    1    3    3    0    0  0.17884833803E+03 -0.18058894237E+03  0.75265668558E+03  0.79441247502E+03  0.00000000000E+00 0. -1.
         11    1    3    3    0    0  0.70678666829E+02 -0.15458073935E+02  0.14949409412E+03  0.16608103495E+03  0.00000000000E+00 0.  1.
</event>
<event>
 7    1  0.6988825E-006  0.8697127E+02  0.7561462E-02  0.1310356E+00
          3   -1    0    0  501    0  0.00000000000E+00  0.00000000000E+00  0.14644979728E+03  0.14644979728E+03  0.00000000000E+00 0. -1.
         -3   -1    0    0    0  501 -0.00000000000E+00 -0.00000000000E+00 -0.17046251879E+03  0.17046251879E+03  0.00000000000E+00 0.  1.
         23    2    1    2    0    0 -0.53449340760E+02 -0.38236756258E+02 -0.10622771195E+03  0.15343181761E+03  0.89096095945E+02 0.  0.
          5    1    1    2  502    0 -0.30224098047E+01  0.45459184217E+02  0.94586593160E+02  0.10507030216E+03  0.41800000000E+01 0.  1.
         -5    1    1    2    0  502  0.56471750565E+02 -0.72224279591E+01 -0.12371602714E+02  0.58410196295E+02  0.41800000000E+01 0.  1.
        -11    1    3    3    0    0 -0.21601880145E+02 -0.32071250932E+02  0.36746417320E+01  0.38842108002E+02  0.00000000000E+00 0. -1.
         11    1    3    3    0    0 -0.31847460615E+02 -0.61655053258E+01 -0.10990235368E+03  0.11458970961E+03  0.00000000000E+00 0.  1.
</event>
<event>
 7    1  0.6988825E-006  0.1387961E+03  0.7561462E-02  0.1214958E+00
          2   -1    0    0  501    0  0.00000000000E+00  0.00000000000E+00  0.64025485267E+03  0.64025485267E+03  0.00000000000E+00 0. -1.
         -2   -1    0    0    0  501 -0.00000000000E+00 -0.00000000000E+00 -0.41009886770E+02  0.41009886770E+02  0.00000000000E+00 0.  1.
         23    2    1    2    0    0  0.81884472487E+02 -0.50925831550E+02  0.12261405233E+03  0.17914608828E+03  0.88094312896E+02 0.  0.
          5    1    1    2  502    0 -0.10499792518E+03  0.70391956027E+02  0.36032494831E+03  0.38187842639E+03  0.41800000000E+01 0. -1.
         -5    1    1    2    0  502  0.23113452695E+02 -0.19466124478E+02  0.11630596526E+03  0.12024022477E+03  0.41800000000E+01 0. -1.
        -11    1    3    3    0    0  0.58262888806E+02 -0.69403219050E+02  0.57132623818E+02  0.10712379629E+03  0.00000000000E+00 0.  1.
         11    1    3    3    0    0  0.23621583681E+02  0.18477387500E+02  0.65481428511E+02  0.72022291996E+02  0.00000000000E+00 0. -1.
</event>
<event>
 7    1  0.6988825E-006  0.1890879E+03  0.7561462E-02  0.1159287E+00
          2   -1    0    0  501    0  0.00000000000E+00  0.00000000000E+00  0.10762348905E+04  0.10762348905E+04  0.00000000000E+00 0. -1.
         -2   -1    0    0    0  501 -0.00000000000E+00 -0.00000000000E+00 -0.37696346697E+02  0.37696346697E+02  0.00000000000E+00 0.  1.
         23    2    1    2    0    0 -0.16526723143E+03 -0.34490766914E+02  0.43892442916E+03  0.47856729611E+03  0.88708125885E+02 0.  0.
          5    1    1    2  502    0 -0.16542420079E+02  0.92730126888E+01  0.22357455383E+02  0.29613656269E+02  0.41800000000E+01 0.  1.
         -5    1    1    2    0  502  0.18180965151E+03  0.25217754225E+02  0.57725665930E+03  0.60575028487E+03  0.41800000000E+01 0.  1.
        -11    1    3    3    0    0 -0.13914043552E+03 -0.10248543435E+02  0.40862869224E+03  0.43178988126E+03  0.00000000000E+00 0. -1.
         11    1    3    3    0    0 -0.26126795909E+02 -0.24242223479E+02  0.30295736928E+02  0.46777414846E+02  0.00000000000E+00 0.  1.
</event>
<event>
 7    1  0.6988825E-006  0.1064899E+03  0.7561462E-02  0.1267212E+00
          4   -1    0    0  501    0  0.00000000000E+00  0.00000000000E+00  0.79159790587E+02  0.79159790587E+02  0.00000000000E+00 0. -1.
         -4   -1    0    0    0  501 -0.00000000000E+00 -0.00000000000E+00 -0.19779082932E+03  0.19779082932E+03  0.00000000000E+00 0.  1.
         23    2    1    2    0    0  0.50553115415E+02  0.28791933759E+02 -0.77024549253E+02  0.13285425995E+03  0.91284611358E+02 0.  0.
          5    1    1    2  502    0  0.35748573304E+02 -0.21445307987E+02 -0.39158197962E+02  0.57347176003E+02  0.41800000000E+01 0. -1.
         -5    1    1    2    0  502 -0.86301688719E+02 -0.73466257718E+01 -0.24482915195E+01  0.86749183958E+02  0.41800000000E+01 0. -1.
        -11    1    3    3    0    0 -0.14284675221E+02  0.30439564595E+01 -0.59026835765E+02  0.60806948267E+02  0.00000000000E+00 0.  1.
         11    1    3    3    0    0  0.64837790636E+02  0.25747977299E+02 -0.17997713488E+02  0.72047311681E+02  0.00000000000E+00 0. -1.
</event>
<event>
 7    1  0.6988825E-006  0.9923959E+02  0.7561462E-02  0.1281903E+00
          1   -1    0    0  501    0  0.00000000000E+00  0.00000000000E+00  0.81677721168E+03  0.81677721168E+03  0.00000000000E+00 0. -1.
         -1   -1    0    0    0  501 -0.00000000000E+00 -0.00000000000E+00 -0.21898668709E+02  0.21898668709E+02  0.00000000000E+00 0.  1.
         23    2    1    2    0    0  0.23281622109E+02 -0.60345587172E+02  0.22099870035E+03  0.24777077958E+03  0.91467534335E+02 0.  0.
          5    1    1    2  502    0 -0.34889731398E+02 -0.23583082187E+02  0.87661381951E+02  0.97341899550E+02  0.41800000000E+01 0.  1.
         -5    1    1    2    0  502  0.11608109289E+02  0.83928669358E+02  0.48621846068E+03  0.49356320127E+03  0.41800000000E+01 0.  1.
        -11    1    3    3    0    0  0.16748577845E+02 -0.79709056005E+01 -0.19581992819E+01  0.18651668568E+02  0.00000000000E+00 0.  1.
         11    1    3    3    0    0  0.65330442637E+01 -0.52374681571E+02  0.22295689963E+03  0.22911911101E+03  0.00000000000E+00 0. -1.
</event>
<event>
 7    1  0.6988825E-006  0.1302587E+03  0.7561462E-02  0.1227072E+00
         -1   -1    0    0    0  501 -0.00000000000E+00  0.00000000000E+00  0.26975681606E+02  0.26975681606E+02  0.00000000000E+00 0.  1.
          1   -1    0    0  501    0  0.00000000000E+00 -0.00000000000E+00 -0.69258882024E+03  0.69258882024E+03  0.00000000000E+00 0. -1.
         23    2    1    2    0    0 -0.73525194544E+02  0.36144057833E+02 -0.34857564015E+03  0.36903368027E+03  0.89266640542E+02 0.  0.
          5    1    1    2  502    0  0.10472097588E+03 -0.18869279855E+02 -0.27693979302E+03  0.29670802798E+03  0.41800000000E+01 0. -1.
         -5    1    1    2    0  502 -0.31195781335E+02 -0.17274777979E+02 -0.40097705461E+02  0.53822793597E+02  0.41800000000E+01 0. -1.
        -11    1    3    3    0    0 -0.68660127214E+02  0.61578551281E+02 -0.30168300466E+03  0.31546595117E+03  0.00000000000E+00 0. -1.
         11    1    3    3    0    0 -0.48650673294E+01 -0.25434493448E+02 -0.46892635488E+02  0.53567729092E+02  0.00000000000E+00 0.  1.
</event>
<event>
 7    1  0.6988825E-006  0.1126062E+03  0.7561462E-02  0.1255818E+00
         -2   -1    0    0    0  501 -0.00000000000E+00  0.00000000000E+00  0.38863337451E+02  0.38863337451E+02  0.00000000000E+00 0.  1.
          2   -1    0    0  501    0  0.00000000000E+00 -0.00000000000E+00 -0.14062574879E+04  0.14062574879E+04  0.00000000000E+00 0. -1.
         23    2    1    2    0    0 -0.16032596861E+02  0.77398140467E+02 -0.71023504887E+02  0.14033269508E+03  0.91659209859E+02 0.  0.
          5    1    1    2  502    0  0.30558825875E+02 -0.97177783842E+02 -0.65080918596E+03  0.65874686523E+03  0.41800000000E+01 0.  1.
         -5    1    1    2    0  502 -0.14526229014E+02  0.19779643375E+02 -0.64556145955E+03  0.64604126500E+03  0.41800000000E+01 0.  1.
        -11    1    3    3    0    0  0.60546053675E+01 -0.80691485598E+01 -0.48076864700E+02  0.49123867152E+02  0.00000000000E+00 0. -1.
         11    1    3    3    0    0 -0.22087202229E+02  0.85467289027E+02 -0.22946640187E+02  0.91208827927E+02  0.00000000000E+00 0.  1.
</event>
<event>
 7    1  0.6988825E-006  0.1341119E+03  0.7561462E-02  0.1221479E+00
         -2   -1    0    0    0  501 -0.00000000000E+00  0.00000000000E+00  0.27521215449E+02  0.27521215449E+02  0.00000000000E+00 0.  1.
          2   -1    0    0  501    0  0.00000000000E+00 -0.00000000000E+00 -0.95964498880E+03  0.95964498880E+03  0.00000000000E+00 0. -1.
         23    2    1    2    0    0 -0.93288759310E+02  0.35330305696E+02 -0.22150863398E+03  0.25876119702E+03  0.89108131188E+02 0.  0.
          5    1    1    2  502    0 -0.30956601456E+02 -0.67709546688E+01 -0.12099550253E+03  0.12514607878E+03  0.41800000000E+01 0. -1.
         -5    1    1    2    0  502  0.12424536077E+03 -0.28559351027E+02 -0.58961963684E+03  0.60325892845E+03  0.41800000000E+01 0. -1.
        -11    1    3    3    0    0 -0.62173597364E+02  0.44280187439E+02 -0.21153173335E+03  0.22488211451E+03  0.00000000000E+00 0. -1.
         11    1    3    3    0    0 -0.31115161946E+02 -0.89498817432E+01 -0.99769006240E+01  0.33879082517E+02  0.00000000000E+00 0.  1.
</event>
<event>
 7    1  0.6988825E-006  0.1130576E+03  0.7561462E-02  0.1255010E+00
         -3   -1    0    0    0  501 -0.00000000000E+00  0.00000000000E+00  0.16402433328E+03  0.16402433328E+03  0.00000000000E+00 0.  1.
          3   -1    0    0  501    0  0.00000000000E+00 -0.00000000000E+00 -0.10329845924E+03  0.10329845924E+03  0.00000000000E+00 0. -1.
         23    2    1    2    0    0  0.70530842280E+02  0.38101318569E+02  0.40549173776E+02  0.11738122396E+03  0.75550023522E+02 0.  0.
          5    1    1    2  502    0 -0.96256526933E+02 -0.31425011031E+02 -0.18309872130E+02  0.10298336814E+03  0.41800000000E+01 0. -1.
         -5    1    1    2    0  502  0.25725684653E+02 -0.66763075380E+01  0.38486572388E+02  0.46958200427E+02  0.41800000000E+01 0. -1.
        -11    1    3    3    0    0  0.13470948097E+02 -0.14831982136E+02  0.33754842439E+02  0.39253579771E+02  0.00000000000E+00 0.  1.
         11    1    3    3    0    0  0.57059894183E+02  0.52933300705E+02  0.67943313364E+01  0.78127644186E+02  0.00000000000E+00 0. -1.
</event>
<event>
 7    1  0.6988825E-006  0.1428727E+03  0.7561462E-02  0.1209515E+00
         -1   -1    0    0    0  501 -0.00000000000E+00  0.00000000000E+00  0.27658868642E+02  0.27658868642E+02  0.00000000000E+00 0.  1.
          1   -1    0    0  501    0  0.00000000000E+00 -0.00000000000E+00 -0.75339213661E+03  0.75339213661E+03  0.00000000000E+00 0. -1.
         23    2    1    2    0    0  0.52258831663E+01  0.80038112967E+02 -0.30298850069E+03  0.32696250818E+03  0.93107684016E+02 0.  0.
          5    1    1    2  502    0 -0.73123403018E+02 -0.55471472337E+02 -0.26708278358E+03  0.28244433433E+03  0.41800000000E+01 0. -1.
         -5    1    1    2    0  502  0.67897519851E+02 -0.24566640630E+02 -0.15566198371E+03  0.17164416275E+03  0.41800000000E+01 0.  1.
        -11    1    3    3    0    0 -0.10629818755E+02 -0.18715122254E+02 -0.74392867139E+02  0.77443834673E+02  0.00000000000E+00 0.  1.
         11    1    3    3    0    0  0.15855701922E+02  0.98753235221E+02 -0.22859563355E+03  0.24951867350E+03  0.00000000000E+00 0. -1.
</event>
<event>
 7    1  0.6988825E-006  0.1052450E+03  0.7561462E-02  0.1269638E+00
         -2   -1    0    0    0  501 -0.00000000000E+00  0.00000000000E+00  0.43241003585E+02  0.43241003585E+02  0.00000000000E+00 0.  1.
          2   -1    0    0  501    0  0.00000000000E+00 -0.00000000000E+00 -0.40951485403E+03  0.40951485403E+03  0.00000000000E+00 0. -1.
         23    2    1    2    0    0  0.59463908622E+02  0.48943533060E+02 -0.14844504628E+03  0.19002396824E+03  0.90231651229E+02 0.  0.
          5    1    1    2  502    0 -0.41718922097E+02  0.29676600949E+01 -0.20077866714E+03  0.20513122884E+03  0.41800000000E+01 0. -1.
         -5    1    1    2    0  502 -0.17744986525E+02 -0.51911193154E+02 -0.17050137026E+02  0.57600660535E+02  0.41800000000E+01 0. -1.
        -11    1    3    3    0    0  0.28959727713E+02  0.70413050805E+02 -0.71185445812E+02  0.10423066367E+03  0.00000000000E+00 0.  1.
         11    1    3    3    0    0  0.30504180909E+02 -0.21469517745E+02 -0.77259600470E+02  0.85793304575E+02  0.00000000000E+00 0. -1.
</event>
<event>
 7    1  0.6988825E-006  0.5601911E+02  0.7561462E-02  0.1415340E+00
          2   -1    0    0  501    0  0.00000000000E+00  0.00000000000E+00  0.90176141356E+02  0.90176141356E+02  0.00000000000E+00 0.  1.
         -2   -1    0    0    0  501 -0.00000000000E+00 -0.00000000000E+00 -0.19637408550E+03  0.19637408550E+03  0.00000000000E+00 0. -1.
         23    2    1    2    0    0 -0.48606845826E+02 -0.16474388087E+02 -0.10893626111E+03  0.15132044294E+03  0.91633708553E+02 0.  0.
          5    1    1    2  502    0  0.30301891487E+02  0.11396378151E+02 -0.60676042408E+02  0.68899467233E+02  0.41800000000E+01 0.  1.
         -5    1    1    2    0  502  0.18304954338E+02  0.50780099361E+01  0.63414359367E+02  0.66330316689E+02  0.41800000000E+01 0.  1.
        -11    1    3    3    0    0 -0.16606131121E+02  0.91398587293E+01 -0.10868975498E+03  0.11033024720E+03  0.00000000000E+00 0. -1.
         11    1    3    3    0    0 -0.32000714704E+02 -0.25614246817E+02 -0.24650612359E+00  0.40990195741E+02  0.00000000000E+00 0.  1.
</event>
<event>
 7    1  0.6988825E-006  0.1277621E+03  0.7561462E-02  0.1230815E+00
         -1   -1    0    0    0  501 -0.00000000000E+00  0.00000000000E+00  0.18545316413E+02  0.18545316413E+02  0.00000000000E+00 0.  1.
          1   -1    0    0  501    0  0.00000000000E+00 -0.00000000000E+00 -0.96591785585E+03  0.96591785585E+03  0.00000000000E+00 0. -1.
         23    2    1    2    0    0 -0.63276578579E+02  0.34777289674E+02 -0.31007708395E+03  0.33100605118E+03  0.90574955975E+02 0.  0.
          5    1    1    2  502    0  0.56921704107E+02 -0.78844166284E+02 -0.37781059602E+03  0.39014715406E+03  0.41800000000E+01 0.  1.
         -5    1    1    2    0  502  0.63548744713E+01  0.44066876610E+02 -0.25948485946E+03  0.26330996702E+03  0.41800000000E+01 0.  1.
        -11    1    3    3    0    0 -0.56322217135E+02  0.62941123068E+02 -0.19855667942E+03  0.21577426181E+03  0.00000000000E+00 0.  1.
         11    1    3    3    0    0 -0.69543614439E+01 -0.28163833393E+02 -0.11152040453E+03  0.11523178937E+03  0.00000000000E+00 0. -1.
</event>
<event>
 6    1  0.6988825E-006  0.1405500E+03  0.7561462E-02  0.1212591E+00
          1   -1    0    0  501    0  0.00000000000E+00  0.00000000000E+00  0.12871300045E+03  0.12871300045E+03  0.00000000000E+00 0. -1.
         -1   -1    0    0    0  501 -0.00000000000E+00 -0.00000000000E+00 -0.17151303592E+03  0.17151303592E+03  0.00000000000E+00 0.  1.
          5    1    1    2  502    0  0.70093276393E+01 -0.38707847737E+02  0.12900684888E+02  0.41609232401E+02  0.41800000000E+01 0.  1.
         -5    1    1    2    0  502 -0.64699600766E+02  0.78758813356E+02 -0.43132141035E+01  0.10210320875E+03  0.41800000000E+01 0.  1.
        -11    1    1    2    0    0  0.95673471070E+02 -0.28869737010E+02 -0.59203540545E+02  0.11615478464E+03  0.00000000000E+00 0.  1.
         11    1    1    2    0    0 -0.37983197943E+02 -0.11181228609E+02  0.78160342925E+01  0.40358810578E+02  0.00000000000E+00 0. -1.
</event>
<event>
 7    1  0.6988825E-006  0.9388372E+02  0.7561462E-02  0.1293710E+00
         -1   -1    0    0    0  501 -0.00000000000E+00  0.00000000000E+00  0.25245629773E+02  0.25245629773E+02  0.00000000000E+00 0.  1.
          1   -1    0    0  501    0  0.00000000000E+00 -0.00000000000E+00 -0.52937265709E+03  0.52937265709E+03  0.00000000000E+00 0. -1.
         23    2    1    2    0    0 -0.17128757544E+02  0.17065039249E+02 -0.17035873330E+03  0.19735891574E+03  0.96663507651E+02 0.  0.
          5    1    1    2  502    0 -0.28807776704E+02  0.38371731800E+02 -0.19512399900E+03  0.20098040995E+03  0.41800000000E+01 0. -1.
         -5    1    1    2    0  502  0.45936534248E+02 -0.55436771049E+02 -0.13864429502E+03  0.15627896117E+03  0.41800000000E+01 0. -1.
        -11    1    3    3    0    0 -0.36761553779E+02 -0.59449561757E+01 -0.16806682070E+02  0.40856075465E+02  0.00000000000E+00 0.  1.
         11    1    3    3    0    0  0.19632796235E+02  0.23009995424E+02 -0.15355205123E+03  0.15650284028E+03  0.00000000000E+00 0. -1.
</event>
<event>
 7    1  0.6988825E-006  0.1334552E+03  0.7561462E-02  0.1222417E+00
         -1   -1    0    0    0  501 -0.00000000000E+00  0.00000000000E+00  0.21655812036E+02  0.21655812036E+02  0.00000000000E+00 0.  1.
          1   -1    0    0  501    0  0.00000000000E+00 -0.00000000000E+00 -0.13088106306E+04  0.13088106306E+04  0.00000000000E+00 0. -1.
         23    2    1    2    0    0 -0.28219766799E+01 -0.12996307954E+03 -0.56182484492E+03  0.58303826525E+03  0.85954038807E+02 0.  0.
          5    1    1    2  502    0 -0.24221519709E+01  0.34350951371E+02 -0.51638152954E+03  0.51754537109E+03  0.41800000000E+01 0.  1.
         -5    1    1    2    0  502  0.52441286507E+01  0.95612128167E+02 -0.20894844412E+03  0.22988280632E+03  0.41800000000E+01 0.  1.
        -11    1    3    3    0    0  0.18517587669E+02 -0.42744077984E+02 -0.77200788517E+02  0.90166063480E+02  0.00000000000E+00 0.  1.
         11    1    3    3    0    0 -0.21339564349E+02 -0.87219001553E+02 -0.48462405640E+03  0.49287220177E+03  0.00000000000E+00 0. -1.
</event>
<event>
 7    1  0.6988825E-006  0.1655238E+03  0.7561462E-02  0.1182598E+00
         -2   -1    0    0    0  501 -0.00000000000E+00  0.00000000000E+00  0.28732939208E+03  0.28732939208E+03  0.00000000000E+00 0.  1.
          2   -1    0    0  501    0  0.00000000000E+00 -0.00000000000E+00 -0.14281156346E+03  0.14281156346E+03  0.00000000000E+00 0. -1.
         23    2    1    2    0    0  0.52964572345E+02  0.11365651208E+03  0.19231786205E+03  0.24668767228E+03  0.90252971859E+02 0.  0.
          5    1    1    2  502    0 -0.58507331407E+02  0.39242531659E+01 -0.22733061351E+02  0.63029929951E+02  0.41800000000E+01 0.  1.
         -5    1    1    2    0  502  0.55427590618E+01 -0.11758076525E+03 -0.25066972074E+02  0.12042335331E+03  0.41800000000E+01 0.  1.
        -11    1    3    3    0    0 -0.24560605475E+02  0.43314369199E+02  0.63873422090E+02  0.80988715078E+02  0.00000000000E+00 0.  1.
         11    1    3    3    0    0  0.77525177821E+02  0.70342142880E+02  0.12844443996E+03  0.16569895720E+03  0.00000000000E+00 0. -1.
</event>
<event>
 7    1  0.6988825E-006  0.1159821E+03  0.7561462E-02  0.1249876E+00
         -1   -1    0    0    0  501 -0.00000000000E+00  0.00000000000E+00  0.59280585725E+02  0.59280585725E+02  0.00000000000E+00 0. -1.
          1   -1    0    0  501    0  0.00000000000E+00 -0.00000000000E+00 -0.31257813958E+03  0.31257813958E+03  0.00000000000E+00 0.  1.
         23    2    1    2    0    0  0.25758258150E+01 -0.64891825115E+02 -0.47743892716E+02  0.12262278340E+03  0.92408245692E+02 0.  0.
          5    1    1    2  502    0  0.46158697772E+02  0.11534209795E+02 -0.23315341172E+02  0.53148291690E+02  0.41800000000E+01 0. -1.
         -5    1    1    2    0  502 -0.48734523587E+02  0.53357615319E+02 -0.18223831997E+03  0.19608765021E+03  0.41800000000E+01 0. -1.
        -11    1    3    3    0    0 -0.44238654841E+02 -0.30728941132E+02 -0.31654105728E+02  0.62476466087E+02  0.00000000000E+00 0.  1.
         11    1    3    3    0    0  0.46814480656E+02 -0.34162883982E+02 -0.16089786988E+02  0.60146317314E+02  0.00000000000E+00 0. -1.
</event>
<event>
 7    1  0.6988825E-006  0.2017943E+03  0.7561462E-02  0.1148234E+00
          1   -1    0    0  501    0  0.00000000000E+00  0.00000000000E+00  0.13500435000E+04  0.13500435000E+04  0.00000000000E+00 0. -1.
         -1   -1    0    0    0  501 -0.00000000000E+00 -0.00000000000E+00 -0.38498455370E+02  0.38498455370E+02  0.00000000000E+00 0.  1.
         23    2    1    2    0    0 -0.44290543808E+02 -0.18432783680E+03  0.44568681671E+03  0.49297913383E+03  0.91941743038E+02 0.  0.
          5    1    1    2  502    0  0.49325276192E+02  0.11219301520E+03  0.74212746528E+03  0.75219073556E+03  0.41800000000E+01 0. -1.
         -5    1    1    2    0  502 -0.50347323835E+01  0.72134821598E+02  0.12373076266E+03  0.14337208600E+03  0.41800000000E+01 0.  1.
        -11    1    3    3    0    0 -0.19527324260E+01 -0.15937141329E+03  0.36827038204E+03  0.40128061856E+03  0.00000000000E+00 0.  1.
         11    1    3    3    0    0 -0.42337811382E+02 -0.24956423507E+02  0.77416434665E+02  0.91698515272E+02  0.00000000000E+00 0. -1.
</event>
<event>
 7    1  0.6988825E-006  0.1076804E+03  0.7561462E-02  0.1264927E+00
          2   -1    0    0  501    0  0.00000000000E+00  0.00000000000E+00  0.37806403878E+02  0.37806403878E+02  0.00000000000E+00 0. -1.
         -2   -1    0    0    0  501 -0.00000000000E+00 -0.00000000000E+00 -0.34421731905E+03  0.34421731905E+03  0.00000000000E+00 0.  1.
         23    2    1    2    0    0 -0.33256936452E+01 -0.40385809671E+02 -0.13030259427E+03  0.16223923345E+03  0.87753797284E+02 0.  0.
          5    1    1    2  502    0 -0.37755941068E+02 -0.23724767891E+02 -0.11033956984E+03  0.11908261321E+03  0.41800000000E+01 0.  1.
         -5    1    1    2    0  502  0.41081634713E+02  0.64110577563E+02 -0.65768751069E+02  0.10070187627E+03  0.41800000000E+01 0.  1.
        -11    1    3    3    0    0 -0.29590631162E+02  0.14883678204E+02 -0.29704335082E+02  0.44491312097E+02  0.00000000000E+00 0.  1.
         11    1    3    3    0    0  0.26264937517E+02 -0.55269487875E+02 -0.10059825918E+03  0.11774792136E+03  0.00000000000E+00 0. -1.
</event>
<event>
 7    1  0.6988825E-006  0.1092749E+03  0.7561462E-02  0.1261919E+00
          1   -1    0    0  501    0  0.00000000000E+00  0.00000000000E+00  0.50507446128E+03  0.50507446128E+03  0.00000000000E+00 0. -1.
         -1   -1    0    0    0  501 -0.00000000000E+00 -0.00000000000E+00 -0.41305896353E+02  0.41305896353E+02  0.00000000000E+00 0.  1.
         23    2    1    2    0    0 -0.14935110035E+02 -0.75437203247E+02  0.10241088113E+03  0.15632916107E+03  0.89649254774E+02 0.  0.
          5    1    1    2  502    0  0.56442011753E+02  0.55435202987E+02  0.31402433335E+03  0.32386342300E+03  0.41800000000E+01 0. -1.
         -5    1    1    2    0  502 -0.41506901717E+02  0.20002000260E+02  0.47333350438E+02  0.66187773556E+02  0.41800000000E+01 0. -1.
        -11    1    3    3    0    0 -0.26245116874E+02 -0.12414243670E+02  0.85222928673E+02  0.90032589528E+02  0.00000000000E+00 0. -1.
         11    1    3    3    0    0  0.11310006839E+02 -0.63022959577E+02  0.17187952459E+02  0.66296571543E+02  0.00000000000E+00 0.  1.
</event>
<event>
 7    1  0.6988825E-006  0.8603475E+02  0.7561462E-02  0.1312749E+00
         -1   -1    0    0    0  501 -0.00000000000E+00  0.00000000000E+00  0.18673882451E+03  0.18673882451E+03  0.00000000000E+00 0.  1.
          1   -1    0    0  501    0  0.00000000000E+00 -0.00000000000E+00 -0.53400153814E+02  0.53400153814E+02  0.00000000000E+00 0. -1.
         23    2    1    2    0    0  0.13646451611E+02  0.15590739013E+02  0.66417311437E+02  0.96768475092E+02  0.67257577481E+02 0.  0.
          5    1    1    2  502    0 -0.31773013662E+02  0.44233202420E+02  0.58702116157E+02  0.80184234328E+02  0.41800000000E+01 0. -1.
         -5    1    1    2    0  502  0.18126562052E+02 -0.59823941432E+02  0.82192430977E+01  0.63186268899E+02  0.41800000000E+01 0. -1.
        -11    1    3    3    0    0  0.29421475560E+02 -0.39488709230E+01  0.65184346471E+02  0.71625524993E+02  0.00000000000E+00 0.  1.
         11    1    3    3    0    0 -0.15775023950E+02  0.19539609936E+02  0.12329649660E+01  0.25142950099E+02  0.00000000000E+00 0. -1.
</event>
<event>
 7    1  0.6988825E-006  0.9298325E+02  0.7561462E-02  0.1295784E+00
         -2   -1    0    0    0  501 -0.00000000000E+00  0.00000000000E+00  0.29900096989E+03  0.29900096989E+03  0.00000000000E+00 0.  1.
          2   -1    0    0  501    0  0.00000000000E+00 -0.00000000000E+00 -0.63511817489E+02  0.63511817489E+02  0.00000000000E+00 0. -1.
         23    2    1    2    0    0  0.81321888073E+01 -0.84147807627E+01  0.21670648196E+03  0.23547895108E+03  0.91387614315E+02 0.  0.
          5    1    1    2  502    0  0.32962076986E+02 -0.38746515194E+02  0.35472337817E+02  0.62157462216E+02  0.41800000000E+01 0.  1.
         -5    1    1    2    0  502 -0.41094265793E+02  0.47161295956E+02 -0.16689667370E+02  0.64876374084E+02  0.41800000000E+01 0.  1.
        -11    1    3    3    0    0  0.39930311729E+02 -0.53285860976E+01  0.43249789024E+02  0.59104719567E+02  0.00000000000E+00 0. -1.
         11    1    3    3    0    0 -0.31798122921E+02 -0.30861946651E+01  0.17345669293E+03  0.17637423151E+03  0.00000000000E+00 0.  1.
</event>
<event>
 7    1  0.6988825E-006  0.1830418E+03  0.7561462E-02  0.1164891E+00
         -4   -1    0    0    0  501 -0.00000000000E+00  0.00000000000E+00  0.14446085634E+03  0.14446085634E+03  0.00000000000E+00 0.  1.
          4   -1    0    0  501    0  0.00000000000E+00 -0.00000000000E+00 -0.26984491095E+03  0.26984491095E+03  0.00000000000E+00 0. -1.
         23    2    1    2    0    0 -0.52853605008E+02  0.15375671922E+03 -0.35060425492E+02  0.19016284263E+03  0.92184819875E+02 0.  0.
          5    1    1    2  502    0  0.70939633275E+02 -0.10231790924E+03 -0.10983564645E+03  0.16608048577E+03  0.41800000000E+01 0.  1.
         -5    1    1    2    0  502 -0.18086028267E+02 -0.51438809973E+02  0.19512017337E+02  0.58062438896E+02  0.41800000000E+01 0.  1.
        -11    1    3    3    0    0  0.22927729816E+02  0.71005520258E+02 -0.16725203273E+02  0.76466967549E+02  0.00000000000E+00 0. -1.
         11    1    3    3    0    0 -0.75781334825E+02  0.82751198959E+02 -0.18335222219E+02  0.11369587508E+03  0.00000000000E+00 0.  1.
</event>
<event>
 7    1  0.6988825E-006  0.8639100E+02  0.7561462E-02  0.1311834E+00
         -2   -1    0    0    0  501 -0.00000000000E+00  0.00000000000E+00  0.49520949748E+02  0.49520949748E+02  0.00000000000E+00 0.  1.
          2   -1    0    0  501    0  0.00000000000E+00 -0.00000000000E+00 -0.30629165223E+03  0.30629165223E+03  0.00000000000E+00 0. -1.
         23    2    1    2    0    0 -0.55423677418E+02  0.15423432950E+02 -0.90410919760E+02  0.13986505175E+03  0.89880097828E+02 0.  0.
          5    1    1    2  502    0  0.32730860599E+02  0.16014457359E+02  0.77808467800E+01  0.37493813579E+02  0.41800000000E+01 0.  1.
         -5    1    1    2    0  502  0.22692816819E+02 -0.31437890308E+02 -0.17414062950E+03  0.17845373665E+03  0.41800000000E+01 0.  1.
        -11    1    3    3    0    0 -0.18697215536E+01  0.38677405189E+02 -0.66129302505E+02  0.76632383368E+02  0.00000000000E+00 0. -1.
         11    1    3    3    0    0 -0.53553955864E+02 -0.23253972240E+02 -0.24281617255E+02  0.63232668378E+02  0.00000000000E+00 0.  1.
</event>
<event>
 7    1  0.6988825E-006  0.5647187E+02  0.7561462E-02  0.1413264E+00
         -2   -1    0    0    0  501 -0.00000000000E+00  0.00000000000E+00  0.20254894062E+03  0.20254894062E+03  0.00000000000E+00 0. -1.
          2   -1    0    0  501    0  0.00000000000E+00 -0.00000000000E+00 -0.13838235346E+03  0.13838235346E+03  0.00000000000E+00 0.  1.
         23    2    1    2    0    0  0.27630673047E+02 -0.14182692366E+02  0.15475410366E+03  0.18339323828E+03  0.93379036133E+02 0.  0.
          5    1    1    2  502    0 -0.46377052373E+02  0.19871762121E+02 -0.11518228221E+03  0.12581791784E+03  0.41800000000E+01 0.  1.
         -5    1    1    2    0  502  0.18746379327E+02 -0.56890697546E+01  0.24594765695E+02  0.31720137959E+02  0.41800000000E+01 0.  1.
        -11    1    3    3    0    0  0.26466407980E+00 -0.14906257834E+02 -0.89681174511E+01  0.17398094732E+02  0.00000000000E+00 0.  1.
         11    1    3    3    0    0  0.27366008967E+02  0.72356546728E+00  0.16372222111E+03  0.16599514354E+03  0.00000000000E+00 0. -1.
</event>
<event>
 6    1  0.6988825E-006  0.1731660E+03  0.7561462E-02  0.1174586E+00
          1   -1    0    0  501    0  0.00000000000E+00  0.00000000000E+00  0.10917949764E+04  0.10917949764E+04  0.00000000000E+00 0. -1.
         -1   -1    0    0    0  501 -0.00000000000E+00 -0.00000000000E+00 -0.32881774938E+02  0.32881774938E+02  0.00000000000E+00 0.  1.
          5    1    1    2  502    0  0.93456723916E+02 -0.94636441703E+02  0.55297121897E+03  0.56875729160E+03  0.41800000000E+01 0. -1.
         -5    1    1    2    0  502  0.46187875183E+02  0.86858655332E+01  0.51100234636E+02  0.69551926313E+02  0.41800000000E+01 0. -1.
        -11    1    1    2    0    0 -0.82222475577E+02  0.35187263865E+02  0.30806903337E+03  0.32078841679E+03  0.00000000000E+00 0.  1.
         11    1    1    2    0    0 -0.57422123522E+02  0.50763312304E+02  0.14677271451E+03  0.16557911665E+03  0.00000000000E+00 0. -1.
</event>
<event>
 7    1  0.6988825E-006  0.1059806E+03  0.7561462E-02  0.1268200E+00
         -2   -1    0    0    0  501 -0.00000000000E+00  0.00000000000E+00  0.28855172396E+03  0.28855172396E+03  0.00000000000E+00 0. -1.
          2   -1    0    0  501    0  0.00000000000E+00 -0.00000000000E+00 -0.53707840854E+02  0.53707840854E+02  0.00000000000E+00 0.  1.
         23    2    1    2    0    0 -0.18527340341E+02 -0.17792038738E+02  0.17920880826E+03  0.20296950642E+03  0.91766031810E+02 0.  0.
          5    1    1    2  502    0  0.57921130344E+02 -0.24852855264E+02  0.50474412286E+02  0.80855800354E+02  0.41800000000E+01 0.  1.
         -5    1    1    2    0  502 -0.39393790003E+02  0.42644894003E+02  0.51606625599E+01  0.58434258046E+02  0.41800000000E+01 0.  1.
        -11    1    3    3    0    0  0.30654488907E+02  0.12189393896E+02  0.98029834647E+02  0.10343175284E+03  0.00000000000E+00 0.  1.
         11    1    3    3    0    0 -0.49181829248E+02 -0.29981432634E+02  0.81178973615E+02  0.99537753582E+02  0.00000000000E+00 0. -1.
</event>
<event>
 7    1  0.6988825E-006  0.1019910E+03  0.7561462E-02  0.1276164E+00
          1   -1    0    0  501    0  0.00000000000E+00  0.00000000000E+00  0.52843564604E+03  0.52843564604E+03  0.00000000000E+00 0. -1.
         -1   -1    0    0    0  501 -0.00000000000E+00 -0.00000000000E+00 -0.30970162642E+02  0.30970162642E+02  0.00000000000E+00 0.  1.
         23    2    1    2    0    0 -0.42546471258E+02 -0.18461990567E+02  0.14318050089E+03  0.18083494806E+03  0.10024757002E+03 0.  0.
          5    1    1    2  502    0 -0.53730913023E+01 -0.40117075312E+02  0.47428415910E+02  0.62491414430E+02  0.41800000000E+01 0. -1.
         -5    1    1    2    0  502  0.47919562560E+02  0.58579065879E+02  0.30685656660E+03  0.31607944619E+03  0.41800000000E+01 0. -1.
        -11    1    3    3    0    0 -0.44505037167E+02  0.20134566162E+02  0.21874944446E+02  0.53522072852E+02  0.00000000000E+00 0.  1.
         11    1    3    3    0    0  0.19585659096E+01 -0.38596556729E+02  0.12130555644E+03  0.12731287521E+03  0.00000000000E+00 0. -1.
</event>
<event>
 7    1  0.6988825E-006  0.1156290E+03  0.7561462E-02  0.1250487E+00
         -2   -1    0    0    0  501 -0.00000000000E+00  0.00000000000E+00  0.22329149325E+03  0.22329149325E+03  0.00000000000E+00 0.  1.
          2   -1    0    0  501    0  0.00000000000E+00 -0.00000000000E+00 -0.22361189260E+03  0.22361189260E+03  0.00000000000E+00 0. -1.
         23    2    1    2    0    0  0.16494887913E+02  0.70354233999E+02  0.17826455757E+03  0.21720326318E+03  0.10088213659E+03 0.  0.
          5    1    1    2  502    0 -0.23120100031E+02  0.12272467780E+02 -0.13177100453E+03  0.13441064886E+03  0.41800000000E+01 0. -1.
         -5    1    1    2    0  502  0.66252121184E+01 -0.82626701779E+02 -0.46813952390E+02  0.95289473820E+02  0.41800000000E+01 0. -1.
        -11    1    3    3    0    0  0.45936058288E+02  0.78723890881E+02  0.15011549014E+03  0.17561956846E+03  0.00000000000E+00 0.  1.
         11    1    3    3    0    0 -0.29441170375E+02 -0.83696568817E+01  0.28149067428E+02  0.41583694719E+02  0.00000000000E+00 0. -1.
</event>
<event>
 7    1  0.6988825E-006  0.1203178E+03  0.7561462E-02  0.1242574E+00
         -1   -1    0    0    0  501 -0.00000000000E+00  0.00000000000E+00  0.61251240110E+02  0.61251240110E+02  0.00000000000E+00 0.  1.
          1   -1    0    0  501    0  0.00000000000E+00 -0.00000000000E+00 -0.27901088692E+03  0.27901088692E+03  0.00000000000E+00 0. -1.
         23    2    1    2    0    0 -0.13459691262E+02  0.71701817459E+02 -0.75821749417E+02  0.13749233085E+03  0.88503612596E+02 0.  0.
          5    1    1    2  502    0  0.18760044919E+02  0.28450880569E+02 -0.77620571877E+01  0.35201048597E+02  0.41800000000E+01 0.  1.
         -5    1    1    2    0  502 -0.53003536576E+01 -0.10015269803E+03 -0.13417584021E+03  0.16756874758E+03  0.41800000000E+01 0.  1.
        -11    1    3    3    0    0 -0.26712659624E+02  0.83813507300E+02 -0.38393697907E+02  0.95980968057E+02  0.00000000000E+00 0.  1.
         11    1    3    3    0    0  0.13252968363E+02 -0.12111689841E+02 -0.37428051510E+02  0.41511362794E+02  0.00000000000E+00 0. -1.
</event>
<event>
 7    1  0.6988825E-006  0.1033926E+03  0.7561462E-02  0.1273319E+00
          2   -1    0    0  501    0  0.00000000000E+00  0.00000000000E+00  0.25789972788E+04  0.25789972788E+04  0.00000000000E+00 0. -1.
         -2   -1    0    0    0  501 -0.00000000000E+00 -0.00000000000E+00 -0.83867194725E+01  0.83867194725E+01  0.00000000000E+00 0.  1.
         23    2    1    2    0    0  0.11830348696E+02 -0.89302673294E+01  0.30679643756E+03  0.32006817281E+03  0.89999301801E+02 0.  0.
          5    1    1    2  502    0  0.96736011318E+01  0.64753902172E+02  0.12713619258E+04  0.12730535201E+04  0.41800000000E+01 0. -1.
         -5    1    1    2    0  502 -0.21503949828E+02 -0.55823634842E+02  0.99245219598E+03  0.99426230532E+03  0.41800000000E+01 0. -1.
        -11    1    3    3    0    0  0.45455473960E+02  0.29449350858E+01  0.95780640141E+02  0.10606037800E+03  0.00000000000E+00 0.  1.
         11    1    3    3    0    0 -0.33625125263E+02 -0.11875202415E+02  0.21101579742E+03  0.21400779482E+03  0.00000000000E+00 0. -1.
</event>
<event>
 7    1  0.6988825E-006  0.1085438E+03  0.7561462E-02  0.1263291E+00
         -1   -1    0    0    0  501 -0.00000000000E+00  0.00000000000E+00  0.56916256612E+02  0.56916256612E+02  0.00000000000E+00 0.  1.
          1   -1    0    0  501    0  0.00000000000E+00 -0.00000000000E+00 -0.24703376038E+03  0.24703376038E+03  0.00000000000E+00 0. -1.
         23    2    1    2    0    0 -0.10681487873E+02  0.45401004725E+02 -0.75953688556E+02  0.12828515595E+03  0.92264689986E+02 0.  0.
          5    1    1    2  502    0  0.60226465037E+02 -0.12619285846E+02 -0.21117577094E+02  0.65191241194E+02  0.41800000000E+01 0. -1.
         -5    1    1    2    0  502 -0.49544977164E+02 -0.32781718880E+02 -0.93046238122E+02  0.11047361985E+03  0.41800000000E+01 0. -1.
        -11    1    3    3    0    0  0.16258453350E+02 -0.19616559013E+02 -0.10416189717E+01  0.25499640447E+02  0.00000000000E+00 0.  1.
         11    1    3    3    0    0 -0.26939941223E+02  0.65017563738E+02 -0.74912069584E+02  0.10278551550E+03  0.00000000000E+00 0. -1.
</event>
<event>
 7    1  0.6988825E-006  0.1048135E+03  0.7561462E-02  0.1270487E+00
          1   -1    0    0  501    0  0.00000000000E+00  0.00000000000E+00  0.70386354529E+03  0.70386354529E+03  0.00000000000E+00 0. -1.
         -1   -1    0    0    0  501 -0.00000000000E+00 -0.00000000000E+00 -0.19955230909E+02  0.19955230909E+02  0.00000000000E+00 0.  1.
         23    2    1    2    0    0 -0.42345669940E+02 -0.27818658562E+01  0.21782735503E+03  0.23938668494E+03  0.89757082102E+02 0.  0.
          5    1    1    2  502    0  0.73126210849E+02  0.24571491512E+02  0.18046238780E+03  0.19630421981E+03  0.41800000000E+01 0. -1.
         -5    1    1    2    0  502 -0.30780540908E+02 -0.21789625656E+02  0.28561857155E+03  0.28812787144E+03  0.41800000000E+01 0. -1.
        -11    1    3    3    0    0  0.45974291086E+01 -0.36398688520E+02  0.12308925442E+03  0.12844051321E+03  0.00000000000E+00 0.  1.
         11    1    3    3    0    0 -0.46943099049E+02  0.33616822664E+02  0.94738100611E+02  0.11094617173E+03  0.00000000000E+00 0. -1.
</event>
<event>
 7    1  0.6988825E-006  0.1100150E+03  0.7561462E-02  0.1260542E+00
         -1   -1    0    0    0  501 -0.00000000000E+00  0.00000000000E+00  0.22333891155E+02  0.22333891155E+02  0.00000000000E+00 0.  1.
          1   -1    0    0  501    0  0.00000000000E+00 -0.00000000000E+00 -0.96902477401E+03  0.96902477401E+03  0.00000000000E+00 0. -1.
         23    2    1    2    0    0 -0.94843292592E+02  0.12069034772E+02 -0.33719813594E+03  0.36185860949E+03  0.89989769586E+02 0.  0.
          5    1    1    2  502    0  0.39449621364E+02  0.63361608751E+01 -0.52604912586E+03  0.52758087037E+03  0.41800000000E+01 0. -1.
         -5    1    1    2    0  502  0.55393671228E+02 -0.18405195647E+02 -0.83443621047E+02  0.10191918530E+03  0.41800000000E+01 0. -1.
        -11    1    3    3    0    0 -0.21982809227E+02  0.38081762326E+02 -0.62115507407E+02  0.76103881529E+02  0.00000000000E+00 0. -1.
         11    1    3    3    0    0 -0.72860483365E+02 -0.26012727554E+02 -0.27508262854E+03  0.28575472796E+03  0.00000000000E+00 0.  1.
</event>
<event>
 7    1  0.6988825E-006  0.7922784E+02  0.7561462E-02  0.1331257E+00
         -2   -1    0    0    0  501 -0.00000000000E+00  0.00000000000E+00  0.13481575509E+03  0.13481575509E+03  0.00000000000E+00 0.  1.
          2   -1    0    0  501    0  0.00000000000E+00 -0.00000000000E+00 -0.97141101518E+02  0.97141101518E+02  0.00000000000E+00 0. -1.
         23    2    1    2    0    0 -0.26540871982E+02  0.67160096501E+01  0.41504643626E+02  0.10384677372E+03  0.91170139287E+02 0.  0.
          5    1    1    2  502    0  0.73359773534E+02 -0.12082183765E+02 -0.21659448785E+02  0.77551529058E+02  0.41800000000E+01 0.  1.
         -5    1    1    2    0  502 -0.46818901552E+02  0.53661741150E+01  0.17829458730E+02  0.50558553834E+02  0.41800000000E+01 0.  1.
        -11    1    3    3    0    0 -0.22062152749E+02 -0.62759849370E+01  0.69214612358E+02  0.72916315970E+02  0.00000000000E+00 0.  1.
         11    1    3    3    0    0 -0.44787192339E+01  0.12991994587E+02 -0.27709968732E+02  0.30930457747E+02  0.00000000000E+00 0. -1.
</event>
<event>
 7    1  0.6988825E-006  0.9297405E+02  0.7561462E-02  0.1295805E+00
         -1   -1    0    0    0  501 -0.00000000000E+00  0.00000000000E+00  0.42606277611E+02  0.42606277611E+02  0.00000000000E+00 0.  1.
          1   -1    0    0  501    0  0.00000000000E+00 -0.00000000000E+00 -0.42103013162E+03  0.42103013162E+03  0.00000000000E+00 0. -1.
         23    2    1    2    0    0 -0.24877582398E+02 -0.35860289534E+02 -0.53782759872E+02  0.11300055918E+03  0.89284302338E+02 0.  0.
          5    1    1    2  502    0  0.49685375353E+02  0.37541837522E+02 -0.66257692635E+02  0.91025163124E+02  0.41800000000E+01 0.  1.
         -5    1    1    2    0  502 -0.24807792954E+02 -0.16815479877E+01 -0.25838340150E+03  0.25961068692E+03  0.41800000000E+01 0.  1.
        -11    1    3    3    0    0 -0.51512721999E+02  0.25535798314E+01 -0.36406030614E+02  0.63130661036E+02  0.00000000000E+00 0.  1.
         11    1    3    3    0    0  0.26635139601E+02 -0.38413869365E+02 -0.17376729257E+02  0.49869898144E+02  0.00000000000E+00 0. -1.
</event>
<event>
 7    1  0.6988825E-006  0.2473814E+03  0.7561462E-02  0.1114971E+00
          1   -1    0    0  501    0  0.00000000000E+00  0.00000000000E+00  0.65685024467E+03  0.65685024467E+03  0.00000000000E+00 0. -1.
         -1   -1    0    0    0  501 -0.00000000000E+00 -0.00000000000E+00 -0.14881403188E+03  0.14881403188E+03  0.00000000000E+00 0.  1.
         23    2    1    2    0    0  0.23052375252E+03  0.21427957781E+02  0.18646254105E+02  0.25001213671E+03  0.92509609552E+02 0.  0.
          5    1    1    2  502    0 -0.72356954373E+02  0.49699731871E+02  0.19625777574E+03  0.21503529741E+03  0.41800000000E+01 0. -1.
         -5    1    1    2    0  502 -0.15816679815E+03 -0.71127689652E+02  0.29313218294E+03  0.34061684243E+03  0.41800000000E+01 0. -1.
        -11    1    3    3    0    0  0.12760992369E+03  0.26643227364E+02 -0.33394295207E+02  0.13457092234E+03  0.00000000000E+00 0.  1.
         11    1    3    3    0    0  0.10291382883E+03 -0.52152695833E+01  0.52040549311E+02  0.11544121437E+03  0.00000000000E+00 0. -1.
</event>
<event>
 7    1  0.6988825E-006  0.1313511E+03  0.7561462E-02  0.1225465E+00
         -1   -1    0    0    0  501 -0.00000000000E+00  0.00000000000E+00  0.44570186807E+03  0.44570186807E+03  0.00000000000E+00 0.  1.
          1   -1    0    0  501    0  0.00000000000E+00 -0.00000000000E+00 -0.44494188170E+02  0.44494188170E+02  0.00000000000E+00 0. -1.
         23    2    1    2    0    0  0.83529021364E+02  0.25542959812E+02  0.14629932953E+03  0.19311783237E+03  0.90892591302E+02 0.  0.
          5    1    1    2  502    0  0.28144579935E+01 -0.58915931825E+02  0.85000060366E+02  0.10354463221E+03  0.41800000000E+01 0. -1.
         -5    1    1    2    0  502 -0.86343479357E+02  0.33372972013E+02  0.16990829001E+03  0.19353359166E+03  0.41800000000E+01 0. -1.
        -11    1    3    3    0    0  0.64881007993E+02 -0.14725769989E+02  0.12964305957E+03  0.14571793436E+03  0.00000000000E+00 0.  1.
         11    1    3    3    0    0  0.18648013370E+02  0.40268729801E+02  0.16656269959E+02  0.47399898010E+02  0.00000000000E+00 0. -1.
</event>
<event>
 7    1  0.6988825E-006  0.1255580E+03  0.7561462E-02  0.1234200E+00
          2   -1    0    0  501    0  0.00000000000E+00  0.00000000000E+00  0.13573290778E+03  0.13573290778E+03  0.00000000000E+00 0. -1.
         -2   -1    0    0    0  501 -0.00000000000E+00 -0.00000000000E+00 -0.15376713105E+03  0.15376713105E+03  0.00000000000E+00 0.  1.
         23    2    1    2    0    0 -0.91056216309E+02  0.21370791284E+02 -0.10332824634E+02  0.13311930034E+03  0.94159628345E+02 0.  0.
          5    1    1    2  502    0  0.10829836354E+03 -0.24013872025E+02 -0.41179998474E+02  0.11839960417E+03  0.41800000000E+01 0. -1.
         -5    1    1    2    0  502 -0.17242147228E+02  0.26430807413E+01  0.33478599841E+02  0.37981134319E+02  0.41800000000E+01 0. -1.
        -11    1    3    3    0    0  0.34714617319E+01  0.27241078369E+02 -0.25173751651E+02  0.37253794027E+02  0.00000000000E+00 0.  1.
         11    1    3    3    0    0 -0.94527678041E+02 -0.58702870851E+01  0.14840927017E+02  0.95865506315E+02  0.00000000000E+00 0. -1.
</event>
<event>
 7    1  0.6988825E-006  0.9760210E+02  0.7561462E-02  0.1285421E+00
          1   -1    0    0  501    0  0.00000000000E+00  0.00000000000E+00  0.12940281273E+03  0.12940281273E+03  0.00000000000E+00 0. -1.
         -1   -1    0    0    0  501 -0.00000000000E+00 -0.00000000000E+00 -0.18550615503E+03  0.18550615503E+03  0.00000000000E+00 0.  1.
         23    2    1    2    0    0  0.46699942764E+02 -0.35126173841E+01 -0.12795467818E+03  0.16323235962E+03  0.89884261269E+02 0.  0.
          5    1    1    2  502    0 -0.57503679287E+02  0.46812368135E+02  0.94789001872E+01  0.74869171832E+02  0.41800000000E+01 0. -1.
         -5    1    1    2    0  502  0.10803736523E+02 -0.43299750751E+02  0.62372435696E+02  0.76807436311E+02  0.41800000000E+01 0. -1.
        -11    1    3    3    0    0  0.16926063633E+02  0.28027185056E+02 -0.53424016175E+01  0.33174628669E+02  0.00000000000E+00 0. -1.
         11    1    3    3    0    0  0.29773879131E+02 -0.31539802440E+02 -0.12261227656E+03  0.13005773095E+03  0.00000000000E+00 0.  1.
</event>
<event>
 7    1  0.6988825E-006  0.1780848E+03  0.7561462E-02  0.1169670E+00
         -3   -1    0    0    0  501 -0.00000000000E+00  0.00000000000E+00  0.18813602058E+03  0.18813602058E+03  0.00000000000E+00 0.  1.
          3   -1    0    0  501    0  0.00000000000E+00 -0.00000000000E+00 -0.27711543693E+03  0.27711543693E+03  0.00000000000E+00 0. -1.
         23    2    1    2    0    0  0.16037981928E+03 -0.47958262765E+02  0.69630263456E+02  0.20290367232E+03  0.91103486502E+02 0.  0.
          5    1    1    2  502    0 -0.11244712909E+03  0.73098395418E+02 -0.54293616886E+02  0.14475151636E+03  0.41800000000E+01 0. -1.
         -5    1    1    2    0  502 -0.47932690185E+02 -0.25140132653E+02 -0.10431606293E+03  0.11759626883E+03  0.41800000000E+01 0. -1.
        -11    1    3    3    0    0  0.65038355224E+02 -0.24626273779E+02  0.77869584104E+02  0.10440360693E+03  0.00000000000E+00 0.  1.
         11    1    3    3    0    0  0.95341464052E+02 -0.23331988987E+02 -0.82393206481E+01  0.98500065393E+02  0.00000000000E+00 0. -1.
</event>
<event>
 6    1  0.6988825E-006  0.7910609E+02  0.7561462E-02  0.1331608E+00
         -2   -1    0    0    0  501 -0.00000000000E+00  0.00000000000E+00  0.35520919504E+03  0.35520919504E+03  0.00000000000E+00 0.  1.
          2   -1    0    0  501    0  0.00000000000E+00 -0.00000000000E+00 -0.36106901618E+02  0.36106901618E+02  0.00000000000E+00 0. -1.
          5    1    1    2  502    0 -0.50293065159E+02  0.40360383574E+02  0.68200699955E+01  0.64979525392E+02  0.41800000000E+01 0. -1.
         -5    1    1    2    0  502  0.51309346174E+02 -0.42713550362E+02  0.24174670955E+03  0.25083070061E+03  0.41800000000E+01 0.  1.
        -11    1    1    2    0    0  0.44614605523E+01  0.13533123069E+02  0.32557035449E+02  0.35538860526E+02  0.00000000000E+00 0. -1.
         11    1    1    2    0    0 -0.54777415673E+01 -0.11179956281E+02  0.37978478424E+02  0.39967010128E+02  0.00000000000E+00 0.  1.
</event>
<event>
 7    1  0.6988825E-006  0.8354108E+02  0.7561462E-02  0.1319292E+00
         -1   -1    0    0    0  501 -0.00000000000E+00  0.00000000000E+00  0.10947701629E+02  0.10947701629E+02  0.00000000000E+00 0. -1.
          1   -1    0    0  501    0  0.00000000000E+00 -0.00000000000E+00 -0.14239901457E+04  0.14239901457E+04  0.00000000000E+00 0.  1.
         23    2    1    2    0    0 -0.54766695618E+02 -0.10423481041E+02 -0.49704962359E+03  0.50876318420E+03  0.93132214532E+02 0.  0.
          5    1    1    2  502    0  0.20775993363E+02  0.11873066303E+02 -0.86120603466E+03  0.86154855820E+03  0.41800000000E+01 0.  1.
         -5    1    1    2    0  502  0.33990702255E+02 -0.14495852625E+01 -0.54786785824E+02  0.64626104928E+02  0.41800000000E+01 0.  1.
        -11    1    3    3    0    0 -0.59608441797E+02  0.30738522086E+02 -0.31300508295E+03  0.32010967655E+03  0.00000000000E+00 0.  1.
         11    1    3    3    0    0  0.48417461795E+01 -0.41162003126E+02 -0.18404454064E+03  0.18865350765E+03  0.00000000000E+00 0. -1.
</event>
<event>
 7    1  0.6988825E-006  0.2027012E+03  0.7561462E-02  0.1147480E+00
         -1   -1    0    0    0  501 -0.00000000000E+00  0.00000000000E+00  0.34461316733E+03  0.34461316733E+03  0.00000000000E+00 0.  1.
          1   -1    0    0  501    0  0.00000000000E+00 -0.00000000000E+00 -0.13195295597E+03  0.13195295597E+03  0.00000000000E+00 0. -1.
         23    2    1    2    0    0  0.71289603846E+02 -0.28788082649E+02  0.10843766886E+03  0.16190722847E+03  0.92435173410E+02 0.  0.
          5    1    1    2  502    0  0.44376365851E+02 -0.10281013618E+03  0.26299807114E+01  0.11208735498E+03  0.41800000000E+01 0. -1.
         -5    1    1    2    0  502 -0.11566596970E+03  0.13159821883E+03  0.10159256179E+03  0.20257153985E+03  0.41800000000E+01 0.  1.
        -11    1    3    3    0    0  0.27985386690E+01  0.28599475232E+02  0.40495557362E+02  0.49655331720E+02  0.00000000000E+00 0.  1.
         11    1    3    3    0    0  0.68491065177E+02 -0.57387557881E+02  0.67942111495E+02  0.11225189675E+03  0.00000000000E+00 0. -1.
</event>
<event>
 7    1  0.6988825E-006  0.1099620E+03  0.7561462E-02  0.1260640E+00
          4   -1    0    0  501    0  0.00000000000E+00  0.00000000000E+00  0.33938051052E+03  0.33938051052E+03  0.00000000000E+00 0.  1.
         -4   -1    0    0    0  501 -0.00000000000E+00 -0.00000000000E+00 -0.58696341254E+02  0.58696341254E+02  0.00000000000E+00 0. -1.
         23    2    1    2    0    0  0.42350805587E+02  0.60167618505E+02  0.55470112665E+02  0.13015366880E+03  0.91920134093E+02 0.  0.
          5    1    1    2  502    0 -0.76016607779E+02 -0.76099052234E+02  0.16622965117E+03  0.19803878342E+03  0.41800000000E+01 0. -1.
         -5    1    1    2    0  502  0.33665802193E+02  0.15931433729E+02  0.58984405429E+02  0.69884399559E+02  0.41800000000E+01 0. -1.
        -11    1    3    3    0    0  0.23610939247E+02  0.21953761434E+02  0.76253257072E+02  0.82788908118E+02  0.00000000000E+00 0.  1.
         11    1    3    3    0    0  0.18739866340E+02  0.38213857071E+02 -0.20783144407E+02  0.47364760679E+02  0.00000000000E+00 0. -1.
</event>
<event>
 7    1  0.6988825E-006  0.1947442E+03  0.7561462E-02  0.1154251E+00
         -2   -1    0    0    0  501 -0.00000000000E+00  0.00000000000E+00  0.31552722843E+02  0.31552722843E+02  0.00000000000E+00 0. -1.
          2   -1    0    0  501    0  0.00000000000E+00 -0.00000000000E+00 -0.15955725903E+04  0.15955725903E+04  0.00000000000E+00 0.  1.
         23    2    1    2    0    0 -0.17263647991E+03 -0.12449456212E+01 -0.40769855978E+03  0.45132187732E+03  0.87569499379E+02 0.  0.
          5    1    1    2  502    0  0.12717637952E+03 -0.56766850059E+02 -0.75705388791E+03  0.76976903573E+03  0.41800000000E+01 0.  1.
         -5    1    1    2    0  502  0.45460100386E+02  0.58011795680E+02 -0.39926741975E+03  0.40603440007E+03  0.41800000000E+01 0.  1.
        -11    1    3    3    0    0 -0.31234426892E+02  0.13775035209E+02 -0.17744484105E+03  0.18069867911E+03  0.00000000000E+00 0.  1.
         11    1    3    3    0    0 -0.14140205301E+03 -0.15019980830E+02 -0.23025371873E+03  0.27062319821E+03  0.00000000000E+00 0. -1.
</event>
<event>
 7    1  0.6988825E-006  0.4207390E+03  0.7561462E-02  0.1036826E+00
         -2   -1    0    0    0  501 -0.00000000000E+00  0.00000000000E+00  0.32824676156E+03  0.32824676156E+03  0.00000000000E+00 0.  1.
          2   -1    0    0  501    0  0.00000000000E+00 -0.00000000000E+00 -0.89526544323E+03  0.89526544323E+03  0.00000000000E+00 0. -1.
         23    2    1    2    0    0 -0.29322847693E+03  0.28819555372E+03  0.97644430823E+02  0.43200183392E+03  0.89730333639E+02 0.  0.
          5    1    1    2  502    0  0.43068678166E+02  0.52772988106E+01 -0.80198826554E+02  0.91280255819E+02  0.41800000000E+01 0.  1.
         -5    1    1    2    0  502  0.25015979876E+03 -0.29347285253E+03 -0.58446428594E+03  0.70023011505E+03  0.41800000000E+01 0.  1.
        -11    1    3    3    0    0 -0.19504164344E+03  0.17136981645E+03  0.19010692247E+02  0.26032722310E+03  0.00000000000E+00 0.  1.
         11    1    3    3    0    0 -0.98186833488E+02  0.11682573727E+03  0.78633738576E+02  0.17167461082E+03  0.00000000000E+00 0. -1.
</event>
<event>
 7    1  0.6988825E-006  0.1742938E+03  0.7561462E-02  0.1173443E+00
         -3   -1    0    0    0  501 -0.00000000000E+00  0.00000000000E+00  0.27900967726E+03  0.27900967726E+03  0.00000000000E+00 0.  1.
          3   -1    0    0  501    0  0.00000000000E+00 -0.00000000000E+00 -0.19271412991E+03  0.19271412991E+03  0.00000000000E+00 0. -1.
         23    2    1    2    0    0 -0.81077699498E+02  0.12000761952E+03  0.18896030514E+03  0.25455305631E+03  0.90087954006E+02 0.  0.
          5    1    1    2  502    0 -0.55082682906E+01  0.15616948323E+02  0.10826620026E+02  0.20221725833E+02  0.41800000000E+01 0.  1.
         -5    1    1    2    0  502  0.86585967789E+02 -0.13562456784E+03 -0.11349137782E+03  0.19694902503E+03  0.41800000000E+01 0.  1.
        -11    1    3    3    0    0 -0.60039779643E+01  0.89193220894E+02  0.10072550911E+03  0.13467407542E+03  0.00000000000E+00 0.  1.
         11    1    3    3    0    0 -0.75073721534E+02  0.30814398626E+02  0.88234796036E+02  0.11987898089E+03  0.00000000000E+00 0. -1.
</event>
<event>
 7    1  0.6988825E-006  0.2413616E+03  0.7561462E-02  0.1118889E+00
          1   -1    0    0  501    0  0.00000000000E+00  0.00000000000E+00  0.75004792958E+03  0.75004792958E+03  0.00000000000E+00 0. -1.
         -1   -1    0    0    0  501 -0.00000000000E+00 -0.00000000000E+00 -0.10686725712E+03  0.10686725712E+03  0.00000000000E+00 0.  1.
         23    2    1    2    0    0 -0.20015176688E+02  0.21535375849E+03  0.93485067839E+02  0.25310272680E+03  0.92432049691E+02 0.  0.
          5    1    1    2  502    0  0.54855464451E+02 -0.36157259169E+02  0.17549993938E+03  0.18744111207E+03  0.41800000000E+01 0. -1.
         -5    1    1    2    0  502 -0.34840287763E+02 -0.17919649932E+03  0.37419566523E+03  0.41637134784E+03  0.41800000000E+01 0. -1.
        -11    1    3    3    0    0  0.36008654619E+02  0.76077443100E+02  0.22984555116E+02  0.87250732547E+02  0.00000000000E+00 0.  1.
         11    1    3    3    0    0 -0.56023831307E+02  0.13927631539E+03  0.70500512723E+02  0.16585199425E+03  0.00000000000E+00 0. -1.
</event>
<event>
 7    1  0.6988825E-006  0.7635965E+02  0.7561462E-02  0.1339712E+00
          3   -1    0    0  501    0  0.00000000000E+00  0.00000000000E+00  0.12351038704E+03  0.12351038704E+03  0.00000000000E+00 0. -1.
         -3   -1    0    0    0  501 -0.00000000000E+00 -0.00000000000E+00 -0.18939942406E+03  0.18939942406E+03  0.00000000000E+00 0.  1.
         23    2    1    2    0    0 -0.17651420172E+02 -0.25381893397E+02 -0.12132962081E+03  0.15485643419E+03  0.91125326758E+02 0.  0.
          5    1    1    2  502    0  0.27874551402E+02 -0.70563788089E+00  0.10074765942E+03  0.10461860169E+03  0.41800000000E+01 0. -1.
         -5    1    1    2    0  502 -0.10223131231E+02  0.26087531278E+02 -0.45307075629E+02  0.53434775216E+02  0.41800000000E+01 0.  1.
        -11    1    3    3    0    0  0.77256504959E+01 -0.55941495259E+02 -0.73186338269E+02  0.92441206595E+02  0.00000000000E+00 0. -1.
         11    1    3    3    0    0 -0.25377070667E+02  0.30559601862E+02 -0.48143282541E+02  0.62415227593E+02  0.00000000000E+00 0.  1.
</event>
<event>
 7    1  0.6988825E-006  0.1555751E+03  0.7561462E-02  0.1193785E+00
          3   -1    0    0  501    0  0.00000000000E+00  0.00000000000E+00  0.11802682250E+04  0.11802682250E+04  0.00000000000E+00 0. -1.
         -3   -1    0    0    0  501 -0.00000000000E+00 -0.00000000000E+00 -0.22293483862E+02  0.22293483862E+02  0.00000000000E+00 0.  1.
         23    2    1    2    0    0  0.56909535381E+02  0.10667862549E+03  0.53118225397E+03  0.55207591709E+03  0.89522103101E+02 0.  0.
          5    1    1    2  502    0  0.33996674836E+02 -0.27836705117E+02  0.27832331455E+03  0.28180134115E+03  0.41800000000E+01 0.  1.
         -5    1    1    2    0  502 -0.90906210217E+02 -0.78841920374E+02  0.34846917259E+03  0.36868445060E+03  0.41800000000E+01 0.  1.
        -11    1    3    3    0    0  0.11448483206E+02  0.10000577294E+03  0.30201520565E+03  0.31834793361E+03  0.00000000000E+00 0.  1.
         11    1    3    3    0    0  0.45461052175E+02  0.66728525484E+01  0.22916704831E+03  0.23372798347E+03  0.00000000000E+00 0. -1.
</event>
<event>
 7    1  0.6988825E-006  0.1542352E+03  0.7561462E-02  0.1195363E+00
         -1   -1    0    0    0  501 -0.00000000000E+00  0.00000000000E+00  0.14568462409E+03  0.14568462409E+03  0.00000000000E+00 0.  1.
          1   -1    0    0  501    0  0.00000000000E+00 -0.00000000000E+00 -0.46981291961E+03  0.46981291961E+03  0.00000000000E+00 0. -1.
         23    2    1    2    0    0 -0.97081543247E+02 -0.51020624505E+02  0.90258034678E+02  0.16885292852E+03  0.91306453676E+02 0.  0.
          5    1    1    2  502    0  0.12150990635E+03  0.14678016323E+02 -0.31443281646E+03  0.33743972791E+03  0.41800000000E+01 0. -1.
         -5    1    1    2    0  502 -0.24428363098E+02  0.36342608183E+02 -0.99953513748E+02  0.10920488727E+03  0.41800000000E+01 0. -1.
        -11    1    3    3    0    0 -0.83168408640E+02  0.59416584681E+01  0.61071510176E+02  0.10335384297E+03  0.00000000000E+00 0.  1.
         11    1    3    3    0    0 -0.13913134607E+02 -0.56962282974E+02  0.29186524502E+02  0.65499085556E+02  0.00000000000E+00 0. -1.
</event>
<event>
 7    1  0.6988825E-006  0.1434199E+03  0.7561462E-02  0.1208800E+00
         -1   -1    0    0    0  501 -0.00000000000E+00  0.00000000000E+00  0.16499038395E+03  0.16499038395E+03  0.00000000000E+00 0.  1.
          1   -1    0    0  501    0  0.00000000000E+00 -0.00000000000E+00 -0.19000960035E+03  0.19000960035E+03  0.00000000000E+00 0. -1.
         23    2    1    2    0    0 -0.59252207919E+02 -0.50408918239E+02  0.91382680084E+02  0.15168242019E+03  0.92762488077E+02 0.  0.
          5    1    1    2  502    0  0.39576781059E+02  0.10249877480E+03 -0.87008617991E+02  0.14021516480E+03  0.41800000000E+01 0. -1.
         -5    1    1    2    0  502  0.19675426860E+02 -0.52089856560E+02 -0.29393278491E+02  0.63102399313E+02  0.41800000000E+01 0.  1.
        -11    1    3    3    0    0 -0.64527267348E+02  0.56193616435E+01  0.50186181693E+02  0.81938991265E+02  0.00000000000E+00 0. -1.
         11    1    3    3    0    0  0.52750594290E+01 -0.56028279883E+02  0.41196498391E+02  0.69743428925E+02  0.00000000000E+00 0.  1.
</event>
<event>
 7    1  0.6988825E-006  0.1139751E+03  0.7561462E-02  0.1253381E+00
         -2   -1    0    0    0  501 -0.00000000000E+00  0.00000000000E+00  0.14914330983E+03  0.14914330983E+03  0.00000000000E+00 0.  1.
          2   -1    0    0  501    0  0.00000000000E+00 -0.00000000000E+00 -0.13332980740E+03  0.13332980740E+03  0.00000000000E+00 0. -1.
         23    2    1    2    0    0 -0.15945736892E+02 -0.74594707101E+02  0.66068768329E+02  0.13588172335E+03  0.90995185259E+02 0.  0.
          5    1    1    2  502    0  0.62088704153E+02  0.38950836328E+02 -0.48730426246E+02  0.88115274931E+02  0.41800000000E+01 0. -1.
         -5    1    1    2    0  502 -0.46142967261E+02  0.35643870773E+02 -0.15248396499E+01  0.58476118949E+02  0.41800000000E+01 0.  1.
        -11    1    3    3    0    0  0.22161781658E+02 -0.23022203402E+02 -0.12634483063E+02  0.34362720760E+02  0.00000000000E+00 0. -1.
         11    1    3    3    0    0 -0.38107518550E+02 -0.51572503699E+02  0.78703251392E+02  0.10151900259E+03  0.00000000000E+00 0.  1.
</event>
<event>
 7    1  0.6988825E-006  0.9472502E+02  0.7561462E-02  0.1291797E+00
         -2   -1    0    0    0  501 -0.00000000000E+00  0.00000000000E+00  0.22472305470E+02  0.22472305470E+02  0.00000000000E+00 0.  1.
          2   -1    0    0  501    0  0.00000000000E+00 -0.00000000000E+00 -0.68928337962E+03  0.68928337962E+03  0.00000000000E+00 0. -1.
         23    2    1    2    0    0  0.49575156021E+02  0.80210776363E+01 -0.20854275142E+03  0.23407426260E+03  0.93694436656E+02 0.  0.
          5    1    1    2  502    0 -0.58229513461E+02  0.37058643987E+02 -0.38470891707E+03  0.39087394721E+03  0.41800000000E+01 0.  1.
         -5    1    1    2    0  502  0.86543574396E+01 -0.45079721623E+02 -0.73559405664E+02  0.86807475289E+02  0.41800000000E+01 0.  1.
        -11    1    3    3    0    0  0.20516679691E+02  0.30991892273E+02 -0.20556738832E+02  0.42473651169E+02  0.00000000000E+00 0.  1.
         11    1    3    3    0    0  0.29058476330E+02 -0.22970814637E+02 -0.18798601259E+03  0.19160061143E+03  0.00000000000E+00 0. -1.
</event>
<event>
 7    1  0.6988825E-006  0.1267095E+03  0.7561462E-02  0.1232422E+00
         -2   -1    0    0    0  501 -0.00000000000E+00  0.00000000000E+00  0.16053856329E+02  0.16053856329E+02  0.00000000000E+00 0.  1.
          2   -1    0    0  501    0  0.00000000000E+00 -0.00000000000E+00 -0.12316355934E+04  0.12316355934E+04  0.00000000000E+00 0. -1.
         23    2    1    2    0    0  0.51469285012E+02 -0.40277130782E+02 -0.29044242701E+03  0.31184625933E+03  0.92843693849E+02 0.  0.
          5    1    1    2  502    0  0.60111219013E+01  0.73465677784E+02 -0.53619642639E+03  0.54125541057E+03  0.41800000000E+01 0.  1.
         -5    1    1    2    0  502 -0.57480406914E+02 -0.33188547001E+02 -0.38894288371E+03  0.39458777987E+03  0.41800000000E+01 0.  1.
        -11    1    3    3    0    0  0.24149557764E+02  0.29514791784E+02 -0.11152687511E+03  0.11786673808E+03  0.00000000000E+00 0. -1.
         11    1    3    3    0    0  0.27319727248E+02 -0.69791922566E+02 -0.17891555190E+03  0.19397952125E+03  0.00000000000E+00 0.  1.
</event>
<event>
 7    1  0.6988825E-006  0.1079383E+03  0.7561462E-02  0.1264436E+00
          2   -1    0    0  501    0  0.00000000000E+00  0.00000000000E+00  0.18812762135E+04  0.18812762135E+04  0.00000000000E+00 0.  1.
         -2   -1    0    0    0  501 -0.00000000000E+00 -0.00000000000E+00 -0.80445703003E+01  0.80445703003E+01  0.00000000000E+00 0. -1.
         23    2    1    2    0    0 -0.23571544531E+02  0.46005368810E+01  0.42593554886E+03  0.43643052866E+03  0.92052875631E+02 0.  0.
          5    1    1    2  502    0 -0.47733580985E+02 -0.14153697406E+02  0.80847771739E+03  0.81002007001E+03  0.41800000000E+01 0. -1.
         -5    1    1    2    0  502  0.71305125516E+02  0.95531605245E+01  0.63881837696E+03  0.64287018514E+03  0.41800000000E+01 0. -1.
        -11    1    3    3    0    0  0.22125670415E+02  0.33232377368E+02  0.21738818782E+03  0.22102389101E+03  0.00000000000E+00 0. -1.
         11    1    3    3    0    0 -0.45697214945E+02 -0.28631840487E+02  0.20854736104E+03  0.21540663764E+03  0.00000000000E+00 0.  1.
</event>
<event>
 7    1  0.6988825E-006  0.1467608E+03  0.7561462E-02  0.1204511E+00
          1   -1    0    0  501    0  0.00000000000E+00  0.00000000000E+00  0.79166569657E+03  0.79166569657E+03  0.00000000000E+00 0. -1.
         -1   -1    0    0    0  501 -0.00000000000E+00 -0.00000000000E+00 -0.32362535779E+02  0.32362535779E+02  0.00000000000E+00 0.  1.
         23    2    1    2    0    0  0.79797427203E+02  0.64441578447E+02  0.21036666434E+03  0.25175158627E+03  0.92759804349E+02 0.  0.
          5    1    1    2  502    0 -0.67430202480E+02  0.21006664232E+02  0.31588373753E+03  0.32370993217E+03  0.41800000000E+01 0. -1.
         -5    1    1    2    0  502 -0.12367224723E+02 -0.85448242678E+02  0.23305275893E+03  0.24856671392E+03  0.41800000000E+01 0. -1.
        -11    1    3    3    0    0  0.51962082559E+02 -0.13400777178E+02  0.10408370927E+03  0.11710276422E+03  0.00000000000E+00 0. -1.
         11    1    3    3    0    0  0.27835344644E+02  0.77842355624E+02  0.10628295507E+03  0.13464882205E+03  0.00000000000E+00 0.  1.
</event>
<event>
 7    1  0.6988825E-006  0.1130336E+03  0.7561462E-02  0.1255053E+00
         -2   -1    0    0    0  501 -0.00000000000E+00  0.00000000000E+00  0.60690496229E+02  0.60690496229E+02  0.00000000000E+00 0.  1.
          2   -1    0    0  501    0  0.00000000000E+00 -0.00000000000E+00 -0.25395807415E+03  0.25395807415E+03  0.00000000000E+00 0. -1.
         23    2    1    2    0    0  0.41884605718E+02  0.37892115976E+02 -0.67680441851E+02  0.12861159385E+03  0.93649170916E+02 0.  0.
          5    1    1    2  502    0 -0.47896775200E+02  0.35198702658E+02 -0.33904565591E+02  0.68556850213E+02  0.41800000000E+01 0.  1.
         -5    1    1    2    0  502  0.60121694819E+01 -0.73090818634E+02 -0.91682570477E+02  0.11748012632E+03  0.41800000000E+01 0.  1.
        -11    1    3    3    0    0 -0.17695644309E+02  0.27264393099E+02 -0.59150550406E+02  0.67492744587E+02  0.00000000000E+00 0. -1.
         11    1    3    3    0    0  0.59580250026E+02  0.10627722877E+02 -0.85298914450E+01  0.61118849260E+02  0.00000000000E+00 0.  1.
</event>
<event>
 7    1  0.6988825E-006  0.1080391E+03  0.7561462E-02  0.1264245E+00
         -1   -1    0    0    0  501 -0.00000000000E+00  0.00000000000E+00  0.80786844763E+02  0.80786844763E+02  0.00000000000E+00 0.  1.
          1   -1    0    0  501    0  0.00000000000E+00 -0.00000000000E+00 -0.15358632640E+03  0.15358632640E+03  0.00000000000E+00 0. -1.
         23    2    1    2    0    0  0.12845968068E+02  0.28547397769E+02 -0.32981648420E+02  0.99419130441E+02  0.88410415394E+02 0.  0.
          5    1    1    2  502    0 -0.28175219605E+02 -0.74355161283E+02 -0.17237112700E+02  0.81468542785E+02  0.41800000000E+01 0.  1.
         -5    1    1    2    0  502  0.15329251538E+02  0.45807763514E+02 -0.22580720521E+02  0.53485497942E+02  0.41800000000E+01 0.  1.
        -11    1    3    3    0    0 -0.31477441914E+02  0.30190158435E+02 -0.33606927579E+02  0.55060880824E+02  0.00000000000E+00 0. -1.
         11    1    3    3    0    0  0.44323409982E+02 -0.16427606662E+01  0.62527915859E+00  0.44358249617E+02  0.00000000000E+00 0.  1.
</event>
<event>
 7    1  0.6988825E-006  0.8390527E+02  0.7561462E-02  0.1318320E+00
          1   -1    0    0  501    0  0.00000000000E+00  0.00000000000E+00  0.26539677879E+02  0.26539677879E+02  0.00000000000E+00 0.  1.
         -1   -1    0    0    0  501 -0.00000000000E+00 -0.00000000000E+00 -0.49543324126E+03  0.49543324126E+03  0.00000000000E+00 0. -1.
         23    2    1    2    0    0 -0.41822923735E+02  0.88130854296E+01 -0.24536616273E+03  0.26228258112E+03  0.82223908448E+02 0.  0.
          5    1    1    2  502    0 -0.13208261257E+02 -0.15274539380E+02  0.75999276182E+01  0.21977284147E+02  0.41800000000E+01 0. -1.
         -5    1    1    2    0  502  0.55031184992E+02  0.64614539502E+01 -0.23112732827E+03  0.23771305387E+03  0.41800000000E+01 0. -1.
        -11    1    3    3    0    0 -0.46431948220E+02 -0.28199268821E+02 -0.12564761672E+03  0.13688845154E+03  0.00000000000E+00 0.  1.
         11    1    3    3    0    0  0.46090244851E+01  0.37012354251E+02 -0.11971854601E+03  0.12539412958E+03  0.00000000000E+00 0. -1.
</event>
<event>
 7    1  0.6988825E-006  0.1200913E+03  0.7561462E-02  0.1242946E+00
          1   -1    0    0  501    0  0.00000000000E+00  0.00000000000E+00  0.17673093608E+03  0.17673093608E+03  0.00000000000E+00 0. -1.
         -1   -1    0    0    0  501 -0.00000000000E+00 -0.00000000000E+00 -0.11613118157E+03  0.11613118157E+03  0.00000000000E+00 0.  1.
         23    2    1    2    0    0  0.65257986622E+02 -0.44540775530E+02 -0.23609453915E+02  0.12262345471E+03  0.90755825308E+02 0.  0.
          5    1    1    2  502    0  0.21025207018E+02 -0.43997723678E+01  0.65693187080E+02  0.69242216572E+02  0.41800000000E+01 0.  1.
         -5    1    1    2    0  502 -0.86283193640E+02  0.48940547898E+02  0.18516021347E+02  0.10099644637E+03  0.41800000000E+01 0.  1.
        -11    1    3    3    0    0  0.55322536634E+02  0.16058574242E+02 -0.20469599627E+02  0.61134813120E+02  0.00000000000E+00 0. -1.
         11    1    3    3    0    0  0.99354499877E+01 -0.60599349772E+02 -0.31398542888E+01  0.61488641587E+02  0.00000000000E+00 0.  1.
</event>
<event>
 7    1  0.6988825E-006  0.1376888E+03  0.7561462E-02  0.1216473E+00
          1   -1    0    0  501    0  0.00000000000E+00  0.00000000000E+00  0.33198522284E+03  0.33198522284E+03  0.00000000000E+00 0. -1.
         -1   -1    0    0    0  501 -0.00000000000E+00 -0.00000000000E+00 -0.85676152770E+02  0.85676152770E+02  0.00000000000E+00 0.  1.
         23    2    1    2    0    0  0.12206265386E+03 -0.43116351788E+02  0.13535430185E+03  0.20619820160E+03  0.86247319109E+02 0.  0.
          5    1    1    2  502    0 -0.24642898915E+02  0.37374134425E+02  0.10427646388E+03  0.11355682151E+03  0.41800000000E+01 0.  1.
         -5    1    1    2    0  502 -0.97419754942E+02  0.57422173629E+01  0.66783043378E+01  0.97906352511E+02  0.41800000000E+01 0.  1.
        -11    1    3    3    0    0  0.27088746888E+02 -0.23271725113E+02 -0.44879902919E+01  0.35993269572E+02  0.00000000000E+00 0.  1.
         11    1    3    3    0    0  0.94973906969E+02 -0.19844626675E+02  0.13984229215E+03  0.17020493202E+03  0.00000000000E+00 0. -1.
</event>
<event>
 7    1  0.6988825E-006  0.1087559E+03  0.7561462E-02  0.1262891E+00
          1   -1    0    0  501    0  0.00000000000E+00  0.00000000000E+00  0.65504337875E+02  0.65504337875E+02  0.00000000000E+00 0. -1.
         -1   -1    0    0    0  501 -0.00000000000E+00 -0.00000000000E+00 -0.33625180166E+03  0.33625180166E+03  0.00000000000E+00 0.  1.
         23    2    1    2    0    0 -0.49255102210E+02 -0.46633617401E+01 -0.24135111635E+03  0.26406240531E+03  0.95030418799E+02 0.  0.
          5    1    1    2  502    0  0.70765553879E+02  0.38224705550E+02 -0.47729065198E+02  0.93618522713E+02  0.41800000000E+01 0.  1.
         -5    1    1    2    0  502 -0.21510451669E+02 -0.33561343810E+02  0.18332717764E+02  0.44075211514E+02  0.41800000000E+01 0.  1.
        -11    1    3    3    0    0  0.23762394372E+02 -0.11881504627E+01 -0.20425313662E+02  0.31356921501E+02  0.00000000000E+00 0. -1.
         11    1    3    3    0    0 -0.73017496582E+02 -0.34752112774E+01 -0.22092580269E+03  0.23270548381E+03  0.00000000000E+00 0.  1.
</event>
<event>
 7    1  0.6988825E-006  0.2407975E+03  0.7561462E-02  0.1119263E+00
         -1   -1    0    0    0  501 -0.00000000000E+00  0.00000000000E+00  0.23377216190E+03  0.23377216190E+03  0.00000000000E+00 0.  1.
          1   -1    0    0  501    0  0.00000000000E+00 -0.00000000000E+00 -0.28080060967E+03  0.28080060967E+03  0.00000000000E+00 0. -1.
         23    2    1    2    0    0 -0.17799911938E+01  0.21718762986E+03  0.56814673612E+02  0.24327139087E+03  0.93698599478E+02 0.  0.
          5    1    1    2  502    0  0.54749625695E+02 -0.68895632058E+02 -0.63777741851E+02  0.10876213673E+03  0.41800000000E+01 0. -1.
         -5    1    1    2    0  502 -0.52969634501E+02 -0.14829199780E+03 -0.40065379530E+02  0.16253924396E+03  0.41800000000E+01 0. -1.
        -11    1    3    3    0    0 -0.36680193387E+02  0.35794655553E+02  0.19402117729E+02  0.54800877050E+02  0.00000000000E+00 0. -1.
         11    1    3    3    0    0  0.34900202193E+02  0.18139297431E+03  0.37412555882E+02  0.18847051382E+03  0.00000000000E+00 0.  1.
</event>
<event>
 7    1  0.6988825E-006  0.9529086E+02  0.7561462E-02  0.1290522E+00
          1   -1    0    0  501    0  0.00000000000E+00  0.00000000000E+00  0.11382114438E+04  0.11382114438E+04  0.00000000000E+00 0. -1.
         -1   -1    0    0    0  501 -0.00000000000E+00 -0.00000000000E+00 -0.17126839498E+02  0.17126839498E+02  0.00000000000E+00 0.  1.
         23    2    1    2    0    0 -0.56251252469E+02  0.40393178961E+01  0.21617553021E+03  0.24008514705E+03  0.87911879056E+02 0.  0.
          5    1    1    2  502    0 -0.13414811220E+02  0.76960861684E+01  0.66327250083E+03  0.66346595214E+03  0.41800000000E+01 0. -1.
         -5    1    1    2    0  502  0.69666063690E+02 -0.11735404064E+02  0.24163657323E+03  0.25178718407E+03  0.41800000000E+01 0. -1.
        -11    1    3    3    0    0 -0.79448338484E+02  0.93386262187E+01  0.15455767916E+03  0.17403253896E+03  0.00000000000E+00 0. -1.
         11    1    3    3    0    0  0.23197086015E+02 -0.52993083227E+01  0.61617851044E+02  0.66052608091E+02  0.00000000000E+00 0.  1.
</event>
<event>
 7    1  0.6988825E-006  0.9297094E+02  0.7561462E-02  0.1295813E+00
          1   -1    0    0  501    0  0.00000000000E+00  0.00000000000E+00  0.24050904690E+03  0.24050904690E+03  0.00000000000E+00 0. -1.
         -1   -1    0    0    0  501 -0.00000000000E+00 -0.00000000000E+00 -0.50564856977E+02  0.50564856977E+02  0.00000000000E+00 0.  1.
         23    2    1    2    0    0 -0.10004877165E+02 -0.61731423289E+01  0.62983605051E+02  0.11245523499E+03  0.92417747847E+02 0.  0.
          5    1    1    2  502    0  0.57879734798E+02  0.41746601107E+01  0.20309662767E+02  0.61623423217E+02  0.41800000000E+01 0.  1.
         -5    1    1    2    0  502 -0.47874857633E+02  0.19984822182E+01  0.10665092211E+03  0.11699524568E+03  0.41800000000E+01 0.  1.
        -11    1    3    3    0    0 -0.30423935486E+02  0.27021229814E+02  0.61136044334E+02  0.73439625734E+02  0.00000000000E+00 0. -1.
         11    1    3    3    0    0  0.20419058321E+02 -0.33194372143E+02  0.18475607170E+01  0.39015609251E+02  0.00000000000E+00 0.  1.
</event>
<event>
 7    1  0.6988825E-006  0.6381294E+02  0.7561462E-02  0.1382493E+00
         -2   -1    0    0    0  501 -0.00000000000E+00  0.00000000000E+00  0.21343100242E+02  0.21343100242E+02  0.00000000000E+00 0.  1.
          2   -1    0    0  501    0  0.00000000000E+00 -0.00000000000E+00 -0.62732821509E+03  0.62732821509E+03  0.00000000000E+00 0. -1.
         23    2    1    2    0    0  0.28784476184E+02  0.24966433768E+02 -0.21058294702E+03  0.23220691940E+03  0.90127725787E+02 0.  0.
          5    1    1    2  502    0  0.56960897441E+01  0.55479118073E+01  0.70164962601E+01  0.11398613230E+02  0.41800000000E+01 0. -1.
         -5    1    1    2    0  502 -0.34480565929E+02 -0.30514345575E+02 -0.40241866409E+03  0.40506578270E+03  0.41800000000E+01 0. -1.
        -11    1    3    3    0    0  0.41112884819E+02 -0.36260060491E+01 -0.35689434748E+02  0.54563293253E+02  0.00000000000E+00 0.  1.
         11    1    3    3    0    0 -0.12328408635E+02  0.28592439817E+02 -0.17489351227E+03  0.17764362614E+03  0.00000000000E+00 0. -1.
</event>
<event>
 7    1  0.6988825E-006  0.7664159E+02  0.7561462E-02  0.1338862E+00
         -4   -1    0    0    0  501 -0.00000000000E+00  0.00000000000E+00  0.21045102827E+03  0.21045102827E+03  0.00000000000E+00 0.  1.
          4   -1    0    0  501    0  0.00000000000E+00 -0.00000000000E+00 -0.63701134519E+02  0.63701134519E+02  0.00000000000E+00 0. -1.
         23    2    1    2    0    0 -0.40681376253E+02  0.82625255289E+01  0.53216384279E+02  0.11253366350E+03  0.90047754898E+02 0.  0.
          5    1    1    2  502    0  0.27270481623E+02 -0.22496688743E+02 -0.23651517822E+02  0.42739289508E+02  0.41800000000E+01 0.  1.
         -5    1    1    2    0  502  0.13410894630E+02  0.14234163214E+02  0.11718502729E+03  0.11887920978E+03  0.41800000000E+01 0.  1.
        -11    1    3    3    0    0 -0.12922835182E+02 -0.39986077637E+02  0.13442927370E+02  0.44120271647E+02  0.00000000000E+00 0. -1.
         11    1    3    3    0    0 -0.27758541072E+02  0.48248603166E+02  0.39773456908E+02  0.68413391849E+02  0.00000000000E+00 0.  1.
</event>
<event>
 7    1  0.6988825E-006  0.1018825E+03  0.7561462E-02  0.1276386E+00
         -1   -1    0    0    0  501 -0.00000000000E+00  0.00000000000E+00  0.26025480021E+02  0.26025480021E+02  0.00000000000E+00 0.  1.
          1   -1    0    0  501    0  0.00000000000E+00 -0.00000000000E+00 -0.90298710089E+03  0.90298710089E+03  0.00000000000E+00 0. -1.
         23    2    1    2    0    0 -0.25512638032E+01 -0.24845312881E+02 -0.84977049101E+02  0.12682181046E+03  0.90768244534E+02 0.  0.
          5    1    1    2  502    0 -0.13705655738E+02  0.73827848373E+02 -0.43111635612E+03  0.43762676005E+03  0.41800000000E+01 0.  1.
         -5    1    1    2    0  502  0.16256919542E+02 -0.48982535492E+02 -0.36086821564E+03  0.36456401040E+03  0.41800000000E+01 0.  1.
        -11    1    3    3    0    0  0.18623141274E+02  0.19914168542E+02  0.13539844628E+01  0.27298878613E+02  0.00000000000E+00 0.  1.
         11    1    3    3    0    0 -0.21174405077E+02 -0.44759481422E+02 -0.86331033564E+02  0.99522931849E+02  0.00000000000E+00 0. -1.
</event>
<event>
 7    1  0.6988825E-006  0.1403240E+03  0.7561462E-02  0.1212894E+00
          2   -1    0    0  501    0  0.00000000000E+00  0.00000000000E+00  0.66997121499E+02  0.66997121499E+02  0.00000000000E+00 0. -1.
         -2   -1    0    0    0  501 -0.00000000000E+00 -0.00000000000E+00 -0.69258038439E+03  0.69258038439E+03  0.00000000000E+00 0.  1.
         23    2    1    2    0    0  0.12144231996E+03  0.13065266952E+02 -0.54774111048E+03  0.56819875359E+03  0.88941335670E+02 0.  0.
          5    1    1    2  502    0 -0.70944905771E+02 -0.33712660655E+02 -0.10427281361E+03  0.13061399313E+03  0.41800000000E+01 0. -1.
         -5    1    1    2    0  502 -0.50497414186E+02  0.20647393702E+02  0.26430661196E+02  0.60764759174E+02  0.41800000000E+01 0. -1.
        -11    1    3    3    0    0  0.79469304013E+02 -0.32017675771E+02 -0.25374147619E+03  0.26781568024E+03  0.00000000000E+00 0. -1.
         11    1    3    3    0    0  0.41973015944E+02  0.45082942724E+02 -0.29399963429E+03  0.30038307335E+03  0.00000000000E+00 0.  1.
</event>
<event>
 7    1  0.6988825E-006  0.6690704E+02  0.7561462E-02  0.1370938E+00
          1   -1    0    0  501    0  0.00000000000E+00  0.00000000000E+00  0.78153791618E+02  0.78153791618E+02  0.00000000000E+00 0. -1.
         -1   -1    0    0    0  501 -0.00000000000E+00 -0.00000000000E+00 -0.22804184654E+03  0.22804184654E+03  0.00000000000E+00 0.  1.
         23    2    1    2    0    0  0.83036002136E+01 -0.32234391008E+01 -0.14480247148E+03  0.16890829751E+03  0.86503854732E+02 0.  0.
          5    1    1    2  502    0 -0.93496925995E+01 -0.20418279318E+02  0.61975143952E+02  0.66050842158E+02  0.41800000000E+01 0. -1.
         -5    1    1    2    0  502  0.10460923859E+01  0.23641718418E+02 -0.67060727396E+02  0.71236498495E+02  0.41800000000E+01 0.  1.
        -11    1    3    3    0    0  0.11541506174E+02 -0.44278272734E+02 -0.74348871533E+02  0.87301354510E+02  0.00000000000E+00 0.  1.
         11    1    3    3    0    0 -0.32379059603E+01  0.41054833633E+02 -0.70453599950E+02  0.81606942999E+02  0.00000000000E+00 0. -1.
</event>
<event>
 7    1  0.6988825E-006  0.1550369E+03  0.7561462E-02  0.1194417E+00
         -2   -1    0    0    0  501 -0.00000000000E+00  0.00000000000E+00  0.29748885721E+02  0.29748885721E+02  0.00000000000E+00 0.  1.
          2   -1    0    0  501    0  0.00000000000E+00 -0.00000000000E+00 -0.18352969058E+04  0.18352969058E+04  0.00000000000E+00 0. -1.
         23    2    1    2    0    0  0.10388146664E+03  0.50267276512E+02 -0.18378301330E+03  0.23437518133E+03  0.88528929988E+02 0.  0.
          5    1    1    2  502    0 -0.10079111662E+03 -0.86329868533E+02 -0.13392990091E+04  0.13458644075E+04  0.41800000000E+01 0. -1.
         -5    1    1    2    0  502 -0.30903500247E+01  0.36062592021E+02 -0.28246599775E+03  0.28480620269E+03  0.41800000000E+01 0. -1.
        -11    1    3    3    0    0 -0.12316247197E+02  0.15048158447E+02 -0.50316978130E+02  0.53943816196E+02  0.00000000000E+00 0.  1.
         11    1    3    3    0    0  0.11619771384E+03  0.35219118065E+02 -0.13346603517E+03  0.18043136513E+03  0.00000000000E+00 0. -1.
</event>
<event>
 7    1  0.6988825E-006  0.8021377E+02  0.7561462E-02  0.1328446E+00
         -1   -1    0    0    0  501 -0.00000000000E+00  0.00000000000E+00  0.50068481510E+02  0.50068481510E+02  0.00000000000E+00 0.  1.
          1   -1    0    0  501    0  0.00000000000E+00 -0.00000000000E+00 -0.48610034485E+03  0.48610034485E+03  0.00000000000E+00 0. -1.
         23    2    1    2    0    0 -0.41674593128E+02  0.41359837977E+02 -0.39477167360E+02  0.11622735000E+03  0.92211399702E+02 0.  0.
          5    1    1    2  502    0  0.32541130587E+02 -0.23020028944E+02 -0.39700834298E+03  0.39902624438E+03  0.41800000000E+01 0. -1.
         -5    1    1    2    0  502  0.91334625405E+01 -0.18339809033E+02  0.45364699269E+00  0.20915231983E+02  0.41800000000E+01 0. -1.
        -11    1    3    3    0    0 -0.42504315605E+02 -0.13481173656E+02  0.59813708186E+01  0.44990395476E+02  0.00000000000E+00 0.  1.
         11    1    3    3    0    0  0.82972247740E+00  0.54841011633E+02 -0.45458538178E+02  0.71236954522E+02  0.00000000000E+00 0. -1.
</event>
<event>
 7    1  0.6988825E-006  0.1937345E+03  0.7561462E-02  0.1155136E+00
         -2   -1    0    0    0  501 -0.00000000000E+00  0.00000000000E+00  0.75654566325E+02  0.75654566325E+02  0.00000000000E+00 0.  1.
          2   -1    0    0  501    0  0.00000000000E+00 -0.00000000000E+00 -0.57895963461E+03  0.57895963461E+03  0.00000000000E+00 0. -1.
         23    2    1    2    0    0 -0.87065039254E+02 -0.14800650428E+03 -0.16080166013E+03  0.25157272882E+03  0.89137072057E+02 0.  0.
          5    1    1    2  502    0  0.49736036747E+02 -0.91888250433E+01 -0.77306772271E+02  0.92476577012E+02  0.41800000000E+01 0.  1.
         -5    1    1    2    0  502  0.37329002507E+02  0.15719532932E+03 -0.26519663588E+03  0.31056489510E+03  0.41800000000E+01 0.  1.
        -11    1    3    3    0    0 -0.51263314310E+02 -0.11699272484E+03 -0.61956041687E+02  0.14196399600E+03  0.00000000000E+00 0.  1.
         11    1    3    3    0    0 -0.35801724944E+02 -0.31013779442E+02 -0.98845618446E+02  0.10960873282E+03  0.00000000000E+00 0. -1.
</event>
<event>
 7    1  0.6988825E-006  0.1024589E+03  0.7561462E-02  0.1275209E+00
         -1   -1    0    0    0  501 -0.00000000000E+00  0.00000000000E+00  0.17327478117E+02  0.17327478117E+02  0.00000000000E+00 0.  1.
          1   -1    0    0  501    0  0.00000000000E+00 -0.00000000000E+00 -0.92084177833E+03  0.92084177833E+03  0.00000000000E+00 0. -1.
         23    2    1    2    0    0 -0.56628690689E+02 -0.26753729566E+01 -0.28155205828E+03  0.30122526805E+03  0.90835754863E+02 0.  0.
          5    1    1    2  502    0 -0.15979645970E+02  0.27990873628E+02 -0.48804914513E+02  0.58636423598E+02  0.41800000000E+01 0.  1.
         -5    1    1    2    0  502  0.72608336658E+02 -0.25315500671E+02 -0.57315732743E+03  0.57830756480E+03  0.41800000000E+01 0.  1.
        -11    1    3    3    0    0 -0.75769356051E+02  0.16406690430E+01 -0.26477970774E+03  0.27541238306E+03  0.00000000000E+00 0. -1.
         11    1    3    3    0    0  0.19140665362E+02 -0.43160419996E+01 -0.16772350542E+02  0.25812884995E+02  0.00000000000E+00 0.  1.
</event>
<event>
 7    1  0.6988825E-006  0.1118137E+03  0.7561462E-02  0.1257248E+00
          2   -1    0    0  501    0  0.00000000000E+00  0.00000000000E+00  0.20127590879E+03  0.20127590879E+03  0.00000000000E+00 0. -1.
         -2   -1    0    0    0  501 -0.00000000000E+00 -0.00000000000E+00 -0.13564566583E+03  0.13564566583E+03  0.00000000000E+00 0.  1.
         23    2    1    2    0    0  0.41434083752E+02 -0.69443334763E+02 -0.71155593717E+02  0.13469156522E+03  0.80867417325E+02 0.  0.
          5    1    1    2  502    0 -0.27561898068E+02 -0.25836889484E+02  0.84339031170E+02  0.92508095116E+02  0.41800000000E+01 0.  1.
         -5    1    1    2    0  502 -0.13872185684E+02  0.95280224247E+02  0.52446805503E+02  0.10972191429E+03  0.41800000000E+01 0.  1.
        -11    1    3    3    0    0  0.48729763159E+02 -0.59429482746E+02 -0.86013101272E+02  0.11534603083E+03  0.00000000000E+00 0.  1.
         11    1    3    3    0    0 -0.72956794066E+01 -0.10013852017E+02  0.14857507555E+02  0.19345534393E+02  0.00000000000E+00 0. -1.
</event>
<event>
 7    1  0.6988825E-006  0.1103939E+03  0.7561462E-02  0.1259842E+00
         -2   -1    0    0    0  501 -0.00000000000E+00  0.00000000000E+00  0.12603095111E+02  0.12603095111E+02  0.00000000000E+00 0.  1.
          2   -1    0    0  501    0  0.00000000000E+00 -0.00000000000E+00 -0.10732104039E+04  0.10732104039E+04  0.00000000000E+00 0. -1.
         23    2    1    2    0    0 -0.35368928099E+02 -0.59726857023E+01 -0.35217471276E+03  0.36552845564E+03  0.91090007837E+02 0.  0.
          5    1    1    2  502    0 -0.34108876151E+02 -0.31467171255E+02 -0.35990747504E+03  0.36291109282E+03  0.41800000000E+01 0.  1.
         -5    1    1    2    0  502  0.69477804250E+02  0.37439856958E+02 -0.34852512097E+03  0.35737395053E+03  0.41800000000E+01 0.  1.
        -11    1    3    3    0    0  0.15464224444E+00 -0.43490988231E+02 -0.20457243995E+03  0.20914438352E+03  0.00000000000E+00 0. -1.
         11    1    3    3    0    0 -0.35523570343E+02  0.37518302529E+02 -0.14760227281E+03  0.15638407212E+03  0.00000000000E+00 0.  1.
</event>
<event>
 7    1  0.6988825E-006  0.1053985E+03  0.7561462E-02  0.1269337E+00
         -1   -1    0    0    0  501 -0.00000000000E+00  0.00000000000E+00  0.72919244076E+03  0.72919244076E+03  0.00000000000E+00 0.  1.
          1   -1    0    0  501    0  0.00000000000E+00 -0.00000000000E+00 -0.27440258813E+02  0.27440258813E+02  0.00000000000E+00 0. -1.
         23    2    1    2    0    0  0.84001124293E+02 -0.34754268250E+02  0.34281068796E+03  0.36579932317E+03  0.89587549410E+02 0.  0.
          5    1    1    2  502    0 -0.21591648222E+02  0.10461934908E+02 -0.13067901372E+01  0.24389166764E+02  0.41800000000E+01 0.  1.
         -5    1    1    2    0  502 -0.62409476072E+02  0.24292333341E+02  0.36024828412E+03  0.36644420964E+03  0.41800000000E+01 0.  1.
        -11    1    3    3    0    0  0.10583666101E+02  0.23400353919E+02  0.14092562488E+03  0.14324671828E+03  0.00000000000E+00 0. -1.
         11    1    3    3    0    0  0.73417458193E+02 -0.58154622169E+02  0.20188506308E+03  0.22255260489E+03  0.00000000000E+00 0.  1.
</event>
<event>
 7    1  0.6988825E-006  0.1838121E+03  0.7561462E-02  0.1164164E+00
          1   -1    0    0  501    0  0.00000000000E+00  0.00000000000E+00  0.19932449069E+04  0.19932449069E+04  0.00000000000E+00 0. -1.
         -1   -1    0    0    0  501 -0.00000000000E+00 -0.00000000000E+00 -0.20532112745E+02  0.20532112745E+02  0.00000000000E+00 0.  1.
         23    2    1    2    0    0 -0.42044425340E+02  0.14794618686E+03  0.55110914203E+03  0.57720044073E+03  0.76047711567E+02 0.  0.
          5    1    1    2  502    0  0.61719101063E+01 -0.15990053602E+03  0.94542136491E+03  0.95887710554E+03  0.41800000000E+01 0. -1.
         -5    1    1    2    0  502  0.35872515234E+02  0.11954349160E+02  0.47618228719E+03  0.47769947335E+03  0.41800000000E+01 0.  1.
        -11    1    3    3    0    0 -0.61769029085E+02  0.12359032768E+03  0.48002491371E+03  0.49951366331E+03  0.00000000000E+00 0.  1.
         11    1    3    3    0    0  0.19724603745E+02  0.24355859183E+02  0.71084228326E+02  0.77686777421E+02  0.00000000000E+00 0. -1.
</event>
<event>
 7    1  0.6988825E-006  0.8485154E+02  0.7561462E-02  0.1315821E+00
          2   -1    0    0  501    0  0.00000000000E+00  0.00000000000E+00  0.55591514385E+03  0.55591514385E+03  0.00000000000E+00 0. -1.
         -2   -1    0    0    0  501 -0.00000000000E+00 -0.00000000000E+00 -0.24328777592E+02  0.24328777592E+02  0.00000000000E+00 0.  1.
         23    2    1    2    0    0  0.37735354110E+02 -0.70161944550E+01  0.15633344770E+03  0.18283397536E+03  0.86688705967E+02 0.  0.
          5    1    1    2  502    0  0.69185346355E+01 -0.42859745190E+02  0.26340346531E+03  0.26699004067E+03  0.41800000000E+01 0. -1.
         -5    1    1    2    0  502 -0.44653888745E+02  0.49875939645E+02  0.11184945324E+03  0.13041990541E+03  0.41800000000E+01 0. -1.
        -11    1    3    3    0    0  0.46877426986E+02  0.94973864787E+00  0.16257147466E+03  0.16919775276E+03  0.00000000000E+00 0. -1.
         11    1    3    3    0    0 -0.91420728762E+01 -0.79659331029E+01 -0.62380269580E+01  0.13636222608E+02  0.00000000000E+00 0.  1.
</event>
<event>
 7    1  0.6988825E-006  0.1008083E+03  0.7561462E-02  0.1278605E+00
         -2   -1    0    0    0  501 -0.00000000000E+00  0.00000000000E+00  0.89375398567E+02  0.89375398567E+02  0.00000000000E+00 0. -1.
          2   -1    0    0  501    0  0.00000000000E+00 -0.00000000000E+00 -0.22848436165E+03  0.22848436165E+03  0.00000000000E+00 0.  1.
         23    2    1    2    0    0 -0.88927877147E+01  0.29311916953E+02  0.34440005834E+02  0.10174396301E+03  0.90705291240E+02 0.  0.
          5    1    1    2  502    0  0.52800635193E+02 -0.43091457890E+02 -0.51238753533E+02  0.85367810582E+02  0.41800000000E+01 0. -1.
         -5    1    1    2    0  502 -0.43907847478E+02  0.13779540937E+02 -0.12231021538E+03  0.13074798662E+03  0.41800000000E+01 0. -1.
        -11    1    3    3    0    0 -0.44830472853E+02  0.85990584210E+01  0.38967556610E+02  0.60018210321E+02  0.00000000000E+00 0. -1.
         11    1    3    3    0    0  0.35937685139E+02  0.20712858532E+02 -0.45275507764E+01  0.41725752692E+02  0.00000000000E+00 0.  1.
</event>
<event>
 7    1  0.6988825E-006  0.9727874E+02  0.7561462E-02  0.1286125E+00
          2   -1    0    0  501    0  0.00000000000E+00  0.00000000000E+00  0.41158515269E+03  0.41158515269E+03  0.00000000000E+00 0. -1.
         -2   -1    0    0    0  501 -0.00000000000E+00 -0.00000000000E+00 -0.39192512726E+02  0.39192512726E+02  0.00000000000E+00 0.  1.
         23    2    1    2    0    0 -0.55172258789E+02  0.18303510404E+02  0.11290246888E+03  0.15690485339E+03  0.92158390310E+02 0.  0.
          5    1    1    2  502    0  0.32694952283E+02  0.50473846275E+02  0.15841623137E+03  0.16949850684E+03  0.41800000000E+01 0.  1.
         -5    1    1    2    0  502  0.22477306506E+02 -0.68777356679E+02  0.10107393972E+03  0.12437430519E+03  0.41800000000E+01 0.  1.
        -11    1    3    3    0    0 -0.30250595806E+02 -0.10098356291E+01 -0.85295879190E+01  0.31446338176E+02  0.00000000000E+00 0.  1.
         11    1    3    3    0    0 -0.24921662984E+02  0.19313346033E+02  0.12143205680E+03  0.12545851521E+03  0.00000000000E+00 0. -1.
</event>
<event>
 7    1  0.6988825E-006  0.8800298E+02  0.7561462E-02  0.1307761E+00
         -1   -1    0    0    0  501 -0.00000000000E+00  0.00000000000E+00  0.21860845262E+02  0.21860845262E+02  0.00000000000E+00 0.  1.
          1   -1    0    0  501    0  0.00000000000E+00 -0.00000000000E+00 -0.79223105871E+03  0.79223105871E+03  0.00000000000E+00 0. -1.
         23    2    1    2    0    0 -0.17487475594E+02 -0.44825769806E+02 -0.18322071886E+03  0.21183999869E+03  0.94821895071E+02 0.  0.
          5    1    1    2  502    0 -0.32791140093E+02  0.48641725006E+02 -0.13465937360E+03  0.14694181018E+03  0.41800000000E+01 0. -1.
         -5    1    1    2    0  502  0.50278615686E+02 -0.38159552003E+01 -0.45249012098E+03  0.45531009510E+03  0.41800000000E+01 0. -1.
        -11    1    3    3    0    0  0.15810261937E+02 -0.12077689977E+02  0.27589231107E+01  0.20085981042E+02  0.00000000000E+00 0.  1.
         11    1    3    3    0    0 -0.33297737531E+02 -0.32748079830E+02 -0.18597964197E+03  0.19175401765E+03  0.00000000000E+00 0. -1.
</event>
<event>
 7    1  0.6988825E-006  0.1018926E+03  0.7561462E-02  0.1276366E+00
         -2   -1    0    0    0  501 -0.00000000000E+00  0.00000000000E+00  0.96391603034E+02  0.96391603034E+02  0.00000000000E+00 0.  1.
          2   -1    0    0  501    0  0.00000000000E+00 -0.00000000000E+00 -0.11916721696E+03  0.11916721696E+03  0.00000000000E+00 0. -1.
         23    2    1    2    0    0  0.14797588913E+02  0.13983981016E+02  0.12017774085E+02  0.93972795725E+02  0.90950201098E+02 0.  0.
          5    1    1    2  502    0  0.37822369869E+02 -0.40486049723E+02 -0.60257048752E+01  0.55887685620E+02  0.41800000000E+01 0.  1.
         -5    1    1    2    0  502 -0.52619958782E+02  0.26502068707E+02 -0.28767683133E+02  0.65698338645E+02  0.41800000000E+01 0. -1.
        -11    1    3    3    0    0  0.45190059229E+02  0.30546654275E+02 -0.61337070221E+01  0.54889542742E+02  0.00000000000E+00 0.  1.
         11    1    3    3    0    0 -0.30392470316E+02 -0.16562673259E+02  0.18151481107E+02  0.39083252984E+02  0.00000000000E+00 0. -1.
</event>
<event>
 7    1  0.6988825E-006  0.7163705E+02  0.7561462E-02  0.1354613E+00
          1   -1    0    0  501    0  0.00000000000E+00  0.00000000000E+00  0.90249047905E+03  0.90249047905E+03  0.00000000000E+00 0. -1.
         -1   -1    0    0    0  501 -0.00000000000E+00 -0.00000000000E+00 -0.15427202475E+02  0.15427202475E+02  0.00000000000E+00 0.  1.
         23    2    1    2    0    0  0.23401998523E+02 -0.20885080326E+02  0.27958751318E+03  0.29690365810E+03  0.94861818204E+02 0.  0.
          5    1    1    2  502    0  0.12001017302E+01 -0.75893269629E+01  0.56099922405E+03  0.56106741120E+03  0.41800000000E+01 0. -1.
         -5    1    1    2    0  502 -0.24602100253E+02  0.28474407289E+02  0.46476539345E+02  0.59946612221E+02  0.41800000000E+01 0. -1.
        -11    1    3    3    0    0 -0.34524046367E+02  0.15188395323E+01  0.66412076063E+02  0.74865081968E+02  0.00000000000E+00 0. -1.
         11    1    3    3    0    0  0.57926044889E+02 -0.22403919859E+02  0.21317543711E+03  0.22203857613E+03  0.00000000000E+00 0.  1.
</event>
<event>
 7    1  0.6988825E-006  0.1673683E+03  0.7561462E-02  0.1180620E+00
         -1   -1    0    0    0  501 -0.00000000000E+00  0.00000000000E+00  0.30821652096E+03  0.30821652096E+03  0.00000000000E+00 0.  1.
          1   -1    0    0  501    0  0.00000000000E+00 -0.00000000000E+00 -0.10318840995E+03  0.10318840995E+03  0.00000000000E+00 0. -1.
         23    2    1    2    0    0 -0.45917461916E+02 -0.12066444364E+03  0.16205708131E+03  0.22657454365E+03  0.91679904883E+02 0.  0.
          5    1    1    2  502    0 -0.41477973563E+02  0.32346195485E+02 -0.15243649790E+01  0.52787259276E+02  0.41800000000E+01 0.  1.
         -5    1    1    2    0  502  0.87395435479E+02  0.88318248153E+02  0.44495394677E+02  0.13204312798E+03  0.41800000000E+01 0.  1.
        -11    1    3    3    0    0 -0.44241921304E+02 -0.79822265298E+01  0.56103294574E+02  0.71893276481E+02  0.00000000000E+00 0.  1.
         11    1    3    3    0    0 -0.16755406117E+01 -0.11268221711E+03  0.10595378674E+03  0.15468126717E+03  0.00000000000E+00 0. -1.
</event>
<event>
 7    1  0.6988825E-006  0.9602068E+02  0.7561462E-02  0.1288894E+00
         -1   -1    0    0    0  501 -0.00000000000E+00  0.00000000000E+00  0.76432876818E+02  0.76432876818E+02  0.00000000000E+00 0.  1.
          1   -1    0    0  501    0  0.00000000000E+00 -0.00000000000E+00 -0.22192790862E+03  0.22192790862E+03  0.00000000000E+00 0. -1.
         23    2    1    2    0    0  0.22422988907E+02  0.34644407991E+02 -0.75230349622E+00  0.10265737151E+03  0.93994385626E+02 0.  0.
          5    1    1    2  502    0 -0.56959714484E+02 -0.63132195149E+02 -0.10874032422E+03  0.13810146143E+03  0.41800000000E+01 0.  1.
         -5    1    1    2    0  502  0.34536725576E+02  0.28487787158E+02 -0.36002404085E+02  0.57601952490E+02  0.41800000000E+01 0.  1.
        -11    1    3    3    0    0 -0.44822527619E+01  0.34750905596E+02  0.40407751016E+02  0.53483664531E+02  0.00000000000E+00 0.  1.
         11    1    3    3    0    0  0.26905241669E+02 -0.10649760558E+00 -0.41160054512E+02  0.49173706983E+02  0.00000000000E+00 0. -1.
</event>
<event>
 7    1  0.6988825E-006  0.1232157E+03  0.7561462E-02  0.1237885E+00
         -1   -1    0    0    0  501 -0.00000000000E+00  0.00000000000E+00  0.22995772974E+03  0.22995772974E+03  0.00000000000E+00 0.  1.
          1   -1    0    0  501    0  0.00000000000E+00 -0.00000000000E+00 -0.75096907870E+02  0.75096907870E+02  0.00000000000E+00 0. -1.
         23    2    1    2    0    0 -0.35350743053E+02  0.75368577989E+02  0.76307864017E+02  0.14522564389E+03  0.91309911558E+02 0.  0.
          5    1    1    2  502    0 -0.26031083443E+02 -0.51922380605E+02  0.11938111984E+01  0.58244729359E+02  0.41800000000E+01 0. -1.
         -5    1    1    2    0  502  0.61381826495E+02 -0.23446197384E+02  0.77359146653E+02  0.10158426437E+03  0.41800000000E+01 0.  1.
        -11    1    3    3    0    0  0.21460931704E+02 -0.67555630660E+01  0.66159343394E+01  0.23451648325E+02  0.00000000000E+00 0. -1.
         11    1    3    3    0    0 -0.56811674757E+02  0.82124141055E+02  0.69691929678E+02  0.12177399556E+03  0.00000000000E+00 0.  1.
</event>
<event>
 7    1  0.6988825E-006  0.8322965E+02  0.7561462E-02  0.1320128E+00
         -2   -1    0    0    0  501 -0.00000000000E+00  0.00000000000E+00  0.32373098801E+02  0.32373098801E+02  0.00000000000E+00 0.  1.
          2   -1    0    0  501    0  0.00000000000E+00 -0.00000000000E+00 -0.57353425347E+03  0.57353425347E+03  0.00000000000E+00 0. -1.
         23    2    1    2    0    0  0.32934780046E+02 -0.37409471214E+02 -0.98576884098E+02  0.14330049621E+03  0.91287796891E+02 0.  0.
          5    1    1    2  502    0 -0.51496995304E+02 -0.14512152426E+01 -0.39469813842E+03  0.39806800854E+03  0.41800000000E+01 0.  1.
         -5    1    1    2    0  502  0.18562215258E+02  0.38860686457E+02 -0.47886132146E+02  0.64538847519E+02  0.41800000000E+01 0.  1.
        -11    1    3    3    0    0 -0.11769092823E+02 -0.20637099798E+02 -0.92102109943E+02  0.95116770813E+02  0.00000000000E+00 0. -1.
         11    1    3    3    0    0  0.44703872869E+02 -0.16772371416E+02 -0.64747741556E+01  0.48183725393E+02  0.00000000000E+00 0.  1.
</event>
<event>
 7    1  0.6988825E-006  0.1539516E+03  0.7561462E-02  0.1195700E+00
         -1   -1    0    0    0  501 -0.00000000000E+00  0.00000000000E+00  0.10177294613E+03  0.10177294613E+03  0.00000000000E+00 0.  1.
          1   -1    0    0  501    0  0.00000000000E+00 -0.00000000000E+00 -0.37315668098E+03  0.37315668098E+03  0.00000000000E+00 0. -1.
         23    2    1    2    0    0  0.12550273255E+02 -0.41910601825E+02 -0.39723933420E+02  0.11509640817E+03  0.98768336946E+02 0.  0.
          5    1    1    2  502    0 -0.49938235033E+02  0.11216341706E+03 -0.24955758717E+03  0.27815628909E+03  0.41800000000E+01 0. -1.
         -5    1    1    2    0  502  0.37387961778E+02 -0.70252815238E+02  0.17897785737E+02  0.81676929846E+02  0.41800000000E+01 0.  1.
        -11    1    3    3    0    0  0.54475425107E+02 -0.27549653972E+02 -0.10318359115E+02  0.61911419862E+02  0.00000000000E+00 0. -1.
         11    1    3    3    0    0 -0.41925151852E+02 -0.14360947854E+02 -0.29405574305E+02  0.53184988308E+02  0.00000000000E+00 0.  1.
</event>
<event>
 6    1  0.6988825E-006  0.7463232E+02  0.7561462E-02  0.1345013E+00
         -1   -1    0    0    0  501 -0.00000000000E+00  0.00000000000E+00  0.27660964029E+02  0.27660964029E+02  0.00000000000E+00 0.  1.
          1   -1    0    0  501    0  0.00000000000E+00 -0.00000000000E+00 -0.27875532597E+03  0.27875532597E+03  0.00000000000E+00 0. -1.
          5    1    1    2  502    0 -0.88591802235E+01  0.43786149690E+02 -0.12747257781E+03  0.13513860467E+03  0.41800000000E+01 0. -1.
         -5    1    1    2    0  502  0.16008248433E+02 -0.63192652046E+02 -0.11199220056E+03  0.12965068714E+03  0.41800000000E+01 0.  1.
        -11    1    1    2    0    0 -0.20245175383E+02  0.15207594447E+02 -0.11654738042E+02  0.27874199073E+02  0.00000000000E+00 0. -1.
         11    1    1    2    0    0  0.13096107173E+02  0.41989079091E+01  0.25154468496E-01  0.13752799114E+02  0.00000000000E+00 0.  1.
</event>
<event>
 7    1  0.6988825E-006  0.1350122E+03  0.7561462E-02  0.1220203E+00
         -2   -1    0    0    0  501 -0.00000000000E+00  0.00000000000E+00  0.37676057792E+02  0.37676057792E+02  0.00000000000E+00 0. -1.
          2   -1    0    0  501    0  0.00000000000E+00 -0.00000000000E+00 -0.51909693719E+03  0.51909693719E+03  0.00000000000E+00 0.  1.
         23    2    1    2    0    0 -0.68573732729E+02 -0.42246524447E+02 -0.15255386084E+03  0.19581750314E+03  0.92653593730E+02 0.  0.
          5    1    1    2  502    0  0.39403045966E+02  0.86017582263E+02 -0.18746964615E+03  0.21003324765E+03  0.41800000000E+01 0.  1.
         -5    1    1    2    0  502  0.29170686763E+02 -0.43771057816E+02 -0.14139737241E+03  0.15092224419E+03  0.41800000000E+01 0.  1.
        -11    1    3    3    0    0  0.18873207424E+02  0.93038874174E+01 -0.21995920258E+02  0.30439789545E+02  0.00000000000E+00 0. -1.
         11    1    3    3    0    0 -0.87446940153E+02 -0.51550411864E+02 -0.13055794058E+03  0.16537771360E+03  0.00000000000E+00 0.  1.
</event>
<event>
 7    1  0.6988825E-006  0.1406688E+03  0.7561462E-02  0.1212432E+00
          2   -1    0    0  501    0  0.00000000000E+00  0.00000000000E+00  0.43674618277E+03  0.43674618277E+03  0.00000000000E+00 0. -1.
         -2   -1    0    0    0  501 -0.00000000000E+00 -0.00000000000E+00 -0.73364561397E+02  0.73364561397E+02  0.00000000000E+00 0.  1.
         23    2    1    2    0    0 -0.47356393445E+02  0.11781305874E+03  0.82868246096E+02  0.17775844346E+03  0.92781319245E+02 0.  0.
          5    1    1    2  502    0  0.30191359305E+02 -0.10709951335E+03  0.28923217691E+03  0.30992668246E+03  0.41800000000E+01 0. -1.
         -5    1    1    2    0  502  0.17165034139E+02 -0.10713545392E+02 -0.87188016342E+01  0.22425618248E+02  0.41800000000E+01 0. -1.
        -11    1    3    3    0    0  0.21864651662E+02  0.36392740077E+02  0.50752545326E+02  0.66168839945E+02  0.00000000000E+00 0. -1.
         11    1    3    3    0    0 -0.69221045106E+02  0.81420318668E+02  0.32115700770E+02  0.11158960352E+03  0.00000000000E+00 0.  1.
</event>
<event>
 7    1  0.6988825E-006  0.1924054E+03  0.7561462E-02  0.1156310E+00
         -2   -1    0    0    0  501 -0.00000000000E+00  0.00000000000E+00  0.77642579507E+03  0.77642579507E+03  0.00000000000E+00 0.  1.
          2   -1    0    0  501    0  0.00000000000E+00 -0.00000000000E+00 -0.79204667972E+02  0.79204667972E+02  0.00000000000E+00 0. -1.
         23    2    1    2    0    0 -0.58825222232E+02  0.16592909752E+03  0.57334670079E+03  0.60666282572E+03  0.91216624743E+02 0.  0.
          5    1    1    2  502    0  0.30910172725E+02 -0.17335249086E+03  0.13028614575E+03  0.21908554731E+03  0.41800000000E+01 0. -1.
         -5    1    1    2    0  502  0.27915049507E+02  0.74233933372E+01 -0.64117194374E+01  0.29882090016E+02  0.41800000000E+01 0. -1.
        -11    1    3    3    0    0 -0.38512875423E+02  0.57718664553E+02  0.35952397013E+03  0.36615866904E+03  0.00000000000E+00 0.  1.
         11    1    3    3    0    0 -0.20312346808E+02  0.10821043297E+03  0.21382273066E+03  0.24050415668E+03  0.00000000000E+00 0. -1.
</event>
<event>
 7    1  0.8700950E-006  0.1199337E+03  0.7561462E-02  0.1243207E+00
          2   -1    0    0  501    0  0.00000000000E+00  0.00000000000E+00  0.43586231086E+03  0.43586231086E+03  0.00000000000E+00 0. -1.
         -2   -1    0    0    0  501 -0.00000000000E+00 -0.00000000000E+00 -0.49955713169E+02  0.49955713169E+02  0.00000000000E+00 0.  1.
         23    2    1    2    0    0 -0.98386349642E+02 -0.67452941761E+01  0.15499329961E+03  0.20529401779E+03  0.91636990495E+02 0.  0.
          5    1    1    2  502    0  0.43600117833E+02  0.21484129422E+02  0.67442965390E+01  0.49249325151E+02  0.41800000000E+01 0. -1.
         -5    1    1    2    0  502  0.54786231809E+02 -0.14738835246E+02  0.22416900155E+03  0.23127468109E+03  0.41800000000E+01 0. -1.
        -11    1    3    3    0    0 -0.17901808731E+01 -0.33826251759E+02  0.32265642623E+02  0.46781318381E+02  0.00000000000E+00 0.  1.
         11    1    3    3    0    0 -0.96596168769E+02  0.27080957583E+02  0.12272765699E+03  0.15851269941E+03  0.00000000000E+00 0. -1.
</event>
<event>
 7    1  0.6988825E-006  0.2512764E+03  0.7561462E-02  0.1112501E+00
          2   -1    0    0  501    0  0.00000000000E+00  0.00000000000E+00  0.41188390817E+03  0.41188390817E+03  0.00000000000E+00 0. -1.
         -2   -1    0    0    0  501 -0.00000000000E+00 -0.00000000000E+00 -0.30231447869E+03  0.30231447869E+03  0.00000000000E+00 0.  1.
         23    2    1    2    0    0 -0.80312701675E+01  0.16101604652E+03  0.70572445731E+02  0.19786530750E+03  0.90440816440E+02 0.  0.
          5    1    1    2  502    0  0.13955146342E+03 -0.10524645434E+03  0.22298631452E+03  0.28335807022E+03  0.41800000000E+01 0. -1.
         -5    1    1    2    0  502 -0.13152019325E+03 -0.55769592178E+02 -0.18398933078E+03  0.23297500914E+03  0.41800000000E+01 0.  1.
        -11    1    3    3    0    0  0.40490500222E+02  0.91096297257E+02  0.35649063994E+02  0.10587195920E+03  0.00000000000E+00 0.  1.
         11    1    3    3    0    0 -0.48521770389E+02  0.69919749264E+02  0.34923381738E+02  0.91993348296E+02  0.00000000000E+00 0. -1.
</event>
<event>
 7    1  0.6988825E-006  0.1100316E+03  0.7561462E-02  0.1260511E+00
          1   -1    0    0  501    0  0.00000000000E+00  0.00000000000E+00  0.20329231522E+03  0.20329231522E+03  0.00000000000E+00 0. -1.
         -1   -1    0    0    0  501 -0.00000000000E+00 -0.00000000000E+00 -0.76695756424E+02  0.76695756424E+02  0.00000000000E+00 0.  1.
         23    2    1    2    0    0 -0.38096710341E+02 -0.25532582836E+02 -0.56349398823E+01  0.10139826974E+03  0.90258431369E+02 0.  0.
          5    1    1    2  502    0  0.76043205430E+02  0.26610530639E+02  0.77635272116E+02  0.11196158854E+03  0.41800000000E+01 0. -1.
         -5    1    1    2    0  502 -0.37946495089E+02 -0.10779478027E+01  0.54596226568E+02  0.66628213367E+02  0.41800000000E+01 0.  1.
        -11    1    3    3    0    0 -0.66969715562E+02 -0.80659950123E+01 -0.23658688381E+01  0.67495188075E+02  0.00000000000E+00 0.  1.
         11    1    3    3    0    0  0.28873005221E+02 -0.17466587824E+02 -0.32690710442E+01  0.33903081662E+02  0.00000000000E+00 0. -1.
</event>
<event>
 7    1  0.6988825E-006  0.1217538E+03  0.7561462E-02  0.1240232E+00
         -4   -1    0    0    0  501 -0.00000000000E+00  0.00000000000E+00  0.29292560428E+03  0.29292560428E+03  0.00000000000E+00 0.  1.
          4   -1    0    0  501    0  0.00000000000E+00 -0.00000000000E+00 -0.66664143101E+02  0.66664143101E+02  0.00000000000E+00 0. -1.
         23    2    1    2    0    0 -0.66783847499E+02 -0.55067080615E+02  0.11794469666E+03  0.17284852728E+03  0.92049966091E+02 0.  0.
          5    1    1    2  502    0 -0.10671776916E+02  0.64393443595E+02  0.80700258467E+02  0.10387688153E+03  0.41800000000E+01 0.  1.
         -5    1    1    2    0  502  0.77455624415E+02 -0.93263629803E+01  0.27616506048E+02  0.82864338567E+02  0.41800000000E+01 0.  1.
        -11    1    3    3    0    0 -0.27893097180E+02 -0.54336250776E+02  0.11919323423E+03  0.13393087809E+03  0.00000000000E+00 0.  1.
         11    1    3    3    0    0 -0.38890750319E+02 -0.73082983867E+00 -0.12485375675E+01  0.38917649192E+02  0.00000000000E+00 0. -1.
</event>
<event>
 7    1  0.6988825E-006  0.7322961E+02  0.7561462E-02  0.1349443E+00
          2   -1    0    0  501    0  0.00000000000E+00  0.00000000000E+00  0.67991499042E+03  0.67991499042E+03  0.00000000000E+00 0. -1.
         -2   -1    0    0    0  501 -0.00000000000E+00 -0.00000000000E+00 -0.17686548429E+02  0.17686548429E+02  0.00000000000E+00 0.  1.
         23    2    1    2    0    0 -0.17000171345E+02  0.55735305591E+01  0.29826103583E+03  0.31232252755E+03  0.90915596316E+02 0.  0.
          5    1    1    2  502    0  0.14744058015E+02 -0.35469851012E+02  0.34967491161E+03  0.35180323163E+03  0.41800000000E+01 0. -1.
         -5    1    1    2    0  502  0.22561133296E+01  0.29896320453E+02  0.14292494560E+02  0.33475779673E+02  0.41800000000E+01 0. -1.
        -11    1    3    3    0    0 -0.84948837672E+00 -0.34413230208E+02  0.52318024549E+02  0.62627212429E+02  0.00000000000E+00 0.  1.
         11    1    3    3    0    0 -0.16150682968E+02  0.39986760767E+02  0.24594301128E+03  0.24969531512E+03  0.00000000000E+00 0. -1.
</event>
<event>
 7    1  0.6988825E-006  0.1332314E+03  0.7561462E-02  0.1222738E+00
          2   -1    0    0  501    0  0.00000000000E+00  0.00000000000E+00  0.44577001662E+02  0.44577001662E+02  0.00000000000E+00 0. -1.
         -2   -1    0    0    0  501 -0.00000000000E+00 -0.00000000000E+00 -0.50899538598E+03  0.50899538598E+03  0.00000000000E+00 0.  1.
         23    2    1    2    0    0  0.69797705564E+02  0.74363877645E+02 -0.25300417798E+03  0.28759230344E+03  0.91085195981E+02 0.  0.
          5    1    1    2  502    0 -0.61593734361E+02 -0.62310610481E+01 -0.17999327742E+03  0.19038819961E+03  0.41800000000E+01 0.  1.
         -5    1    1    2    0  502 -0.82039712029E+01 -0.68132816597E+02 -0.31420928917E+02  0.75591884584E+02  0.41800000000E+01 0.  1.
        -11    1    3    3    0    0  0.16642249092E+02 -0.20812175720E+02 -0.36509001600E+02  0.45199760075E+02  0.00000000000E+00 0. -1.
         11    1    3    3    0    0  0.53155456471E+02  0.95176053365E+02 -0.21649517638E+03  0.24239254337E+03  0.00000000000E+00 0.  1.
</event>
<event>
 7    1  0.6988825E-006  0.2299566E+03  0.7561462E-02  0.1126670E+00
         -2   -1    0    0    0  501 -0.00000000000E+00  0.00000000000E+00  0.12519063786E+03  0.12519063786E+03  0.00000000000E+00 0.  1.
          2   -1    0    0  501    0  0.00000000000E+00 -0.00000000000E+00 -0.46425116911E+03  0.46425116911E+03  0.00000000000E+00 0. -1.
         23    2    1    2    0    0 -0.19623546056E+03  0.65570676563E+02 -0.98297930354E+02  0.24823945030E+03  0.95668552654E+02 0.  0.
          5    1    1    2  502    0  0.19664435532E+03 -0.23391082652E+02 -0.21103182311E+03  0.28942710307E+03  0.41800000000E+01 0. -1.
         -5    1    1    2    0  502 -0.40889475797E+00 -0.42179593911E+02 -0.29730777794E+02  0.51775253603E+02  0.41800000000E+01 0. -1.
        -11    1    3    3    0    0 -0.12328464380E+03  0.29677413108E+01 -0.88127721312E+02  0.15157310497E+03  0.00000000000E+00 0. -1.
         11    1    3    3    0    0 -0.72950816754E+02  0.62602935252E+02 -0.10170209042E+02  0.96666345329E+02  0.00000000000E+00 0.  1.
</event>
<event>
 6    1  0.7308456E-006  0.1689826E+03  0.7561462E-02  0.1178913E+00
         -2   -1    0    0    0  501 -0.00000000000E+00  0.00000000000E+00  0.10961549302E+03  0.10961549302E+03  0.00000000000E+00 0.  1.
          2   -1    0    0  501    0  0.00000000000E+00 -0.00000000000E+00 -0.27358242020E+03  0.27358242020E+03  0.00000000000E+00 0. -1.
          5    1    1    2  502    0 -0.86797088591E+02  0.43552888305E+02 -0.18327527919E+02  0.98913898655E+02  0.41800000000E+01 0.  1.
         -5    1    1    2    0  502 -0.55743050897E+02 -0.74513528062E+02 -0.44643008950E+02  0.10329580938E+03  0.41800000000E+01 0.  1.
        -11    1    1    2    0    0  0.97209378261E+02  0.10162409933E+02 -0.50501711483E+02  0.11001527467E+03  0.00000000000E+00 0. -1.
         11    1    1    2    0    0  0.45330761226E+02  0.20798229824E+02 -0.50494678827E+02  0.70972930523E+02  0.00000000000E+00 0.  1.
</event>
<event>
 7    1  0.6988825E-006  0.9320913E+02  0.7561462E-02  0.1295261E+00
         -2   -1    0    0    0  501 -0.00000000000E+00  0.00000000000E+00  0.46479431583E+02  0.46479431583E+02  0.00000000000E+00 0.  1.
          2   -1    0    0  501    0  0.00000000000E+00 -0.00000000000E+00 -0.33424501986E+03  0.33424501986E+03  0.00000000000E+00 0. -1.
         23    2    1    2    0    0  0.20131412405E+02  0.18314230151E+02 -0.40152154035E+02  0.10397287106E+03  0.91964545627E+02 0.  0.
          5    1    1    2  502    0 -0.58245273415E+02 -0.37280351620E+02 -0.90823334182E+02  0.11423084927E+03  0.41800000000E+01 0. -1.
         -5    1    1    2    0  502  0.38113861010E+02  0.18966121468E+02 -0.15679010006E+03  0.16252073111E+03  0.41800000000E+01 0.  1.
        -11    1    3    3    0    0  0.41874046135E+02  0.28191669057E+02  0.71505676314E+01  0.50983689170E+02  0.00000000000E+00 0.  1.
         11    1    3    3    0    0 -0.21742633730E+02 -0.98774389057E+01 -0.47302721666E+02  0.52989181895E+02  0.00000000000E+00 0. -1.
</event>
<event>
 7    1  0.6988825E-006  0.1108510E+03  0.7561462E-02  0.1259002E+00
         -1   -1    0    0    0  501 -0.00000000000E+00  0.00000000000E+00  0.31280326120E+02  0.31280326120E+02  0.00000000000E+00 0.  1.
          1   -1    0    0  501    0  0.00000000000E+00 -0.00000000000E+00 -0.16803565116E+04  0.16803565116E+04  0.00000000000E+00 0. -1.
         23    2    1    2    0    0 -0.74680604593E+02  0.40165972041E+02 -0.11272512707E+03  0.16787113511E+03  0.91012448147E+02 0.  0.
          5    1    1    2  502    0  0.44617676736E+02 -0.68530012125E+02 -0.13648893975E+04  0.13673432778E+04  0.41800000000E+01 0.  1.
         -5    1    1    2    0  502  0.30062927856E+02  0.28364040084E+02 -0.17146166097E+03  0.17642242483E+03  0.41800000000E+01 0.  1.
        -11    1    3    3    0    0 -0.10766784507E+02  0.32099898350E+02  0.44561557330E+01  0.34149442845E+02  0.00000000000E+00 0.  1.
         11    1    3    3    0    0 -0.63913820086E+02  0.80660736907E+01 -0.11718128280E+03  0.13372169226E+03  0.00000000000E+00 0. -1.
</event>
<event>
 7    1  0.6988825E-006  0.7393824E+02  0.7561462E-02  0.1347191E+00
          1   -1    0    0  501    0  0.00000000000E+00  0.00000000000E+00  0.14592912512E+03  0.14592912512E+03  0.00000000000E+00 0. -1.
         -1   -1    0    0    0  501 -0.00000000000E+00 -0.00000000000E+00 -0.11945796758E+03  0.11945796758E+03  0.00000000000E+00 0.  1.
         23    2    1    2    0    0  0.44389528527E+02 -0.44599931427E+01 -0.49005057558E+02  0.11263079869E+03  0.91070738255E+02 0.  0.
          5    1    1    2  502    0 -0.47770990087E+02  0.16219205455E+02  0.10717117449E+03  0.11852536928E+03  0.41800000000E+01 0. -1.
         -5    1    1    2    0  502  0.33814615597E+01 -0.11759212312E+02 -0.31694959402E+02  0.34230924732E+02  0.41800000000E+01 0. -1.
        -11    1    3    3    0    0 -0.71917788142E+01  0.24248158586E+02 -0.47225537559E+02  0.53571879518E+02  0.00000000000E+00 0.  1.
         11    1    3    3    0    0  0.51581307341E+02 -0.28708151729E+02 -0.17795199991E+01  0.59058919175E+02  0.00000000000E+00 0. -1.
</event>
<event>
 7    1  0.6988825E-006  0.1007260E+03  0.7561462E-02  0.1278777E+00
         -1   -1    0    0    0  501 -0.00000000000E+00  0.00000000000E+00  0.36945392540E+03  0.36945392540E+03  0.00000000000E+00 0.  1.
          1   -1    0    0  501    0  0.00000000000E+00 -0.00000000000E+00 -0.32528232147E+02  0.32528232147E+02  0.00000000000E+00 0. -1.
         23    2    1    2    0    0 -0.22852281282E+02  0.45246737000E+01  0.13764266732E+03  0.16554401163E+03  0.88975370115E+02 0.  0.
          5    1    1    2  502    0 -0.12346930825E+01  0.58478881087E+02  0.77826442511E+02  0.97446044323E+02  0.41800000000E+01 0. -1.
         -5    1    1    2    0  502  0.24086974364E+02 -0.63003554787E+02  0.12145658342E+03  0.13899210160E+03  0.41800000000E+01 0. -1.
        -11    1    3    3    0    0 -0.39185353296E+02  0.26898617034E+02  0.34458660567E+02  0.58706275639E+02  0.00000000000E+00 0. -1.
         11    1    3    3    0    0  0.16333072015E+02 -0.22373943334E+02  0.10318400675E+03  0.10683773599E+03  0.00000000000E+00 0.  1.
</event>
<event>
 7    1  0.6988825E-006  0.2657912E+03  0.7561462E-02  0.1103713E+00
         -2   -1    0    0    0  501 -0.00000000000E+00  0.00000000000E+00  0.17189839571E+03  0.17189839571E+03  0.00000000000E+00 0.  1.
          2   -1    0    0  501    0  0.00000000000E+00 -0.00000000000E+00 -0.46072042691E+03  0.46072042691E+03  0.00000000000E+00 0. -1.
         23    2    1    2    0    0  0.97312707740E+02  0.24058016853E+03 -0.13712428581E+03  0.30703043849E+03  0.90089066051E+02 0.  0.
          5    1    1    2  502    0  0.73319708956E+01 -0.38298475170E+00  0.13427523852E+02  0.15864276578E+02  0.41800000000E+01 0.  1.
         -5    1    1    2    0  502 -0.10464467864E+03 -0.24019718378E+03 -0.16512526924E+03  0.30972410756E+03  0.41800000000E+01 0.  1.
        -11    1    3    3    0    0  0.24836730200E+02  0.98720405795E+02 -0.82569747535E+01  0.10213108890E+03  0.00000000000E+00 0.  1.
         11    1    3    3    0    0  0.72475977540E+02  0.14185976273E+03 -0.12886731106E+03  0.20489934959E+03  0.00000000000E+00 0. -1.
</event>
<event>
 7    1  0.6988825E-006  0.1383561E+03  0.7561462E-02  0.1215558E+00
         -2   -1    0    0    0  501 -0.00000000000E+00  0.00000000000E+00  0.19457141072E+02  0.19457141072E+02  0.00000000000E+00 0.  1.
          2   -1    0    0  501    0  0.00000000000E+00 -0.00000000000E+00 -0.12028903245E+04  0.12028903245E+04  0.00000000000E+00 0. -1.
         23    2    1    2    0    0  0.10379175449E+03  0.94678974388E+01 -0.39626904166E+03  0.41935972051E+03  0.89280750560E+02 0.  0.
          5    1    1    2  502    0 -0.12081552823E+03  0.21158136145E+01 -0.75465963300E+03  0.76428365323E+03  0.41800000000E+01 0. -1.
         -5    1    1    2    0  502  0.17023773736E+02 -0.11583711053E+02 -0.32504508760E+02  0.38704091822E+02  0.41800000000E+01 0.  1.
        -11    1    3    3    0    0  0.71290351747E+02 -0.35237513648E+02 -0.27127110592E+03  0.28268712303E+03  0.00000000000E+00 0.  1.
         11    1    3    3    0    0  0.32501402744E+02  0.44705411087E+02 -0.12499793574E+03  0.13667259747E+03  0.00000000000E+00 0. -1.
</event>
<event>
 7    1  0.6988825E-006  0.1455040E+03  0.7561462E-02  0.1206109E+00
         -2   -1    0    0    0  501 -0.00000000000E+00  0.00000000000E+00  0.53821472702E+02  0.53821472702E+02  0.00000000000E+00 0. -1.
          2   -1    0    0  501    0  0.00000000000E+00 -0.00000000000E+00 -0.55442655004E+03  0.55442655004E+03  0.00000000000E+00 0.  1.
         23    2    1    2    0    0 -0.11440207306E+03  0.10319805820E+02 -0.10977330752E+03  0.18211188431E+03  0.88995655244E+02 0.  0.
          5    1    1    2  502    0  0.13998301915E+03 -0.15463616220E+02 -0.35213921475E+03  0.37928072459E+03  0.41800000000E+01 0.  1.
         -5    1    1    2    0  502 -0.25580946098E+02  0.51438104004E+01 -0.38692555066E+02  0.46855413841E+02  0.41800000000E+01 0.  1.
        -11    1    3    3    0    0 -0.10736092796E+03 -0.43124054636E+01 -0.12141526774E+03  0.16213152973E+03  0.00000000000E+00 0.  1.
         11    1    3    3    0    0 -0.70411450980E+01  0.14632211283E+02  0.11641960221E+02  0.19980354579E+02  0.00000000000E+00 0. -1.
</event>
<event>
 7    1  0.6988825E-006  0.7817775E+02  0.7561462E-02  0.1334304E+00
          1   -1    0    0  501    0  0.00000000000E+00  0.00000000000E+00  0.41986021150E+03  0.41986021150E+03  0.00000000000E+00 0. -1.
         -1   -1    0    0    0  501 -0.00000000000E+00 -0.00000000000E+00 -0.36368924549E+02  0.36368924549E+02  0.00000000000E+00 0.  1.
         23    2    1    2    0    0 -0.47037442313E+01  0.38585050731E+02  0.78993732224E+02  0.12475378126E+03  0.88388714546E+02 0.  0.
          5    1    1    2  502    0 -0.19538013093E+02 -0.43887146896E+02  0.32123729749E+02  0.57941539773E+02  0.41800000000E+01 0. -1.
         -5    1    1    2    0  502  0.24241757324E+02  0.53020961648E+01  0.27237382498E+03  0.27353381501E+03  0.41800000000E+01 0. -1.
        -11    1    3    3    0    0  0.26858750413E+02 -0.67837118369E+01  0.60387148150E+02  0.66438083068E+02  0.00000000000E+00 0. -1.
         11    1    3    3    0    0 -0.31562494644E+02  0.45368762568E+02  0.18606584074E+02  0.58315698196E+02  0.00000000000E+00 0.  1.
</event>
<event>
 7    1  0.6988825E-006  0.1997200E+03  0.7561462E-02  0.1149975E+00
         -2   -1    0    0    0  501 -0.00000000000E+00  0.00000000000E+00  0.29382855208E+03  0.29382855208E+03  0.00000000000E+00 0.  1.
          2   -1    0    0  501    0  0.00000000000E+00 -0.00000000000E+00 -0.38074939590E+03  0.38074939590E+03  0.00000000000E+00 0. -1.
         23    2    1    2    0    0 -0.99949046870E+01  0.64425119912E+02  0.13139507192E+03  0.17235861204E+03  0.90511502158E+02 0.  0.
          5    1    1    2  502    0 -0.78431772714E+02 -0.14765229601E+03 -0.30849066711E+03  0.35090840341E+03  0.41800000000E+01 0. -1.
         -5    1    1    2    0  502  0.88426677401E+02  0.83227176102E+02  0.90174751380E+02  0.15131093254E+03  0.41800000000E+01 0.  1.
        -11    1    3    3    0    0 -0.48067759395E+02  0.51592249576E+02  0.93680184766E+02  0.11725291778E+03  0.00000000000E+00 0.  1.
         11    1    3    3    0    0  0.38072854708E+02  0.12832870336E+02  0.37714887153E+02  0.55105694258E+02  0.00000000000E+00 0. -1.
</event>
<event>
 7    1  0.6988825E-006  0.1145362E+03  0.7561462E-02  0.1252393E+00
         -4   -1    0    0    0  501 -0.00000000000E+00  0.00000000000E+00  0.58918508624E+02  0.58918508624E+02  0.00000000000E+00 0.  1.
          4   -1    0    0  501    0  0.00000000000E+00 -0.00000000000E+00 -0.38040388427E+03  0.38040388427E+03  0.00000000000E+00 0. -1.
         23    2    1    2    0    0 -0.77504249229E+02 -0.36762433844E+02 -0.63881106934E+02  0.14038445253E+03  0.90931916836E+02 0.  0.
          5    1    1    2  502    0  0.81347067980E+02 -0.20032845487E+02 -0.20425966935E+03  0.22081246634E+03  0.41800000000E+01 0. -1.
         -5    1    1    2    0  502 -0.38428187513E+01  0.56795279331E+02 -0.53344599366E+02  0.78125474025E+02  0.41800000000E+01 0. -1.
        -11    1    3    3    0    0 -0.15110381276E+02  0.10639319072E+01  0.22617581295E+02  0.27221509088E+02  0.00000000000E+00 0.  1.
         11    1    3    3    0    0 -0.62393867953E+02 -0.37826365751E+02 -0.86498688229E+02  0.11316294345E+03  0.00000000000E+00 0. -1.
</event>
<event>
 7    1  0.6988825E-006  0.3410740E+03  0.7561462E-02  0.1066339E+00
         -1   -1    0    0    0  501 -0.00000000000E+00  0.00000000000E+00  0.11556855550E+03  0.11556855550E+03  0.00000000000E+00 0.  1.
          1   -1    0    0  501    0  0.00000000000E+00 -0.00000000000E+00 -0.11317443446E+04  0.11317443446E+04  0.00000000000E+00 0. -1.
         23    2    1    2    0    0 -0.30591703507E+03  0.13162530917E+03 -0.34659187216E+03  0.48909076157E+03  0.90406818594E+02 0.  0.
          5    1    1    2  502    0  0.27293365082E+03 -0.14677762138E+03 -0.64042462355E+03  0.71147566279E+03  0.41800000000E+01 0.  1.
         -5    1    1    2    0  502  0.32983384254E+02  0.15152312216E+02 -0.29159293371E+02  0.46746475720E+02  0.41800000000E+01 0.  1.
        -11    1    3    3    0    0 -0.16026843456E+03  0.46032396914E+02 -0.11553835056E+03  0.20286464239E+03  0.00000000000E+00 0. -1.
         11    1    3    3    0    0 -0.14564860052E+03  0.85592912253E+02 -0.23105352160E+03  0.28622611919E+03  0.00000000000E+00 0.  1.
</event>
<event>
 7    1  0.6988825E-006  0.9523834E+02  0.7561462E-02  0.1290640E+00
         -1   -1    0    0    0  501 -0.00000000000E+00  0.00000000000E+00  0.12290756609E+03  0.12290756609E+03  0.00000000000E+00 0.  1.
          1   -1    0    0  501    0  0.00000000000E+00 -0.00000000000E+00 -0.10899949270E+03  0.10899949270E+03  0.00000000000E+00 0. -1.
         23    2    1    2    0    0 -0.15417818894E+01  0.41237123132E+02  0.43267281511E+01  0.99837045861E+02  0.90806595213E+02 0.  0.
          5    1    1    2  502    0 -0.21026570174E+02  0.29766336077E+02  0.37442676042E+02  0.52417342606E+02  0.41800000000E+01 0. -1.
         -5    1    1    2    0  502  0.22568352063E+02 -0.71003459209E+02 -0.27861330805E+02  0.79652670318E+02  0.41800000000E+01 0. -1.
        -11    1    3    3    0    0 -0.33074691306E+02  0.32687127475E+02 -0.27666782421E+02  0.54109466428E+02  0.00000000000E+00 0. -1.
         11    1    3    3    0    0  0.31532909417E+02  0.85499956576E+01  0.31993510573E+02  0.45727579433E+02  0.00000000000E+00 0.  1.
</event>
<event>
 7    1  0.6988825E-006  0.4354928E+02  0.7561462E-02  0.1483607E+00
         -2   -1    0    0    0  501 -0.00000000000E+00  0.00000000000E+00  0.75255581024E+02  0.75255581024E+02  0.00000000000E+00 0.  1.
          2   -1    0    0  501    0  0.00000000000E+00 -0.00000000000E+00 -0.19440248838E+03  0.19440248838E+03  0.00000000000E+00 0. -1.
         23    2    1    2    0    0 -0.16933852343E+02 -0.13362999772E+02  0.14073092323E+01  0.94597190701E+02  0.92094097809E+02 0.  0.
          5    1    1    2  502    0  0.32247325797E+02  0.72939598134E+00  0.16529210562E+02  0.36484369822E+02  0.41800000000E+01 0. -1.
         -5    1    1    2    0  502 -0.15313473454E+02  0.12633603791E+02 -0.13708342715E+03  0.13857650888E+03  0.41800000000E+01 0. -1.
        -11    1    3    3    0    0 -0.22524126986E+02 -0.32867612794E+01  0.44503532065E+02  0.49987032943E+02  0.00000000000E+00 0.  1.
         11    1    3    3    0    0  0.55902746437E+01 -0.10076238493E+02 -0.43096222833E+02  0.44610157758E+02  0.00000000000E+00 0. -1.
</event>
<event>
 7    1  0.6988825E-006  0.1123971E+03  0.7561462E-02  0.1256194E+00
          1   -1    0    0  501    0  0.00000000000E+00  0.00000000000E+00  0.13787920608E+04  0.13787920608E+04  0.00000000000E+00 0. -1.
         -1   -1    0    0    0  501 -0.00000000000E+00 -0.00000000000E+00 -0.16313439244E+02  0.16313439244E+02  0.00000000000E+00 0.  1.
         23    2    1    2    0    0 -0.61210919179E+02  0.15252813920E+02  0.26026407233E+03  0.28402325444E+03  0.94617106030E+02 0.  0.
          5    1    1    2  502    0 -0.90030487710E+01 -0.39656259673E+02  0.13619197639E+03  0.14219493891E+03  0.41800000000E+01 0.  1.
         -5    1    1    2    0  502  0.70213967950E+02  0.24403445752E+02  0.96602257285E+03  0.96888730671E+03  0.41800000000E+01 0.  1.
        -11    1    3    3    0    0 -0.84293629285E+02  0.18071549880E+02  0.16743010572E+03  0.18832110119E+03  0.00000000000E+00 0.  1.
         11    1    3    3    0    0  0.23082710105E+02 -0.28187359601E+01  0.92833966613E+02  0.95702153243E+02  0.00000000000E+00 0. -1.
</event>
<event>
 7    1  0.6988825E-006  0.9842096E+02  0.7561462E-02  0.1283652E+00
          1   -1    0    0  501    0  0.00000000000E+00  0.00000000000E+00  0.89831899942E+02  0.89831899942E+02  0.00000000000E+00 0. -1.
         -1   -1    0    0    0  501 -0.00000000000E+00 -0.00000000000E+00 -0.14193166840E+03  0.14193166840E+03  0.00000000000E+00 0.  1.
         23    2    1    2    0    0  0.21142284503E+02  0.21721621570E+02 -0.34753064131E+02  0.10188961447E+03  0.90856441890E+02 0.  0.
          5    1    1    2  502    0 -0.59463930649E+02 -0.46695340868E+01 -0.48881777599E+02  0.77231238356E+02  0.41800000000E+01 0. -1.
         -5    1    1    2    0  502  0.38321646146E+02 -0.17052087483E+02  0.31535073271E+02  0.52642715517E+02  0.41800000000E+01 0. -1.
        -11    1    3    3    0    0  0.19632099594E+02 -0.33942966455E+02 -0.21213976297E+02  0.44582250914E+02  0.00000000000E+00 0.  1.
         11    1    3    3    0    0  0.15101849091E+01  0.55664588025E+02 -0.13539087834E+02  0.57307363557E+02  0.00000000000E+00 0. -1.
</event>
<event>
 7    1  0.6988825E-006  0.7638000E+02  0.7561462E-02  0.1339650E+00
          1   -1    0    0  501    0  0.00000000000E+00  0.00000000000E+00  0.28085627482E+03  0.28085627482E+03  0.00000000000E+00 0. -1.
         -1   -1    0    0    0  501 -0.00000000000E+00 -0.00000000000E+00 -0.48966309344E+02  0.48966309344E+02  0.00000000000E+00 0.  1.
         23    2    1    2    0    0 -0.89652510506E+01 -0.36814520459E+02  0.58975608665E+02  0.11306694049E+03  0.88714857673E+02 0.  0.
          5    1    1    2  502    0  0.97305452848E+01 -0.68958792511E+01  0.17237318603E+03  0.17283583056E+03  0.41800000000E+01 0. -1.
         -5    1    1    2    0  502 -0.76529423416E+00  0.43710399710E+02  0.54117077806E+00  0.43919813113E+02  0.41800000000E+01 0. -1.
        -11    1    3    3    0    0  0.54514453502E+01  0.28654457986E+02  0.21771184142E+02  0.36397536700E+02  0.00000000000E+00 0. -1.
         11    1    3    3    0    0 -0.14416696401E+02 -0.65468978445E+02  0.37204424523E+02  0.76669403792E+02  0.00000000000E+00 0.  1.
</event>
<event>
 7    1  0.6988825E-006  0.1517832E+03  0.7561462E-02  0.1198299E+00
          1   -1    0    0  501    0  0.00000000000E+00  0.00000000000E+00  0.18958703061E+03  0.18958703061E+03  0.00000000000E+00 0. -1.
         -1   -1    0    0    0  501 -0.00000000000E+00 -0.00000000000E+00 -0.15974395760E+03  0.15974395760E+03  0.00000000000E+00 0.  1.
         23    2    1    2    0    0 -0.12124588169E+03 -0.91519494392E+00 -0.47432083397E+02  0.15874837826E+03  0.90828649970E+02 0.  0.
          5    1    1    2  502    0  0.46448993810E+01 -0.41265563944E+02 -0.45189523900E+01  0.41979937930E+02  0.41800000000E+01 0.  1.
         -5    1    1    2    0  502  0.11660098231E+03  0.42180758888E+02  0.81794108797E+02  0.14860267202E+03  0.41800000000E+01 0.  1.
        -11    1    3    3    0    0 -0.47780202806E+02 -0.32511189230E+02  0.12107144336E+02  0.59046660780E+02  0.00000000000E+00 0.  1.
         11    1    3    3    0    0 -0.73465678888E+02  0.31595994286E+02 -0.59539227734E+02  0.99701717480E+02  0.00000000000E+00 0. -1.
</event>
<event>
 7    1  0.6988825E-006  0.1051360E+03  0.7561462E-02  0.1269852E+00
         -3   -1    0    0    0  501 -0.00000000000E+00  0.00000000000E+00  0.29157503002E+03  0.29157503002E+03  0.00000000000E+00 0.  1.
          3   -1    0    0  501    0  0.00000000000E+00 -0.00000000000E+00 -0.46245668120E+02  0.46245668120E+02  0.00000000000E+00 0. -1.
         23    2    1    2    0    0  0.75970223589E+01  0.57295270846E+01  0.16065147389E+03  0.18646207939E+03  0.94173609673E+02 0.  0.
          5    1    1    2  502    0  0.63525111850E+00 -0.62650963818E+02  0.65128635808E+02  0.90469654655E+02  0.41800000000E+01 0.  1.
         -5    1    1    2    0  502 -0.82322734774E+01  0.56921436733E+02  0.19549252197E+02  0.60888964089E+02  0.41800000000E+01 0.  1.
        -11    1    3    3    0    0 -0.39076145285E+02 -0.10391759513E+02  0.43824200118E+02  0.59627965855E+02  0.00000000000E+00 0.  1.
         11    1    3    3    0    0  0.46673167644E+02  0.16121286598E+02  0.11682727377E+03  0.12683411354E+03  0.00000000000E+00 0. -1.
</event>
<event>
 7    1  0.6988825E-006  0.1229210E+03  0.7561462E-02  0.1238355E+00
          2   -1    0    0  501    0  0.00000000000E+00  0.00000000000E+00  0.93950444298E+02  0.93950444298E+02  0.00000000000E+00 0. -1.
         -2   -1    0    0    0  501 -0.00000000000E+00 -0.00000000000E+00 -0.20563295922E+03  0.20563295922E+03  0.00000000000E+00 0.  1.
         23    2    1    2    0    0 -0.46208158255E+02  0.42965683719E+02 -0.11463544430E+03  0.15945381971E+03  0.91120753194E+02 0.  0.
          5    1    1    2  502    0 -0.17324602642E+02  0.33058661656E+02  0.14576959369E+02  0.40286190086E+02  0.41800000000E+01 0. -1.
         -5    1    1    2    0  502  0.63532760897E+02 -0.76024345375E+02 -0.11624029987E+02  0.99843393723E+02  0.41800000000E+01 0. -1.
        -11    1    3    3    0    0 -0.50973525979E+02  0.67243440727E+02 -0.75913035052E+02  0.11350228880E+03  0.00000000000E+00 0. -1.
         11    1    3    3    0    0  0.47653677239E+01 -0.24277757008E+02 -0.38722409252E+02  0.45951530912E+02  0.00000000000E+00 0.  1.
</event>
<event>
 7    1  0.1667501E-005  0.1812752E+03  0.7561462E-02  0.1166575E+00
         -2   -1    0    0    0  501 -0.00000000000E+00  0.00000000000E+00  0.91795313523E+02  0.91795313523E+02  0.00000000000E+00 0.  1.
          2   -1    0    0  501    0  0.00000000000E+00 -0.00000000000E+00 -0.38912197757E+03  0.38912197757E+03  0.00000000000E+00 0. -1.
         23    2    1    2    0    0  0.93164785809E+02  0.11195585211E+03 -0.73794564277E+02  0.18625160289E+03  0.89611560211E+02 0.  0.
          5    1    1    2  502    0 -0.50336896091E+02  0.18940570005E+02 -0.56126609665E+02  0.77847395670E+02  0.41800000000E+01 0. -1.
         -5    1    1    2    0  502 -0.42827889718E+02 -0.13089642212E+03 -0.16740549011E+03  0.21681829254E+03  0.41800000000E+01 0. -1.
        -11    1    3    3    0    0  0.88808510535E+02  0.37774378656E+02 -0.46047398128E+02  0.10693090339E+03  0.00000000000E+00 0.  1.
         11    1    3    3    0    0  0.43562752743E+01  0.74181473458E+02 -0.27747166149E+02  0.79320699492E+02  0.00000000000E+00 0. -1.
</event>
<event>
 7    1  0.6988825E-006  0.1134379E+03  0.7561462E-02  0.1254333E+00
          1   -1    0    0  501    0  0.00000000000E+00  0.00000000000E+00  0.60421114150E+03  0.60421114150E+03  0.00000000000E+00 0. -1.
         -1   -1    0    0    0  501 -0.00000000000E+00 -0.00000000000E+00 -0.26438016155E+02  0.26438016155E+02  0.00000000000E+00 0.  1.
         23    2    1    2    0    0 -0.83471254085E+00  0.36342165536E+02  0.12242772767E+03  0.15703859451E+03  0.91384473098E+02 0.  0.
          5    1    1    2  502    0  0.21938222128E+02 -0.78451055966E+02  0.32041297709E+03  0.33063242742E+03  0.41800000000E+01 0.  1.
         -5    1    1    2    0  502 -0.21103509588E+02  0.42108890430E+02  0.13493242059E+03  0.14297813572E+03  0.41800000000E+01 0.  1.
        -11    1    3    3    0    0 -0.27020798387E+02 -0.21498323840E+02  0.37128609204E+02  0.50703403188E+02  0.00000000000E+00 0.  1.
         11    1    3    3    0    0  0.26186085847E+02  0.57840489376E+02  0.85299118466E+02  0.10633519133E+03  0.00000000000E+00 0. -1.
</event>
<event>
 7    1  0.6988825E-006  0.1368605E+03  0.7561462E-02  0.1217617E+00
          1   -1    0    0  501    0  0.00000000000E+00  0.00000000000E+00  0.21139241383E+03  0.21139241383E+03  0.00000000000E+00 0. -1.
         -1   -1    0    0    0  501 -0.00000000000E+00 -0.00000000000E+00 -0.13744801743E+03  0.13744801743E+03  0.00000000000E+00 0.  1.
         23    2    1    2    0    0 -0.10623756916E+03  0.79749711664E+02  0.35750937590E+02  0.16241842048E+03  0.86343361992E+02 0.  0.
          5    1    1    2  502    0  0.19265214328E+02 -0.10432311676E+02  0.67702283834E+02  0.71281507043E+02  0.41800000000E+01 0. -1.
         -5    1    1    2    0  502  0.86972354837E+02 -0.69317399988E+02 -0.29508825022E+02  0.11514050374E+03  0.41800000000E+01 0. -1.
        -11    1    3    3    0    0 -0.33567018908E+02  0.52898420159E+02  0.54130476887E+02  0.82795507980E+02  0.00000000000E+00 0. -1.
         11    1    3    3    0    0 -0.72670550257E+02  0.26851291504E+02 -0.18379539297E+02  0.79622912499E+02  0.00000000000E+00 0.  1.
</event>
<event>
 7    1  0.6988825E-006  0.8428377E+02  0.7561462E-02  0.1317316E+00
         -1   -1    0    0    0  501 -0.00000000000E+00  0.00000000000E+00  0.16465347186E+02  0.16465347186E+02  0.00000000000E+00 0.  1.
          1   -1    0    0  501    0  0.00000000000E+00 -0.00000000000E+00 -0.12464204874E+04  0.12464204874E+04  0.00000000000E+00 0. -1.
         23    2    1    2    0    0  0.10105714090E+02  0.14511183433E+02 -0.16153814567E+03  0.18702577164E+03  0.92581676632E+02 0.  0.
          5    1    1    2  502    0  0.88705900286E+01 -0.40642769558E+02 -0.12355509346E+03  0.13043717110E+03  0.41800000000E+01 0. -1.
         -5    1    1    2    0  502 -0.18976304119E+02  0.26131586125E+02 -0.94486190107E+03  0.94542289184E+03  0.41800000000E+01 0. -1.
        -11    1    3    3    0    0  0.51585271793E+02  0.85250906920E+01 -0.86308553099E+02  0.10091027587E+03  0.00000000000E+00 0.  1.
         11    1    3    3    0    0 -0.41479557703E+02  0.59860927414E+01 -0.75229592569E+02  0.86115495769E+02  0.00000000000E+00 0. -1.
</event>
<event>
 7    1  0.6988825E-006  0.1063453E+03  0.7561462E-02  0.1267492E+00
          1   -1    0    0  501    0  0.00000000000E+00  0.00000000000E+00  0.50638744773E+03  0.50638744773E+03  0.00000000000E+00 0. -1.
         -1   -1    0    0    0  501 -0.00000000000E+00 -0.00000000000E+00 -0.26338251050E+02  0.26338251050E+02  0.00000000000E+00 0.  1.
         23    2    1    2    0    0  0.17842441726E+02 -0.23382611185E+02  0.13388032472E+03  0.16347584076E+03  0.89080356599E+02 0.  0.
          5    1    1    2  502    0 -0.56512556187E+02  0.51703741828E+02  0.16774644173E+03  0.18445402419E+03  0.41800000000E+01 0. -1.
         -5    1    1    2    0  502  0.38670114461E+02 -0.28321130642E+02  0.17842243023E+03  0.18479583384E+03  0.41800000000E+01 0. -1.
        -11    1    3    3    0    0 -0.30974575423E+02  0.50345842249E+01  0.22573623579E+02  0.38656692078E+02  0.00000000000E+00 0.  1.
         11    1    3    3    0    0  0.48817017149E+02 -0.28417195410E+02  0.11130670114E+03  0.12481914868E+03  0.00000000000E+00 0. -1.
</event>
<event>
 7    1  0.6988825E-006  0.1271838E+03  0.7561462E-02  0.1231695E+00
         -2   -1    0    0    0  501 -0.00000000000E+00  0.00000000000E+00  0.17356861957E+02  0.17356861957E+02  0.00000000000E+00 0.  1.
          2   -1    0    0  501    0  0.00000000000E+00 -0.00000000000E+00 -0.95106996539E+03  0.95106996539E+03  0.00000000000E+00 0. -1.
         23    2    1    2    0    0 -0.68330205762E+02 -0.35152063090E+01 -0.38946668525E+03  0.40581320337E+03  0.91206816706E+02 0.  0.
          5    1    1    2  502    0 -0.36893042740E+02  0.13088218103E+01 -0.15142101362E+03  0.15591217202E+03  0.41800000000E+01 0.  1.
         -5    1    1    2    0  502  0.10522324850E+03  0.22063844987E+01 -0.39282540456E+03  0.40670145196E+03  0.41800000000E+01 0.  1.
        -11    1    3    3    0    0  0.16081328979E+02  0.18637184405E+02 -0.57098022900E+02  0.62178275976E+02  0.00000000000E+00 0. -1.
         11    1    3    3    0    0 -0.84411534741E+02 -0.22152390714E+02 -0.33236866235E+03  0.34363492739E+03  0.00000000000E+00 0.  1.
</event>
<event>
 7    1  0.6988825E-006  0.9936732E+02  0.7561462E-02  0.1281632E+00
          1   -1    0    0  501    0  0.00000000000E+00  0.00000000000E+00  0.53860427482E+03  0.53860427482E+03  0.00000000000E+00 0. -1.
         -1   -1    0    0    0  501 -0.00000000000E+00 -0.00000000000E+00 -0.34184671486E+02  0.34184671486E+02  0.00000000000E+00 0.  1.
         23    2    1    2    0    0  0.30842934146E+02 -0.47781410193E+01  0.66439626441E+02  0.11622681519E+03  0.90112881374E+02 0.  0.
          5    1    1    2  502    0 -0.29277138078E+02  0.50011141873E+02  0.37158217558E+03  0.37609712939E+03  0.41800000000E+01 0. -1.
         -5    1    1    2    0  502 -0.15657960684E+01 -0.45233000853E+02  0.66397801310E+02  0.80465001724E+02  0.41800000000E+01 0. -1.
        -11    1    3    3    0    0 -0.60474377890E+01 -0.42201000704E+02  0.26183583412E+02  0.50030750589E+02  0.00000000000E+00 0. -1.
         11    1    3    3    0    0  0.36890371935E+02  0.37422859685E+02  0.40256043029E+02  0.66196064602E+02  0.00000000000E+00 0.  1.
</event>
<event>
 7    1  0.6988825E-006  0.1135444E+03  0.7561462E-02  0.1254144E+00
          3   -1    0    0  501    0  0.00000000000E+00  0.00000000000E+00  0.41728715460E+03  0.41728715460E+03  0.00000000000E+00 0. -1.
         -3   -1    0    0    0  501 -0.00000000000E+00 -0.00000000000E+00 -0.40272322715E+02  0.40272322715E+02  0.00000000000E+00 0.  1.
         23    2    1    2    0    0 -0.59529830453E+02 -0.11391646070E+02  0.10126854320E+03  0.14875985118E+03  0.90557192804E+02 0.  0.
          5    1    1    2  502    0  0.86115930711E+02  0.26479506008E+02  0.12048953270E+03  0.15050686912E+03  0.41800000000E+01 0.  1.
         -5    1    1    2    0  502 -0.26586100258E+02 -0.15087859938E+02  0.15525675599E+03  0.15829275701E+03  0.41800000000E+01 0.  1.
        -11    1    3    3    0    0 -0.28152970573E+02  0.38142808680E+02  0.62584570711E+02  0.78513005911E+02  0.00000000000E+00 0.  1.
         11    1    3    3    0    0 -0.31376859881E+02 -0.49534454750E+02  0.38683972486E+02  0.70246845271E+02  0.00000000000E+00 0. -1.
</event>
<event>
 7    1  0.6988825E-006  0.1054177E+03  0.7561462E-02  0.1269299E+00
         -2   -1    0    0    0  501 -0.00000000000E+00  0.00000000000E+00  0.14950352991E+02  0.14950352991E+02  0.00000000000E+00 0.  1.
          2   -1    0    0  501    0  0.00000000000E+00 -0.00000000000E+00 -0.94071387204E+03  0.94071387204E+03  0.00000000000E+00 0. -1.
         23    2    1    2    0    0  0.55927291003E+01  0.21942754685E+02 -0.22697210181E+03  0.24539934453E+03  0.90508232741E+02 0.  0.
          5    1    1    2  502    0  0.19001392029E+02 -0.70011894923E+02 -0.42529000084E+03  0.43145309774E+03  0.41800000000E+01 0. -1.
         -5    1    1    2    0  502 -0.24594121129E+02  0.48069140239E+02 -0.27350141640E+03  0.27881178277E+03  0.41800000000E+01 0. -1.
        -11    1    3    3    0    0  0.22733951759E+02  0.47834387667E+02 -0.85617149306E+02  0.10067401582E+03  0.00000000000E+00 0.  1.
         11    1    3    3    0    0 -0.17141222659E+02 -0.25891632983E+02 -0.14135495250E+03  0.14472532871E+03  0.00000000000E+00 0. -1.
</event>
<event>
 7    1  0.6988825E-006  0.1087598E+03  0.7561462E-02  0.1262884E+00
         -1   -1    0    0    0  501 -0.00000000000E+00  0.00000000000E+00  0.33511316527E+02  0.33511316527E+02  0.00000000000E+00 0.  1.
          1   -1    0    0  501    0  0.00000000000E+00 -0.00000000000E+00 -0.50471175183E+03  0.50471175183E+03  0.00000000000E+00 0. -1.
         23    2    1    2    0    0 -0.33665640024E+02 -0.25001134106E+02 -0.90548389169E+02  0.13535597495E+03  0.91453797891E+02 0.  0.
          5    1    1    2  502    0 -0.15277502139E+01 -0.45036352926E+02 -0.21292986970E+03  0.21768603289E+03  0.41800000000E+01 0.  1.
         -5    1    1    2    0  502  0.35193390238E+02  0.70037487032E+02 -0.16772217643E+03  0.18518106051E+03  0.41800000000E+01 0.  1.
        -11    1    3    3    0    0 -0.47126972688E+02 -0.47906975436E+02 -0.39878392909E+02  0.78142920800E+02  0.00000000000E+00 0.  1.
         11    1    3    3    0    0  0.13461332664E+02  0.22905841330E+02 -0.50669996261E+02  0.57213054150E+02  0.00000000000E+00 0. -1.
</event>
<event>
 7    1  0.9536570E-006  0.1135463E+03  0.7561462E-02  0.1254140E+00
         -2   -1    0    0    0  501 -0.00000000000E+00  0.00000000000E+00  0.64495257441E+02  0.64495257441E+02  0.00000000000E+00 0.  1.
          2   -1    0    0  501    0  0.00000000000E+00 -0.00000000000E+00 -0.28923233861E+03  0.28923233861E+03  0.00000000000E+00 0. -1.
         23    2    1    2    0    0 -0.70786034544E+02  0.24742363416E+02 -0.23327022912E+02  0.10505849924E+03  0.69787470444E+02 0.  0.
          5    1    1    2  502    0 -0.36291987613E+02 -0.58007340767E+01 -0.53421385933E+02  0.64977486529E+02  0.41800000000E+01 0. -1.
         -5    1    1    2    0  502  0.10707802216E+03 -0.18941629339E+02 -0.14798867232E+03  0.18369161028E+03  0.41800000000E+01 0. -1.
        -11    1    3    3    0    0 -0.30265195524E+01  0.11947936623E+02  0.20091641835E+02  0.23570894802E+02  0.00000000000E+00 0.  1.
         11    1    3    3    0    0 -0.67759514992E+02  0.12794426793E+02 -0.43418664746E+02  0.81487604439E+02  0.00000000000E+00 0. -1.
</event>
<event>
 7    1  0.6988825E-006  0.1735157E+03  0.7561462E-02  0.1174230E+00
          2   -1    0    0  501    0  0.00000000000E+00  0.00000000000E+00  0.48222467969E+03  0.48222467969E+03  0.00000000000E+00 0. -1.
         -2   -1    0    0    0  501 -0.00000000000E+00 -0.00000000000E+00 -0.69997391111E+02  0.69997391111E+02  0.00000000000E+00 0.  1.
         23    2    1    2    0    0 -0.29176802110E+02 -0.14527354382E+03  0.19580773118E+03  0.26163287390E+03  0.90307279893E+02 0.  0.
          5    1    1    2  502    0 -0.30698255727E+02  0.12266078375E+03  0.16757574586E+03  0.20996941152E+03  0.41800000000E+01 0.  1.
         -5    1    1    2    0  502  0.59875057837E+02  0.22612760070E+02  0.48843811546E+02  0.80619785383E+02  0.41800000000E+01 0.  1.
        -11    1    3    3    0    0 -0.24011799206E+02 -0.20711316763E+02  0.98515249013E+02  0.10349289556E+03  0.00000000000E+00 0. -1.
         11    1    3    3    0    0 -0.51650029040E+01 -0.12456222705E+03  0.97292482162E+02  0.15813997834E+03  0.00000000000E+00 0.  1.
</event>
<event>
 7    1  0.6988825E-006  0.1951140E+03  0.7561462E-02  0.1153928E+00
          2   -1    0    0  501    0  0.00000000000E+00  0.00000000000E+00  0.76512289192E+03  0.76512289192E+03  0.00000000000E+00 0. -1.
         -2   -1    0    0    0  501 -0.00000000000E+00 -0.00000000000E+00 -0.76844530033E+02  0.76844530033E+02  0.00000000000E+00 0.  1.
         23    2    1    2    0    0  0.14501901912E+03  0.74144387137E+02  0.10141500267E+03  0.21230762042E+03  0.90893436909E+02 0.  0.
          5    1    1    2  502    0 -0.16763136234E+03 -0.48168929899E+02  0.35874380721E+03  0.39891742387E+03  0.41800000000E+01 0. -1.
         -5    1    1    2    0  502  0.22612343226E+02 -0.25975457238E+02  0.22811955200E+03  0.23074237766E+03  0.41800000000E+01 0.  1.
        -11    1    3    3    0    0  0.14167293861E+03  0.40621002451E+02  0.10090389198E+03  0.17861378108E+03  0.00000000000E+00 0.  1.
         11    1    3    3    0    0  0.33460805080E+01  0.33523384686E+02  0.51111068878E+00  0.33693839344E+02  0.00000000000E+00 0. -1.
</event>
<event>
 7    1  0.6988825E-006  0.1074853E+03  0.7561462E-02  0.1265299E+00
          2   -1    0    0  501    0  0.00000000000E+00  0.00000000000E+00  0.57846013442E+03  0.57846013442E+03  0.00000000000E+00 0. -1.
         -2   -1    0    0    0  501 -0.00000000000E+00 -0.00000000000E+00 -0.32640352264E+02  0.32640352264E+02  0.00000000000E+00 0.  1.
         23    2    1    2    0    0  0.20425327189E+02  0.29368896500E+02  0.70759962334E+02  0.11812585277E+03  0.87561514090E+02 0.  0.
          5    1    1    2  502    0 -0.65445535330E+01 -0.74323373996E+02  0.37438378461E+03  0.38176889040E+03  0.41800000000E+01 0. -1.
         -5    1    1    2    0  502 -0.13880773656E+02  0.44954477496E+02  0.10067603522E+03  0.11120574352E+03  0.41800000000E+01 0.  1.
        -11    1    3    3    0    0 -0.29825837396E+02  0.30615326383E+02  0.21900833895E+02  0.48026298121E+02  0.00000000000E+00 0.  1.
         11    1    3    3    0    0  0.50251164585E+02 -0.12464298832E+01  0.48859128440E+02  0.70099554645E+02  0.00000000000E+00 0. -1.
</event>
<event>
 7    1  0.6988825E-006  0.4258242E+02  0.7561462E-02  0.1490024E+00
          2   -1    0    0  501    0  0.00000000000E+00  0.00000000000E+00  0.17602828439E+03  0.17602828439E+03  0.00000000000E+00 0. -1.
         -2   -1    0    0    0  501 -0.00000000000E+00 -0.00000000000E+00 -0.97846729806E+02  0.97846729806E+02  0.00000000000E+00 0.  1.
         23    2    1    2    0    0 -0.68638440372E+01  0.36493151168E+02 -0.32594981266E+02  0.10270998986E+03  0.90044693214E+02 0.  0.
          5    1    1    2  502    0 -0.23253911986E+01 -0.96927794934E+01 -0.27712519010E+02  0.29745815309E+02  0.41800000000E+01 0. -1.
         -5    1    1    2    0  502  0.91892352358E+01 -0.26800371675E+02  0.13848905486E+03  0.14141920903E+03  0.41800000000E+01 0. -1.
        -11    1    3    3    0    0 -0.17182065387E+02  0.21634280028E+02 -0.62175048831E+02  0.68036770503E+02  0.00000000000E+00 0.  1.
         11    1    3    3    0    0  0.10318221350E+02  0.14858871140E+02  0.29580067565E+02  0.34673219357E+02  0.00000000000E+00 0. -1.
</event>
<event>
 7    1  0.6988825E-006  0.1331154E+03  0.7561462E-02  0.1222905E+00
         -2   -1    0    0    0  501 -0.00000000000E+00  0.00000000000E+00  0.16327865381E+03  0.16327865381E+03  0.00000000000E+00 0.  1.
          2   -1    0    0  501    0  0.00000000000E+00 -0.00000000000E+00 -0.14917861831E+03  0.14917861831E+03  0.00000000000E+00 0. -1.
         23    2    1    2    0    0  0.32588203265E+02 -0.82351778944E+02  0.75846284605E+02  0.14722017154E+03  0.89873875692E+02 0.  0.
          5    1    1    2  502    0 -0.50312642901E+02  0.10223796603E+03 -0.20338340938E+02  0.11582350472E+03  0.41800000000E+01 0. -1.
         -5    1    1    2    0  502  0.17724439637E+02 -0.19886187083E+02 -0.41407908170E+02  0.49413595863E+02  0.41800000000E+01 0. -1.
        -11    1    3    3    0    0  0.34768698638E+02  0.73308970254E+01  0.29846360649E+02  0.46404845654E+02  0.00000000000E+00 0. -1.
         11    1    3    3    0    0 -0.21804953735E+01 -0.89682675969E+02  0.45999923957E+02  0.10081532588E+03  0.00000000000E+00 0.  1.
</event>
<event>
 7    1  0.6988825E-006  0.1353100E+03  0.7561462E-02  0.1219783E+00
         -3   -1    0    0    0  501 -0.00000000000E+00  0.00000000000E+00  0.10572476647E+04  0.10572476647E+04  0.00000000000E+00 0.  1.
          3   -1    0    0  501    0  0.00000000000E+00 -0.00000000000E+00 -0.26298740212E+02  0.26298740212E+02  0.00000000000E+00 0. -1.
         23    2    1    2    0    0 -0.11399738735E+03 -0.34852707330E+02  0.61907160980E+03  0.63691376867E+03  0.90550401057E+02 0.  0.
          5    1    1    2  502    0  0.58804706771E+02  0.35316932955E+02  0.37229229699E+03  0.37858196747E+03  0.41800000000E+01 0. -1.
         -5    1    1    2    0  502  0.55192680584E+02 -0.46422562495E+00  0.39585017714E+02  0.68050668791E+02  0.41800000000E+01 0. -1.
        -11    1    3    3    0    0 -0.52773973855E+02 -0.60397966375E+02  0.40234111354E+03  0.41025769743E+03  0.00000000000E+00 0.  1.
         11    1    3    3    0    0 -0.61223413499E+02  0.25545259045E+02  0.21673049626E+03  0.22665607123E+03  0.00000000000E+00 0. -1.
</event>
<event>
 7    1  0.6988825E-006  0.1457635E+03  0.7561462E-02  0.1205778E+00
          2   -1    0    0  501    0  0.00000000000E+00  0.00000000000E+00  0.87270022039E+02  0.87270022039E+02  0.00000000000E+00 0.  1.
         -2   -1    0    0    0  501 -0.00000000000E+00 -0.00000000000E+00 -0.30087849600E+03  0.30087849600E+03  0.00000000000E+00 0. -1.
         23    2    1    2    0    0 -0.29210189235E+02  0.11026788057E+03 -0.13846218040E+03  0.20292476139E+03  0.94839035969E+02 0.  0.
          5    1    1    2  502    0  0.28093890428E+02 -0.12858209446E+03 -0.91452449598E+02  0.16032356231E+03  0.41800000000E+01 0.  1.
         -5    1    1    2    0  502  0.11162988070E+01  0.18314213881E+02  0.16306156040E+02  0.24900194335E+02  0.41800000000E+01 0.  1.
        -11    1    3    3    0    0 -0.42355927053E+02  0.15117838631E+02 -0.17016037203E+02  0.48084499826E+02  0.00000000000E+00 0.  1.
         11    1    3    3    0    0  0.13145737818E+02  0.95150041943E+02 -0.12144614320E+03  0.15484026157E+03  0.00000000000E+00 0. -1.
</event>
<event>
 7    1  0.6988825E-006  0.8799215E+02  0.7561462E-02  0.1307788E+00
         -4   -1    0    0    0  501 -0.00000000000E+00  0.00000000000E+00  0.94598707944E+02  0.94598707944E+02  0.00000000000E+00 0.  1.
          4   -1    0    0  501    0  0.00000000000E+00 -0.00000000000E+00 -0.17290542232E+03  0.17290542232E+03  0.00000000000E+00 0. -1.
         23    2    1    2    0    0 -0.29375810708E+02 -0.30832406372E+02  0.16971386061E+02  0.10459596274E+03  0.94014424099E+02 0.  0.
          5    1    1    2  502    0  0.81859082667E+01 -0.17600327246E+02  0.24724494712E+02  0.31710465971E+02  0.41800000000E+01 0. -1.
         -5    1    1    2    0  502  0.21189902442E+02  0.48432733618E+02 -0.12000259515E+03  0.13119770156E+03  0.41800000000E+01 0. -1.
        -11    1    3    3    0    0 -0.37761352314E+02  0.25873849277E+02  0.99548039533E+01  0.46845212420E+02  0.00000000000E+00 0.  1.
         11    1    3    3    0    0  0.83855416054E+01 -0.56706255648E+02  0.70165821082E+01  0.57750750317E+02  0.00000000000E+00 0. -1.
</event>
<event>
 7    1  0.6988825E-006  0.9915750E+02  0.7561462E-02  0.1282078E+00
          2   -1    0    0  501    0  0.00000000000E+00  0.00000000000E+00  0.77444937909E+02  0.77444937909E+02  0.00000000000E+00 0.  1.
         -2   -1    0    0    0  501 -0.00000000000E+00 -0.00000000000E+00 -0.18297829935E+03  0.18297829935E+03  0.00000000000E+00 0. -1.
         23    2    1    2    0    0 -0.53207307034E+01  0.25732526284E+02 -0.84489348695E+02  0.13088240126E+03  0.96443143002E+02 0.  0.
          5    1    1    2  502    0 -0.22937842009E+02 -0.69242054020E+02  0.86853091546E+00  0.73067320923E+02  0.41800000000E+01 0.  1.
         -5    1    1    2    0  502  0.28258572713E+02  0.43509527736E+02 -0.21912543662E+02  0.56473515078E+02  0.41800000000E+01 0.  1.
        -11    1    3    3    0    0 -0.36753394883E+02  0.17522220850E+02 -0.38149696617E+00  0.40718371761E+02  0.00000000000E+00 0.  1.
         11    1    3    3    0    0  0.31432664179E+02  0.82103054337E+01 -0.84107851729E+02  0.90164029497E+02  0.00000000000E+00 0. -1.
</event>
<event>
 7    1  0.6988825E-006  0.1295572E+03  0.7561462E-02  0.1228114E+00
          1   -1    0    0  501    0  0.00000000000E+00  0.00000000000E+00  0.13270213712E+03  0.13270213712E+03  0.00000000000E+00 0. -1.
         -1   -1    0    0    0  501 -0.00000000000E+00 -0.00000000000E+00 -0.14311407717E+03  0.14311407717E+03  0.00000000000E+00 0.  1.
         23    2    1    2    0    0  0.94844177859E+01  0.77683064840E+02 -0.35300133988E+02  0.12617420726E+03  0.92461983403E+02 0.  0.
          5    1    1    2  502    0 -0.34321731214E+02 -0.10256228922E+03  0.35201552224E+01  0.10829066579E+03  0.41800000000E+01 0.  1.
         -5    1    1    2    0  502  0.24837313428E+02  0.24879224379E+02  0.21368038711E+02  0.41351341241E+02  0.41800000000E+01 0.  1.
        -11    1    3    3    0    0 -0.31924534245E+02  0.64589771753E+02 -0.31104597976E+01  0.72115805910E+02  0.00000000000E+00 0. -1.
         11    1    3    3    0    0  0.41408952031E+02  0.13093293087E+02 -0.32189674191E+02  0.54058401351E+02  0.00000000000E+00 0.  1.
</event>
<event>
 7    1  0.6988825E-006  0.8384639E+02  0.7561462E-02  0.1318477E+00
         -1   -1    0    0    0  501 -0.00000000000E+00  0.00000000000E+00  0.28818856686E+02  0.28818856686E+02  0.00000000000E+00 0.  1.
          1   -1    0    0  501    0  0.00000000000E+00 -0.00000000000E+00 -0.56513380299E+03  0.56513380299E+03  0.00000000000E+00 0. -1.
         23    2    1    2    0    0 -0.63805500519E+01  0.40840309311E+01 -0.75148554023E+02  0.11910285615E+03  0.92091228913E+02 0.  0.
          5    1    1    2  502    0  0.52450232686E+02  0.23458105606E+02 -0.27943237670E+03  0.28530901699E+03  0.41800000000E+01 0. -1.
         -5    1    1    2    0  502 -0.46069682634E+02 -0.27542136537E+02 -0.18173401558E+03  0.18954078654E+03  0.41800000000E+01 0.  1.
        -11    1    3    3    0    0  0.19023836987E+02  0.18917469296E+02  0.10295568797E+02  0.28736314223E+02  0.00000000000E+00 0. -1.
         11    1    3    3    0    0 -0.25404387038E+02 -0.14833438365E+02 -0.85444122821E+02  0.90366541923E+02  0.00000000000E+00 0.  1.
</event>
<event>
 7    1  0.6988825E-006  0.6968536E+02  0.7561462E-02  0.1361166E+00
         -2   -1    0    0    0  501 -0.00000000000E+00  0.00000000000E+00  0.27425591304E+02  0.27425591304E+02  0.00000000000E+00 0.  1.
          2   -1    0    0  501    0  0.00000000000E+00 -0.00000000000E+00 -0.47568549578E+03  0.47568549578E+03  0.00000000000E+00 0. -1.
         23    2    1    2    0    0 -0.12870795720E+02 -0.26521546677E+02 -0.22681078385E+03  0.24707168351E+03  0.93446430125E+02 0.  0.
          5    1    1    2  502    0  0.21803347916E+02  0.28651064909E+02 -0.19388674789E+01  0.36297398087E+02  0.41800000000E+01 0.  1.
         -5    1    1    2    0  502 -0.89325521955E+01 -0.21295182322E+01 -0.21951025315E+03  0.21974200548E+03  0.41800000000E+01 0.  1.
        -11    1    3    3    0    0 -0.25288003502E+02 -0.55783712597E+02 -0.10880278048E+03  0.12485732158E+03  0.00000000000E+00 0.  1.
         11    1    3    3    0    0  0.12417207781E+02  0.29262165920E+02 -0.11800800336E+03  0.12221436193E+03  0.00000000000E+00 0. -1.
</event>
<event>
 7    1  0.6988825E-006  0.1173815E+03  0.7561462E-02  0.1247480E+00
          1   -1    0    0  501    0  0.00000000000E+00  0.00000000000E+00  0.11647097108E+04  0.11647097108E+04  0.00000000000E+00 0. -1.
         -1   -1    0    0    0  501 -0.00000000000E+00 -0.00000000000E+00 -0.24195371780E+02  0.24195371780E+02  0.00000000000E+00 0.  1.
         23    2    1    2    0    0 -0.10049401744E+02 -0.70702589960E+02  0.15795874396E+03  0.19584752957E+03  0.91134205123E+02 0.  0.
          5    1    1    2  502    0 -0.31710377526E+02 -0.23243028726E+02  0.21113831884E+03  0.21480839954E+03  0.41800000000E+01 0.  1.
         -5    1    1    2    0  502  0.41759779269E+02  0.93945618686E+02  0.77141727622E+03  0.77824915348E+03  0.41800000000E+01 0.  1.
        -11    1    3    3    0    0 -0.23071426319E+02 -0.75117714804E+02  0.16319938020E+03  0.18113254674E+03  0.00000000000E+00 0. -1.
         11    1    3    3    0    0  0.13022024575E+02  0.44151248448E+01 -0.52406362449E+01  0.14714982830E+02  0.00000000000E+00 0.  1.
</event>
<event>
 7    1  0.6988825E-006  0.2519802E+03  0.7561462E-02  0.1112060E+00
          2   -1    0    0  501    0  0.00000000000E+00  0.00000000000E+00  0.86680160968E+03  0.86680160968E+03  0.00000000000E+00 0.  1.
         -2   -1    0    0    0  501 -0.00000000000E+00 -0.00000000000E+00 -0.76081490896E+02  0.76081490896E+02  0.00000000000E+00 0. -1.
         23    2    1    2    0    0 -0.80133321637E+02  0.21841545207E+03  0.37496039476E+03  0.45030736805E+03  0.89748365684E+02 0.  0.
          5    1    1    2  502    0 -0.25134067199E+02 -0.46622064492E+02  0.41156355121E+02  0.67206072630E+02  0.41800000000E+01 0.  1.
         -5    1    1    2    0  502  0.10526738884E+03 -0.17179338757E+03  0.37460336891E+03  0.42536965990E+03  0.41800000000E+01 0.  1.
        -11    1    3    3    0    0 -0.54888631447E+01  0.14331766099E+03  0.22037445585E+03  0.26293531592E+03  0.00000000000E+00 0. -1.
         11    1    3    3    0    0 -0.74644458492E+02  0.75097791081E+02  0.15458593891E+03  0.18737205212E+03  0.00000000000E+00 0.  1.
</event>
<event>
 7    1  0.6988825E-006  0.1452645E+03  0.7561462E-02  0.1206416E+00
         -1   -1    0    0    0  501 -0.00000000000E+00  0.00000000000E+00  0.37827959010E+03  0.37827959010E+03  0.00000000000E+00 0.  1.
          1   -1    0    0  501    0  0.00000000000E+00 -0.00000000000E+00 -0.83517938640E+02  0.83517938640E+02  0.00000000000E+00 0. -1.
         23    2    1    2    0    0  0.89430076759E+02  0.42048318437E+02  0.26847044074E+03  0.30022942031E+03  0.91079786766E+02 0.  0.
          5    1    1    2  502    0 -0.12352197154E+02 -0.74132480561E+02  0.19160384396E+02  0.77671063974E+02  0.41800000000E+01 0. -1.
         -5    1    1    2    0  502 -0.77077879605E+02  0.32084162124E+02  0.71308263216E+01  0.83897044451E+02  0.41800000000E+01 0. -1.
        -11    1    3    3    0    0  0.74771002875E+02 -0.11943174250E+02  0.12382185807E+03  0.14513853664E+03  0.00000000000E+00 0.  1.
         11    1    3    3    0    0  0.14659073884E+02  0.53991492687E+02  0.14464858267E+03  0.15509088368E+03  0.00000000000E+00 0. -1.
</event>
<event>
 7    1  0.6988825E-006  0.2595949E+03  0.7561462E-02  0.1107387E+00
          1   -1    0    0  501    0  0.00000000000E+00  0.00000000000E+00  0.22318690695E+03  0.22318690695E+03  0.00000000000E+00 0. -1.
         -1   -1    0    0    0  501 -0.00000000000E+00 -0.00000000000E+00 -0.33571517389E+03  0.33571517389E+03  0.00000000000E+00 0.  1.
         23    2    1    2    0    0  0.20519163125E+03 -0.12736657127E+03 -0.12503121945E+03  0.28663387222E+03  0.90555628518E+02 0.  0.
          5    1    1    2  502    0 -0.77918057404E+01  0.47638585962E+02 -0.27348155966E+02  0.55637587509E+02  0.41800000000E+01 0. -1.
         -5    1    1    2    0  502 -0.19739982551E+03  0.79727985306E+02  0.39851108469E+02  0.21663062110E+03  0.41800000000E+01 0. -1.
        -11    1    3    3    0    0  0.38683387955E+02  0.12176671210E+02 -0.22928514816E+02  0.46587472749E+02  0.00000000000E+00 0.  1.
         11    1    3    3    0    0  0.16650824330E+03 -0.13954324248E+03 -0.10210270463E+03  0.24004639947E+03  0.00000000000E+00 0. -1.
</event>
<event>
 7    1  0.6988825E-006  0.1460914E+03  0.7561462E-02  0.1205360E+00
         -2   -1    0    0    0  501 -0.00000000000E+00  0.00000000000E+00  0.68374121927E+03  0.68374121927E+03  0.00000000000E+00 0.  1.
          2   -1    0    0  501    0  0.00000000000E+00 -0.00000000000E+00 -0.42126812909E+02  0.42126812909E+02  0.00000000000E+00 0. -1.
         23    2    1    2    0    0 -0.30524246049E+02 -0.12591963075E+03  0.29454431270E+03  0.33484817920E+03  0.92625417499E+02 0.  0.
          5    1    1    2  502    0 -0.13047415128E+02 -0.11771760256E+02  0.36274281735E+01  0.18423897964E+02  0.41800000000E+01 0. -1.
         -5    1    1    2    0  502  0.43571661177E+02  0.13769139100E+03  0.34344266549E+03  0.37259595501E+03  0.41800000000E+01 0. -1.
        -11    1    3    3    0    0 -0.19255369897E+02 -0.87863066197E+02  0.27739110570E+03  0.29161020763E+03  0.00000000000E+00 0.  1.
         11    1    3    3    0    0 -0.11268876152E+02 -0.38056564552E+02  0.17153206993E+02  0.43237971569E+02  0.00000000000E+00 0. -1.
</event>
<event>
 6    1  0.6988825E-006  0.1191062E+03  0.7561462E-02  0.1244579E+00
          3   -1    0    0  501    0  0.00000000000E+00  0.00000000000E+00  0.48867099555E+03  0.48867099555E+03  0.00000000000E+00 0. -1.
         -3   -1    0    0    0  501 -0.00000000000E+00 -0.00000000000E+00 -0.42448285211E+02  0.42448285211E+02  0.00000000000E+00 0.  1.
          5    1    1    2  502    0 -0.31004830533E+02  0.51857266865E+02  0.81683632861E+02  0.10168659656E+03  0.41800000000E+01 0.  1.
         -5    1    1    2    0  502 -0.31793264940E+02 -0.74579456022E+02  0.11737575132E+03  0.14271456252E+03  0.41800000000E+01 0.  1.
        -11    1    1    2    0    0 -0.24389978272E+01 -0.18917645988E+02 -0.75442511256E+01  0.20511990766E+02  0.00000000000E+00 0.  1.
         11    1    1    2    0    0  0.65237093300E+02  0.41639835145E+02  0.25470757728E+03  0.26620613092E+03  0.00000000000E+00 0. -1.
</event>
<event>
 7    1  0.6988825E-006  0.1321565E+03  0.7561462E-02  0.1224291E+00
          1   -1    0    0  501    0  0.00000000000E+00  0.00000000000E+00  0.97036967540E+03  0.97036967540E+03  0.00000000000E+00 0. -1.
         -1   -1    0    0    0  501 -0.00000000000E+00 -0.00000000000E+00 -0.25911751610E+02  0.25911751610E+02  0.00000000000E+00 0.  1.
         23    2    1    2    0    0  0.10683596713E+03  0.35104502504E+02  0.34044180846E+03  0.36928044203E+03  0.88437378712E+02 0.  0.
          5    1    1    2  502    0 -0.24275521652E+02 -0.31142363567E+02  0.45347736720E+03  0.45521241495E+03  0.41800000000E+01 0. -1.
         -5    1    1    2    0  502 -0.82560445481E+02 -0.39621389375E+01  0.15053874813E+03  0.17178857002E+03  0.41800000000E+01 0. -1.
        -11    1    3    3    0    0  0.11139530034E+03  0.51166797837E+01  0.24618137365E+03  0.27025980478E+03  0.00000000000E+00 0. -1.
         11    1    3    3    0    0 -0.45593332105E+01  0.29987822720E+02  0.94260434812E+02  0.99020637252E+02  0.00000000000E+00 0.  1.
</event>
<event>
 7    1  0.6988825E-006  0.1751499E+03  0.7561462E-02  0.1172581E+00
          1   -1    0    0  501    0  0.00000000000E+00  0.00000000000E+00  0.10597143636E+04  0.10597143636E+04  0.00000000000E+00 0. -1.
         -1   -1    0    0    0  501 -0.00000000000E+00 -0.00000000000E+00 -0.54052732191E+02  0.54052732191E+02  0.00000000000E+00 0.  1.
         23    2    1    2    0    0 -0.12485612191E+02  0.14856312429E+03  0.13342962091E+03  0.22008812973E+03  0.91697484705E+02 0.  0.
          5    1    1    2  502    0  0.58383824306E+02 -0.28479060621E+02  0.33480204284E+03  0.34107126547E+03  0.41800000000E+01 0. -1.
         -5    1    1    2    0  502 -0.45898212115E+02 -0.12008406367E+03  0.53742996762E+03  0.55260770056E+03  0.41800000000E+01 0. -1.
        -11    1    3    3    0    0  0.10253749818E+02  0.11821649598E+03  0.50615295293E+02  0.12900460234E+03  0.00000000000E+00 0.  1.
         11    1    3    3    0    0 -0.22739362009E+02  0.30346628308E+02  0.82814325616E+02  0.91083527389E+02  0.00000000000E+00 0. -1.
</event>
<event>
 7    1  0.6988825E-006  0.1132821E+03  0.7561462E-02  0.1254610E+00
         -2   -1    0    0    0  501 -0.00000000000E+00  0.00000000000E+00  0.23930053152E+02  0.23930053152E+02  0.00000000000E+00 0.  1.
          2   -1    0    0  501    0  0.00000000000E+00 -0.00000000000E+00 -0.95115389763E+03  0.95115389763E+03  0.00000000000E+00 0. -1.
         23    2    1    2    0    0  0.32382114221E+02 -0.46771298656E+02 -0.13361786745E+03  0.16966803612E+03  0.87734555787E+02 0.  0.
          5    1    1    2  502    0 -0.58072721191E+02  0.71248569405E+02 -0.41244188191E+03  0.42258085373E+03  0.41800000000E+01 0.  1.
         -5    1    1    2    0  502  0.25690606970E+02 -0.24477270749E+02 -0.38116409513E+03  0.38283506094E+03  0.41800000000E+01 0.  1.
        -11    1    3    3    0    0  0.53679245889E+02 -0.75715445305E+01 -0.10021219592E+03  0.11393539370E+03  0.00000000000E+00 0. -1.
         11    1    3    3    0    0 -0.21297131668E+02 -0.39199754125E+02 -0.33405671521E+02  0.55732642415E+02  0.00000000000E+00 0.  1.
</event>
<event>
 7    1  0.6988825E-006  0.1149478E+03  0.7561462E-02  0.1251672E+00
         -1   -1    0    0    0  501 -0.00000000000E+00  0.00000000000E+00  0.86678106549E+02  0.86678106549E+02  0.00000000000E+00 0.  1.
          1   -1    0    0  501    0  0.00000000000E+00 -0.00000000000E+00 -0.24493474976E+03  0.24493474976E+03  0.00000000000E+00 0. -1.
         23    2    1    2    0    0 -0.72674884186E+02  0.33134465336E+02 -0.10121961613E+02  0.12191882701E+03  0.91554435649E+02 0.  0.
          5    1    1    2  502    0 -0.67710632925E+01 -0.61910012752E+02 -0.48906802280E+02  0.79297192172E+02  0.41800000000E+01 0.  1.
         -5    1    1    2    0  502  0.79445947478E+02  0.28775547416E+02 -0.99227879313E+02  0.13039683713E+03  0.41800000000E+01 0.  1.
        -11    1    3    3    0    0 -0.57942636228E+02  0.15662621408E+02  0.36321847866E+02  0.70156563734E+02  0.00000000000E+00 0.  1.
         11    1    3    3    0    0 -0.14732247957E+02  0.17471843928E+02 -0.46443809480E+02  0.51762263272E+02  0.00000000000E+00 0. -1.
</event>
<event>
 6    1  0.6988825E-006  0.8870621E+02  0.7561462E-02  0.1306015E+00
         -2   -1    0    0    0  501 -0.00000000000E+00  0.00000000000E+00  0.17223128093E+02  0.17223128093E+02  0.00000000000E+00 0.  1.
          2   -1    0    0  501    0  0.00000000000E+00 -0.00000000000E+00 -0.79525969804E+03  0.79525969804E+03  0.00000000000E+00 0. -1.
          5    1    1    2  502    0  0.32155786212E+02 -0.17363501674E+02 -0.47733932318E+03  0.47875441265E+03  0.41800000000E+01 0. -1.
         -5    1    1    2    0  502  0.41854500347E+02  0.42084796874E+02 -0.93592978499E+02  0.11090557854E+03  0.41800000000E+01 0. -1.
        -11    1    1    2    0    0 -0.24832531741E+02 -0.19695052261E+02 -0.63943740214E+02  0.71367721196E+02  0.00000000000E+00 0. -1.
         11    1    1    2    0    0 -0.49177754818E+02 -0.50262429386E+01 -0.14316052806E+03  0.15145511375E+03  0.00000000000E+00 0.  1.
</event>
<event>
 7    1  0.6988825E-006  0.9618792E+02  0.7561462E-02  0.1288523E+00
          2   -1    0    0  501    0  0.00000000000E+00  0.00000000000E+00  0.69387277479E+03  0.69387277479E+03  0.00000000000E+00 0. -1.
         -2   -1    0    0    0  501 -0.00000000000E+00 -0.00000000000E+00 -0.25436504117E+02  0.25436504117E+02  0.00000000000E+00 0.  1.
         23    2    1    2    0    0  0.23458269119E+02 -0.38958089810E+02  0.13679868465E+03  0.17126510337E+03  0.92465303534E+02 0.  0.
          5    1    1    2  502    0  0.26251388935E+02  0.58248222286E+02  0.41266083600E+03  0.41759840611E+03  0.41800000000E+01 0.  1.
         -5    1    1    2    0  502 -0.49709658054E+02 -0.19290132477E+02  0.11897675002E+03  0.13044576942E+03  0.41800000000E+01 0.  1.
        -11    1    3    3    0    0  0.30959893692E+02  0.40345851561E+01  0.39973180622E+01  0.31476522147E+02  0.00000000000E+00 0.  1.
         11    1    3    3    0    0 -0.75016245721E+01 -0.42992674966E+02  0.13280136659E+03  0.13978858122E+03  0.00000000000E+00 0. -1.
</event>
<event>
 7    1  0.6988825E-006  0.1218749E+03  0.7561462E-02  0.1240036E+00
          3   -1    0    0  501    0  0.00000000000E+00  0.00000000000E+00  0.74490434066E+03  0.74490434066E+03  0.00000000000E+00 0. -1.
         -3   -1    0    0    0  501 -0.00000000000E+00 -0.00000000000E+00 -0.51755179213E+02  0.51755179213E+02  0.00000000000E+00 0.  1.
         23    2    1    2    0    0 -0.46359465858E+02 -0.58545275808E+02  0.27513716037E+03  0.29917682765E+03  0.90716965294E+02 0.  0.
          5    1    1    2  502    0  0.29062042930E+02 -0.32968041805E+02  0.40012713120E+03  0.40255519825E+03  0.41800000000E+01 0. -1.
         -5    1    1    2    0  502  0.17297422928E+02  0.91513317613E+02  0.17884869876E+02  0.94927493967E+02  0.41800000000E+01 0.  1.
        -11    1    3    3    0    0 -0.49908464855E+02 -0.22405814743E+01  0.67284597585E+02  0.83803890969E+02  0.00000000000E+00 0. -1.
         11    1    3    3    0    0  0.35489989970E+01 -0.56304694334E+02  0.20785256278E+03  0.21537293668E+03  0.00000000000E+00 0.  1.
</event>
<event>
 7    1  0.6988825E-006  0.8435281E+02  0.7561462E-02  0.1317134E+00
         -2   -1    0    0    0  501 -0.00000000000E+00  0.00000000000E+00  0.87770197223E+02  0.87770197223E+02  0.00000000000E+00 0.  1.
          2   -1    0    0  501    0  0.00000000000E+00 -0.00000000000E+00 -0.27418942892E+03  0.27418942892E+03  0.00000000000E+00 0. -1.
         23    2    1    2    0    0  0.22480258525E+02  0.57297096008E+02  0.19479950489E+02  0.11330289976E+03  0.93111542727E+02 0.  0.
          5    1    1    2  502    0 -0.83987794862E+01  0.16184513681E+02 -0.15934146012E+03  0.16043581674E+03  0.41800000000E+01 0. -1.
         -5    1    1    2    0  502 -0.14081479039E+02 -0.73481609689E+02 -0.46557722069E+02  0.88220909645E+02  0.41800000000E+01 0. -1.
        -11    1    3    3    0    0  0.20321420064E+02  0.27883408223E+01 -0.32187126816E+02  0.38167343248E+02  0.00000000000E+00 0. -1.
         11    1    3    3    0    0  0.21588384611E+01  0.54508755186E+02  0.51667077304E+02  0.75135556514E+02  0.00000000000E+00 0.  1.
</event>
<event>
 7    1  0.6988825E-006  0.9297636E+02  0.7561462E-02  0.1295800E+00
         -4   -1    0    0    0  501 -0.00000000000E+00  0.00000000000E+00  0.83750544755E+02  0.83750544755E+02  0.00000000000E+00 0.  1.
          4   -1    0    0  501    0  0.00000000000E+00 -0.00000000000E+00 -0.18497070325E+03  0.18497070325E+03  0.00000000000E+00 0. -1.
         23    2    1    2    0    0 -0.91836936738E+01 -0.31565507446E+02 -0.54721994005E+02  0.13127917864E+03  0.11471270473E+03 0.  0.
          5    1    1    2  502    0  0.36326121584E+00 -0.47993475437E+02 -0.25832988943E+02  0.54665540891E+02  0.41800000000E+01 0.  1.
         -5    1    1    2    0  502  0.88204324580E+01  0.79558982883E+02 -0.20665175544E+02  0.82776528475E+02  0.41800000000E+01 0.  1.
        -11    1    3    3    0    0 -0.16309140773E+02 -0.41960169494E+02 -0.86268662932E+02  0.97308407143E+02  0.00000000000E+00 0. -1.
         11    1    3    3    0    0  0.71254470992E+01  0.10394662048E+02  0.31546668926E+02  0.33970771493E+02  0.00000000000E+00 0.  1.
</event>
<event>
 7    1  0.6988825E-006  0.8109256E+02  0.7561462E-02  0.1325979E+00
         -2   -1    0    0    0  501 -0.00000000000E+00  0.00000000000E+00  0.29076872202E+02  0.29076872202E+02  0.00000000000E+00 0.  1.
          2   -1    0    0  501    0  0.00000000000E+00 -0.00000000000E+00 -0.51043274064E+03  0.51043274064E+03  0.00000000000E+00 0. -1.
         23    2    1    2    0    0  0.34015493803E+01  0.36827876209E+01 -0.87795301106E+02  0.12282365424E+03  0.85746729868E+02 0.  0.
          5    1    1    2  502    0  0.42485431417E+00 -0.41270244008E+02 -0.36923173218E+03  0.37155478464E+03  0.41800000000E+01 0. -1.
         -5    1    1    2    0  502 -0.38264036944E+01  0.37587456387E+02 -0.24328835159E+02  0.45131173961E+02  0.41800000000E+01 0.  1.
        -11    1    3    3    0    0 -0.55340402528E+01  0.42499047794E+02 -0.61992656934E+02  0.75365006327E+02  0.00000000000E+00 0.  1.
         11    1    3    3    0    0  0.89355896330E+01 -0.38816260173E+02 -0.25802644171E+02  0.47458647918E+02  0.00000000000E+00 0. -1.
</event>
<event>
 7    1  0.6988825E-006  0.1280641E+03  0.7561462E-02  0.1230357E+00
         -2   -1    0    0    0  501 -0.00000000000E+00  0.00000000000E+00  0.19374343183E+03  0.19374343183E+03  0.00000000000E+00 0.  1.
          2   -1    0    0  501    0  0.00000000000E+00 -0.00000000000E+00 -0.71018042066E+03  0.71018042066E+03  0.00000000000E+00 0. -1.
         23    2    1    2    0    0  0.23668538136E+02  0.63854881530E+02  0.15657107581E+03  0.19322410030E+03  0.90462177526E+02 0.  0.
          5    1    1    2  502    0 -0.63282643889E+02 -0.85175582099E+02 -0.65249520469E+03  0.66108020492E+03  0.41800000000E+01 0. -1.
         -5    1    1    2    0  502  0.39614105753E+02  0.21320700569E+02 -0.20512859960E+02  0.49619547268E+02  0.41800000000E+01 0.  1.
        -11    1    3    3    0    0 -0.48767735068E+01  0.74223590485E+02  0.14022989309E+03  0.15873672297E+03  0.00000000000E+00 0.  1.
         11    1    3    3    0    0  0.28545311643E+02 -0.10368708955E+02  0.16341182728E+02  0.34487377330E+02  0.00000000000E+00 0. -1.
</event>
<event>
 7    1  0.6988825E-006  0.9415572E+02  0.7561462E-02  0.1293089E+00
          2   -1    0    0  501    0  0.00000000000E+00  0.00000000000E+00  0.42511419988E+03  0.42511419988E+03  0.00000000000E+00 0. -1.
         -2   -1    0    0    0  501 -0.00000000000E+00 -0.00000000000E+00 -0.41996342561E+02  0.41996342561E+02  0.00000000000E+00 0.  1.
         23    2    1    2    0    0  0.48795944162E+02  0.27119382508E+02  0.14590772603E+03  0.19319138668E+03  0.11365448648E+03 0.  0.
          5    1    1    2  502    0  0.30138726337E+01  0.26823965758E+02  0.17333221321E+03  0.17547118597E+03  0.41800000000E+01 0.  1.
         -5    1    1    2    0  502 -0.51809816796E+02 -0.53943348266E+02  0.63877918074E+02  0.98447969792E+02  0.41800000000E+01 0.  1.
        -11    1    3    3    0    0 -0.34690327458E+01  0.33279212142E+02 -0.45758227993E+01  0.33770968350E+02  0.00000000000E+00 0.  1.
         11    1    3    3    0    0  0.52264976908E+02 -0.61598296341E+01  0.15048354883E+03  0.15942041833E+03  0.00000000000E+00 0. -1.
</event>
<event>
 7    1  0.6988825E-006  0.1189458E+03  0.7561462E-02  0.1244846E+00
         -1   -1    0    0    0  501 -0.00000000000E+00  0.00000000000E+00  0.25240980104E+03  0.25240980104E+03  0.00000000000E+00 0.  1.
          1   -1    0    0  501    0  0.00000000000E+00 -0.00000000000E+00 -0.37828038879E+03  0.37828038879E+03  0.00000000000E+00 0. -1.
         23    2    1    2    0    0 -0.76842509512E+01  0.22594943978E+02  0.22423921749E+03  0.24402409517E+03  0.93246732698E+02 0.  0.
          5    1    1    2  502    0  0.56968658768E+02  0.40581502094E+02 -0.24260236105E+03  0.25251864165E+03  0.41800000000E+01 0. -1.
         -5    1    1    2    0  502 -0.49284407817E+02 -0.63176446072E+02 -0.10750744419E+03  0.13414745301E+03  0.41800000000E+01 0.  1.
        -11    1    3    3    0    0  0.19350847639E+02  0.47211599166E+02  0.17746825363E+03  0.18465744352E+03  0.00000000000E+00 0.  1.
         11    1    3    3    0    0 -0.27035098590E+02 -0.24616655188E+02  0.46770963857E+02  0.59366651654E+02  0.00000000000E+00 0. -1.
</event>
<event>
 7    1  0.6988825E-006  0.2383155E+03  0.7561462E-02  0.1120920E+00
          1   -1    0    0  501    0  0.00000000000E+00  0.00000000000E+00  0.12712159572E+04  0.12712159572E+04  0.00000000000E+00 0. -1.
         -1   -1    0    0    0  501 -0.00000000000E+00 -0.00000000000E+00 -0.80434664085E+02  0.80434664085E+02  0.00000000000E+00 0.  1.
         23    2    1    2    0    0 -0.93592310252E+02  0.11314048728E+03  0.86137335999E+02  0.19217468480E+03  0.89169380521E+02 0.  0.
          5    1    1    2  502    0  0.11380413455E+03 -0.20170126411E+03  0.96809200120E+03  0.99541668470E+03  0.41800000000E+01 0. -1.
         -5    1    1    2    0  502 -0.20211824301E+02  0.88560776824E+02  0.13655195590E+03  0.16405925178E+03  0.41800000000E+01 0.  1.
        -11    1    3    3    0    0 -0.32759025152E+02  0.98740051224E+01  0.60660133351E+02  0.69644105883E+02  0.00000000000E+00 0. -1.
         11    1    3    3    0    0 -0.60833285101E+02  0.10326648216E+03  0.25477202648E+02  0.12253057891E+03  0.00000000000E+00 0.  1.
</event>
<event>
 7    1  0.6988825E-006  0.1187595E+03  0.7561462E-02  0.1245158E+00
         -1   -1    0    0    0  501 -0.00000000000E+00  0.00000000000E+00  0.62160263812E+02  0.62160263812E+02  0.00000000000E+00 0.  1.
          1   -1    0    0  501    0  0.00000000000E+00 -0.00000000000E+00 -0.25365741963E+03  0.25365741963E+03  0.00000000000E+00 0. -1.
         23    2    1    2    0    0 -0.74092962522E+01  0.64545199037E+02 -0.87846011660E+02  0.14085504248E+03  0.88894548970E+02 0.  0.
          5    1    1    2  502    0  0.50931189893E+02  0.27477934180E+01 -0.10919017220E+02  0.52328135927E+02  0.41800000000E+01 0. -1.
         -5    1    1    2    0  502 -0.43521893641E+02 -0.67292992455E+02 -0.92732126937E+02  0.12263450504E+03  0.41800000000E+01 0. -1.
        -11    1    3    3    0    0 -0.88579324201E+01 -0.19823253873E+02 -0.35324195411E+02  0.41463515798E+02  0.00000000000E+00 0.  1.
         11    1    3    3    0    0  0.14486361680E+01  0.84368452911E+02 -0.52521816249E+02  0.99391526678E+02  0.00000000000E+00 0. -1.
</event>
<event>
 7    1  0.6988825E-006  0.1497512E+03  0.7561462E-02  0.1200779E+00
         -1   -1    0    0    0  501 -0.00000000000E+00  0.00000000000E+00  0.13839965947E+03  0.13839965947E+03  0.00000000000E+00 0.  1.
          1   -1    0    0  501    0  0.00000000000E+00 -0.00000000000E+00 -0.20873761753E+03  0.20873761753E+03  0.00000000000E+00 0. -1.
         23    2    1    2    0    0 -0.12794537080E+03  0.20503186352E+02 -0.44885840848E+02  0.16524244501E+03  0.92195056074E+02 0.  0.
          5    1    1    2  502    0  0.33482319333E+02  0.43858537242E+02 -0.37551926284E+02  0.66874932258E+02  0.41800000000E+01 0. -1.
         -5    1    1    2    0  502  0.94463051466E+02 -0.64361723593E+02  0.12099809073E+02  0.11501989974E+03  0.41800000000E+01 0. -1.
        -11    1    3    3    0    0 -0.79477329198E+02  0.16324313830E+02 -0.72925016081E+02  0.10909256184E+03  0.00000000000E+00 0. -1.
         11    1    3    3    0    0 -0.48468041600E+02  0.41788725218E+01  0.28039175233E+02  0.56149883169E+02  0.00000000000E+00 0.  1.
</event>
<event>
 7    1  0.6988825E-006  0.1223877E+03  0.7561462E-02  0.1239209E+00
         -1   -1    0    0    0  501 -0.00000000000E+00  0.00000000000E+00  0.27911914522E+02  0.27911914522E+02  0.00000000000E+00 0.  1.
          1   -1    0    0  501    0  0.00000000000E+00 -0.00000000000E+00 -0.65618768826E+03  0.65618768826E+03  0.00000000000E+00 0. -1.
         23    2    1    2    0    0 -0.49612914000E+02  0.58625603879E+02 -0.34538671181E+03  0.36539615375E+03  0.91235770501E+02 0.  0.
          5    1    1    2  502    0 -0.16889386353E+02 -0.57133196311E+02 -0.21666846695E+03  0.22474908334E+03  0.41800000000E+01 0.  1.
         -5    1    1    2    0  502  0.66502300352E+02 -0.14924075680E+01 -0.66220594987E+02  0.93954365694E+02  0.41800000000E+01 0.  1.
        -11    1    3    3    0    0 -0.10710868301E+02  0.75313340990E+02 -0.24216155954E+03  0.25382876699E+03  0.00000000000E+00 0.  1.
         11    1    3    3    0    0 -0.38902045698E+02 -0.16687737111E+02 -0.10322515226E+03  0.11156738676E+03  0.00000000000E+00 0. -1.
</event>
<event>
 7    1  0.6988825E-006  0.9272955E+02  0.7561462E-02  0.1296373E+00
          1   -1    0    0  501    0  0.00000000000E+00  0.00000000000E+00  0.11173593270E+04  0.11173593270E+04  0.00000000000E+00 0. -1.
         -1   -1    0    0    0  501 -0.00000000000E+00 -0.00000000000E+00 -0.15321840395E+02  0.15321840395E+02  0.00000000000E+00 0.  1.
         23    2    1    2    0    0 -0.43617998704E+01  0.57527928107E+02  0.29923536312E+03  0.31815876871E+03  0.91404112363E+02 0.  0.
          5    1    1    2  502    0 -0.16431136670E+00  0.16317817939E+02  0.56918944286E+03  0.56943866434E+03  0.41800000000E+01 0.  1.
         -5    1    1    2    0  502  0.45261112371E+01 -0.73845746047E+02  0.23361268066E+03  0.24508373438E+03  0.41800000000E+01 0.  1.
        -11    1    3    3    0    0 -0.37594261286E+02  0.45837852876E+02  0.25398595193E+03  0.26081277004E+03  0.00000000000E+00 0. -1.
         11    1    3    3    0    0  0.33232461416E+02  0.11690075232E+02  0.45249411185E+02  0.57345998668E+02  0.00000000000E+00 0.  1.
</event>
<event>
 7    1  0.6988825E-006  0.2529138E+03  0.7561462E-02  0.1111477E+00
         -2   -1    0    0    0  501 -0.00000000000E+00  0.00000000000E+00  0.14485478950E+03  0.14485478950E+03  0.00000000000E+00 0.  1.
          2   -1    0    0  501    0  0.00000000000E+00 -0.00000000000E+00 -0.64816651605E+03  0.64816651605E+03  0.00000000000E+00 0. -1.
         23    2    1    2    0    0  0.17574728419E+03 -0.15973324718E+03 -0.39910593305E+02  0.25749249419E+03  0.91146645299E+02 0.  0.
          5    1    1    2  502    0  0.79124088876E+01  0.47819885566E+02 -0.12948116564E+03  0.13831916832E+03  0.41800000000E+01 0. -1.
         -5    1    1    2    0  502 -0.18365969307E+03  0.11191336162E+03 -0.33391996760E+03  0.39720964305E+03  0.41800000000E+01 0. -1.
        -11    1    3    3    0    0  0.47827595587E+02 -0.73869513864E+02 -0.53238714311E+02  0.10285205238E+03  0.00000000000E+00 0. -1.
         11    1    3    3    0    0  0.12791968860E+03 -0.85863733318E+02  0.13328121006E+02  0.15464044180E+03  0.00000000000E+00 0.  1.
</event>
<event>
 7    1  0.6988825E-006  0.8699435E+02  0.7561462E-02  0.1310298E+00
          1   -1    0    0  501    0  0.00000000000E+00  0.00000000000E+00  0.66322952883E+03  0.66322952883E+03  0.00000000000E+00 0. -1.
         -1   -1    0    0    0  501 -0.00000000000E+00 -0.00000000000E+00 -0.20400147839E+02  0.20400147839E+02  0.00000000000E+00 0.  1.
         23    2    1    2    0    0  0.33632158862E+02  0.32317421095E+01  0.20221160625E+03  0.22423450763E+03  0.90829590119E+02 0.  0.
          5    1    1    2  502    0  0.42110935449E+02 -0.99326211275E+01  0.82296274103E+02  0.93070602115E+02  0.41800000000E+01 0.  1.
         -5    1    1    2    0  502 -0.75743094311E+02  0.67008790181E+01  0.35832150064E+03  0.36632456693E+03  0.41800000000E+01 0.  1.
        -11    1    3    3    0    0 -0.69913313013E+01  0.10974528946E+02 -0.42369510388E+01  0.13684690462E+02  0.00000000000E+00 0.  1.
         11    1    3    3    0    0  0.40623490163E+02 -0.77427868361E+01  0.20644855729E+03  0.21054981716E+03  0.00000000000E+00 0. -1.
</event>
<event>
 7    1  0.6988825E-006  0.3181512E+03  0.7561462E-02  0.1076503E+00
         -2   -1    0    0    0  501 -0.00000000000E+00  0.00000000000E+00  0.68136208474E+02  0.68136208474E+02  0.00000000000E+00 0.  1.
          2   -1    0    0  501    0  0.00000000000E+00 -0.00000000000E+00 -0.15800514457E+04  0.15800514457E+04  0.00000000000E+00 0. -1.
         23    2    1    2    0    0 -0.95131370855E+02 -0.29315238445E+03 -0.80977318911E+03  0.87124395207E+03  0.91351562541E+02 0.  0.
          5    1    1    2  502    0  0.10198576314E+03  0.19614795153E+03 -0.37202894177E+03  0.43277952896E+03  0.41800000000E+01 0. -1.
         -5    1    1    2    0  502 -0.68543922817E+01  0.97004432918E+02 -0.33011310638E+03  0.34416417318E+03  0.41800000000E+01 0. -1.
        -11    1    3    3    0    0 -0.10634846823E+03 -0.22606286255E+03 -0.68496982092E+03  0.72910772187E+03  0.00000000000E+00 0. -1.
         11    1    3    3    0    0  0.11217097375E+02 -0.67089521904E+02 -0.12480336819E+03  0.14213623020E+03  0.00000000000E+00 0.  1.
</event>
<event>
 7    1  0.6988825E-006  0.2005134E+03  0.7561462E-02  0.1149307E+00
         -1   -1    0    0    0  501 -0.00000000000E+00  0.00000000000E+00  0.81496470693E+02  0.81496470693E+02  0.00000000000E+00 0.  1.
          1   -1    0    0  501    0  0.00000000000E+00 -0.00000000000E+00 -0.55662313754E+03  0.55662313754E+03  0.00000000000E+00 0. -1.
         23    2    1    2    0    0  0.16020151820E+03  0.64114208255E+02 -0.16167120452E+03  0.25510173817E+03  0.95729620885E+02 0.  0.
          5    1    1    2  502    0 -0.17745324408E+03 -0.60167392623E+02 -0.31300505123E+03  0.36482790938E+03  0.41800000000E+01 0. -1.
         -5    1    1    2    0  502  0.17251725880E+02 -0.39468156318E+01 -0.45041110489E+00  0.18189960682E+02  0.41800000000E+01 0.  1.
        -11    1    3    3    0    0  0.70145695055E+02 -0.19210737014E+02 -0.43437086828E+02  0.84712758564E+02  0.00000000000E+00 0. -1.
         11    1    3    3    0    0  0.90055823145E+02  0.83324945269E+02 -0.11823411769E+03  0.17038897961E+03  0.00000000000E+00 0.  1.
</event>
<event>
 7    1  0.6988825E-006  0.1081313E+03  0.7561462E-02  0.1264070E+00
         -2   -1    0    0    0  501 -0.00000000000E+00  0.00000000000E+00  0.85598106030E+02  0.85598106030E+02  0.00000000000E+00 0.  1.
          2   -1    0    0  501    0  0.00000000000E+00 -0.00000000000E+00 -0.16016649160E+03  0.16016649160E+03  0.00000000000E+00 0. -1.
         23    2    1    2    0    0  0.40988308651E+02  0.20595107959E+02 -0.30517666918E+02  0.10543468632E+03  0.89894077490E+02 0.  0.
          5    1    1    2  502    0 -0.85082878858E+02 -0.19866766434E+02 -0.19260587745E+02  0.89566887428E+02  0.41800000000E+01 0.  1.
         -5    1    1    2    0  502  0.44094570207E+02 -0.72834152460E+00 -0.24790130909E+02  0.50763023881E+02  0.41800000000E+01 0.  1.
        -11    1    3    3    0    0 -0.17754928594E+02  0.18602926728E+02 -0.38312822188E+02  0.46143024567E+02  0.00000000000E+00 0. -1.
         11    1    3    3    0    0  0.58743237245E+02  0.19921812313E+01  0.77951552691E+01  0.59291661755E+02  0.00000000000E+00 0.  1.
</event>
<event>
 7    1  0.6988825E-006  0.9558949E+02  0.7561462E-02  0.1289854E+00
         -1   -1    0    0    0  501 -0.00000000000E+00  0.00000000000E+00  0.12451717463E+02  0.12451717463E+02  0.00000000000E+00 0.  1.
          1   -1    0    0  501    0  0.00000000000E+00 -0.00000000000E+00 -0.11338720900E+04  0.11338720900E+04  0.00000000000E+00 0. -1.
         23    2    1    2    0    0  0.27000099725E+02  0.96346961726E+01 -0.29669027337E+03  0.31166996709E+03  0.91056121806E+02 0.  0.
          5    1    1    2  502    0  0.34062894476E+02 -0.86397906371E+01 -0.80808588529E+02  0.88218065850E+02  0.41800000000E+01 0. -1.
         -5    1    1    2    0  502 -0.61062994201E+02 -0.99490553552E+00 -0.74392151065E+03  0.74643577453E+03  0.41800000000E+01 0. -1.
        -11    1    3    3    0    0  0.19934778942E+02  0.49879455541E+02 -0.14714053238E+03  0.15663873009E+03  0.00000000000E+00 0.  1.
         11    1    3    3    0    0  0.70653207833E+01 -0.40244759368E+02 -0.14954974100E+03  0.15503123700E+03  0.00000000000E+00 0. -1.
</event>
<event>
 7    1  0.6988825E-006  0.9944844E+02  0.7561462E-02  0.1281460E+00
          1   -1    0    0  501    0  0.00000000000E+00  0.00000000000E+00  0.25847600529E+03  0.25847600529E+03  0.00000000000E+00 0. -1.
         -1   -1    0    0    0  501 -0.00000000000E+00 -0.00000000000E+00 -0.54537693088E+02  0.54537693088E+02  0.00000000000E+00 0.  1.
         23    2    1    2    0    0  0.37992711536E+02  0.28530375903E+02  0.67990903612E+02  0.12225763193E+03  0.89815016074E+02 0.  0.
          5    1    1    2  502    0 -0.75424609033E+02 -0.49132977625E+02  0.10136131787E+03  0.13562636285E+03  0.41800000000E+01 0. -1.
         -5    1    1    2    0  502  0.37431897498E+02  0.20602601722E+02  0.34586090714E+02  0.55129703599E+02  0.41800000000E+01 0. -1.
        -11    1    3    3    0    0  0.17297655437E+02  0.38997012442E+02  0.83907421194E+02  0.94129863457E+02  0.00000000000E+00 0. -1.
         11    1    3    3    0    0  0.20695056099E+02 -0.10466636539E+02 -0.15916517582E+02  0.28127768474E+02  0.00000000000E+00 0.  1.
</event>
<event>
 7    1  0.6988825E-006  0.1559337E+03  0.7561462E-02  0.1193366E+00
          2   -1    0    0  501    0  0.00000000000E+00  0.00000000000E+00  0.76551969679E+03  0.76551969679E+03  0.00000000000E+00 0.  1.
         -2   -1    0    0    0  501 -0.00000000000E+00 -0.00000000000E+00 -0.45639047814E+02  0.45639047814E+02  0.00000000000E+00 0. -1.
         23    2    1    2    0    0  0.10512946138E+03 -0.89722922733E+02  0.20231377450E+03  0.26104625447E+03  0.90065959750E+02 0.  0.
          5    1    1    2  502    0 -0.91021774004E+02  0.95787006210E+02  0.51758078105E+03  0.53419795134E+03  0.41800000000E+01 0. -1.
         -5    1    1    2    0  502 -0.14107687380E+02 -0.60640834773E+01 -0.13906575971E-01  0.15914538794E+02  0.41800000000E+01 0. -1.
        -11    1    3    3    0    0 -0.21656330453E+01 -0.48905350826E+02  0.46567637041E+02  0.67564547845E+02  0.00000000000E+00 0. -1.
         11    1    3    3    0    0  0.10729509443E+03 -0.40817571906E+02  0.15574613746E+03  0.19348170662E+03  0.00000000000E+00 0.  1.
</event>
<event>
 7    1  0.6988825E-006  0.6139886E+02  0.7561462E-02  0.1392053E+00
          1   -1    0    0  501    0  0.00000000000E+00  0.00000000000E+00  0.14593183152E+03  0.14593183152E+03  0.00000000000E+00 0. -1.
         -1   -1    0    0    0  501 -0.00000000000E+00 -0.00000000000E+00 -0.94555545348E+02  0.94555545348E+02  0.00000000000E+00 0.  1.
         23    2    1    2    0    0  0.21030878815E+02 -0.15335363072E+02 -0.16598485419E+02  0.95761925432E+02  0.90649685162E+02 0.  0.
          5    1    1    2  502    0 -0.23306810196E+02 -0.20802126946E+02  0.94518492288E+02  0.99635102606E+02  0.41800000000E+01 0.  1.
         -5    1    1    2    0  502  0.22759313815E+01  0.36137490018E+02 -0.26543720702E+02  0.45090348825E+02  0.41800000000E+01 0.  1.
        -11    1    3    3    0    0  0.36804739205E+02 -0.11955875474E+02 -0.47280146729E+02  0.61097823701E+02  0.00000000000E+00 0.  1.
         11    1    3    3    0    0 -0.15773860390E+02 -0.33794875984E+01  0.30681661310E+02  0.34664101731E+02  0.00000000000E+00 0. -1.
</event>
<event>
 7    1  0.6988825E-006  0.1771629E+03  0.7561462E-02  0.1170577E+00
         -2   -1    0    0    0  501 -0.00000000000E+00  0.00000000000E+00  0.34742426063E+03  0.34742426063E+03  0.00000000000E+00 0. -1.
          2   -1    0    0  501    0  0.00000000000E+00 -0.00000000000E+00 -0.10601534745E+03  0.10601534745E+03  0.00000000000E+00 0.  1.
         23    2    1    2    0    0 -0.42081705343E+02  0.14828941859E+03  0.15676805589E+03  0.23762965418E+03  0.90172099947E+02 0.  0.
          5    1    1    2  502    0  0.11157290721E+02  0.19079334244E+02 -0.55141437036E+01  0.23159972198E+02  0.41800000000E+01 0.  1.
         -5    1    1    2    0  502  0.30924414622E+02 -0.16736875283E+03  0.90155001003E+02  0.19264998170E+03  0.41800000000E+01 0.  1.
        -11    1    3    3    0    0 -0.44486892865E+02  0.68036536597E+02  0.12937987232E+03  0.15279792313E+03  0.00000000000E+00 0. -1.
         11    1    3    3    0    0  0.24051875220E+01  0.80252881989E+02  0.27388183565E+02  0.84831731054E+02  0.00000000000E+00 0.  1.
</event>
<event>
 7    1  0.6988825E-006  0.1191928E+03  0.7561462E-02  0.1244435E+00
         -1   -1    0    0    0  501 -0.00000000000E+00  0.00000000000E+00  0.77107840824E+02  0.77107840824E+02  0.00000000000E+00 0.  1.
          1   -1    0    0  501    0  0.00000000000E+00 -0.00000000000E+00 -0.32119005033E+03  0.32119005033E+03  0.00000000000E+00 0. -1.
         23    2    1    2    0    0  0.53545056157E+02  0.51003880167E+02 -0.35143993142E+01  0.11724741070E+03  0.90918290148E+02 0.  0.
          5    1    1    2  502    0  0.27671632094E+02 -0.56057849200E+02 -0.12254042684E+03  0.13762932206E+03  0.41800000000E+01 0. -1.
         -5    1    1    2    0  502 -0.81216688251E+02  0.50539690323E+01 -0.11802738334E+03  0.14342115839E+03  0.41800000000E+01 0. -1.
        -11    1    3    3    0    0  0.48922412282E+02  0.63221864629E+01  0.33007531625E+02  0.59353766596E+02  0.00000000000E+00 0.  1.
         11    1    3    3    0    0  0.46226438754E+01  0.44681693704E+02 -0.36521930939E+02  0.57893644109E+02  0.00000000000E+00 0. -1.
</event>
<event>
 7    1  0.6988825E-006  0.5089829E+02  0.7561462E-02  0.1440556E+00
         -2   -1    0    0    0  501 -0.00000000000E+00  0.00000000000E+00  0.63195280934E+02  0.63195280934E+02  0.00000000000E+00 0.  1.
          2   -1    0    0  501    0  0.00000000000E+00 -0.00000000000E+00 -0.21994843201E+03  0.21994843201E+03  0.00000000000E+00 0. -1.
         23    2    1    2    0    0 -0.23512611143E+02  0.24546473778E+02 -0.29462969042E+02  0.10147637455E+03  0.90961617124E+02 0.  0.
          5    1    1    2  502    0  0.13119299046E+02 -0.17249814157E+02 -0.15198854665E+03  0.15358275557E+03  0.41800000000E+01 0.  1.
         -5    1    1    2    0  502  0.10393312097E+02 -0.72966596210E+01  0.24698364612E+02  0.28084582825E+02  0.41800000000E+01 0.  1.
        -11    1    3    3    0    0 -0.30096832387E+02  0.39708838473E+02 -0.52981324803E+02  0.72729855977E+02  0.00000000000E+00 0. -1.
         11    1    3    3    0    0  0.65842212439E+01 -0.15162364695E+02  0.23518355760E+02  0.28746518575E+02  0.00000000000E+00 0.  1.
</event>
<event>
 7    1  0.6988825E-006  0.1034748E+03  0.7561462E-02  0.1273154E+00
          2   -1    0    0  501    0  0.00000000000E+00  0.00000000000E+00  0.86545809204E+03  0.86545809204E+03  0.00000000000E+00 0.  1.
         -2   -1    0    0    0  501 -0.00000000000E+00 -0.00000000000E+00 -0.23020615027E+02  0.23020615027E+02  0.00000000000E+00 0. -1.
         23    2    1    2    0    0 -0.87866531278E+01 -0.67286761518E+02  0.20764779255E+03  0.23793565809E+03  0.94292407391E+02 0.  0.
          5    1    1    2  502    0 -0.37339907064E+02  0.23365508390E+02  0.49379339985E+03  0.49577173152E+03  0.41800000000E+01 0.  1.
         -5    1    1    2    0  502  0.46126560192E+02  0.43921253129E+02  0.14099628461E+03  0.15477131745E+03  0.41800000000E+01 0.  1.
        -11    1    3    3    0    0  0.11346249630E+02 -0.76068107340E+02  0.20064734632E+03  0.21488241417E+03  0.00000000000E+00 0.  1.
         11    1    3    3    0    0 -0.20132902758E+02  0.87813458213E+01  0.70004462334E+01  0.23053243923E+02  0.00000000000E+00 0. -1.
</event>
<event>
 7    1  0.6988825E-006  0.8408952E+02  0.7561462E-02  0.1317831E+00
         -2   -1    0    0    0  501 -0.00000000000E+00  0.00000000000E+00  0.13800069940E+03  0.13800069940E+03  0.00000000000E+00 0. -1.
          2   -1    0    0  501    0  0.00000000000E+00 -0.00000000000E+00 -0.11432203893E+03  0.11432203893E+03  0.00000000000E+00 0.  1.
         23    2    1    2    0    0  0.31561045704E+02  0.31069096132E+02  0.39139891428E+02  0.11872385553E+03  0.10296618100E+03 0.  0.
          5    1    1    2  502    0 -0.49187983285E+02 -0.53632026251E+02  0.30719960207E+02  0.79101455704E+02  0.41800000000E+01 0.  1.
         -5    1    1    2    0  502  0.17626937581E+02  0.22562930119E+02 -0.46181191162E+02  0.54497427106E+02  0.41800000000E+01 0.  1.
        -11    1    3    3    0    0  0.20319483509E+02 -0.10791369982E+02 -0.29581583626E+02  0.37475394140E+02  0.00000000000E+00 0.  1.
         11    1    3    3    0    0  0.11241562195E+02  0.41860466114E+02  0.68721475054E+02  0.81248461385E+02  0.00000000000E+00 0. -1.
</event>
<event>
 7    1  0.6988825E-006  0.1390124E+03  0.7561462E-02  0.1214664E+00
          1   -1    0    0  501    0  0.00000000000E+00  0.00000000000E+00  0.91790231979E+03  0.91790231979E+03  0.00000000000E+00 0. -1.
         -1   -1    0    0    0  501 -0.00000000000E+00 -0.00000000000E+00 -0.23128560846E+02  0.23128560846E+02  0.00000000000E+00 0.  1.
         23    2    1    2    0    0  0.12693152385E+01 -0.97156956397E+02  0.47258683843E+03  0.49010749734E+03  0.86173973758E+02 0.  0.
          5    1    1    2  502    0 -0.26097929695E+02 -0.16923799674E+02  0.17153828738E+03  0.17438570288E+03  0.41800000000E+01 0.  1.
         -5    1    1    2    0  502  0.24828614457E+02  0.11408075607E+03  0.25064863314E+03  0.27653768042E+03  0.41800000000E+01 0.  1.
        -11    1    3    3    0    0  0.40382262394E+02 -0.24321127882E+02  0.17878662307E+03  0.18489700096E+03  0.00000000000E+00 0.  1.
         11    1    3    3    0    0 -0.39112947156E+02 -0.72835828514E+02  0.29380021536E+03  0.30521049638E+03  0.00000000000E+00 0. -1.
</event>
<event>
 7    1  0.6988825E-006  0.1288319E+03  0.7561462E-02  0.1229199E+00
          2   -1    0    0  501    0  0.00000000000E+00  0.00000000000E+00  0.10262915475E+04  0.10262915475E+04  0.00000000000E+00 0.  1.
         -2   -1    0    0    0  501 -0.00000000000E+00 -0.00000000000E+00 -0.20387626907E+02  0.20387626907E+02  0.00000000000E+00 0. -1.
         23    2    1    2    0    0  0.83505044167E+02  0.34711655073E+02  0.35202412932E+03  0.37482774625E+03  0.91634384034E+02 0.  0.
          5    1    1    2  502    0 -0.78408525186E+02  0.27300718026E+02  0.25723272810E+03  0.27033197153E+03  0.41800000000E+01 0.  1.
         -5    1    1    2    0  502 -0.50965189814E+01 -0.62012373099E+02  0.39664706316E+03  0.40151945661E+03  0.41800000000E+01 0.  1.
        -11    1    3    3    0    0  0.37041498992E+02 -0.18603929349E+02  0.23071797136E+03  0.23441194752E+03  0.00000000000E+00 0.  1.
         11    1    3    3    0    0  0.46463545175E+02  0.53315584423E+02  0.12130615796E+03  0.14041579873E+03  0.00000000000E+00 0. -1.
</event>
<event>
 7    1  0.6988825E-006  0.1132293E+03  0.7561462E-02  0.1254704E+00
         -2   -1    0    0    0  501 -0.00000000000E+00  0.00000000000E+00  0.28347345899E+02  0.28347345899E+02  0.00000000000E+00 0. -1.
          2   -1    0    0  501    0  0.00000000000E+00 -0.00000000000E+00 -0.47755954050E+03  0.47755954050E+03  0.00000000000E+00 0.  1.
         23    2    1    2    0    0 -0.27911643072E+01 -0.36961717456E+02 -0.15814918291E+03  0.18694146668E+03  0.92531015094E+02 0.  0.
          5    1    1    2  502    0 -0.16863372651E+02 -0.43670995827E+02 -0.11686071891E+03  0.12595804555E+03  0.41800000000E+01 0.  1.
         -5    1    1    2    0  502  0.19654536958E+02  0.80632713283E+02 -0.17420229278E+03  0.19300737418E+03  0.41800000000E+01 0.  1.
        -11    1    3    3    0    0 -0.13736946936E+02 -0.64908358979E+02 -0.12921196614E+03  0.14524989146E+03  0.00000000000E+00 0.  1.
         11    1    3    3    0    0  0.10945782629E+02  0.27946641523E+02 -0.28937216772E+02  0.41691575220E+02  0.00000000000E+00 0. -1.
</event>
<event>
 7    1  0.6988825E-006  0.3003280E+03  0.7561462E-02  0.1085077E+00
          1   -1    0    0  501    0  0.00000000000E+00  0.00000000000E+00  0.14485577112E+04  0.14485577112E+04  0.00000000000E+00 0. -1.
         -1   -1    0    0    0  501 -0.00000000000E+00 -0.00000000000E+00 -0.10457298286E+03  0.10457298286E+03  0.00000000000E+00 0.  1.
         23    2    1    2    0    0 -0.15490503552E+03  0.25527061578E+03  0.21681567030E+03  0.38039162839E+03  0.92358533705E+02 0.  0.
          5    1    1    2  502    0  0.10094978859E+03 -0.17538585769E+03  0.52095630746E+03  0.55889534403E+03  0.41800000000E+01 0.  1.
         -5    1    1    2    0  502  0.53955246925E+02 -0.79884758098E+02  0.60621275053E+03  0.61384372161E+03  0.41800000000E+01 0.  1.
        -11    1    3    3    0    0 -0.59364092114E+02  0.13984002995E+03  0.15865101005E+03  0.21965762541E+03  0.00000000000E+00 0.  1.
         11    1    3    3    0    0 -0.95540943403E+02  0.11543058583E+03  0.58164660248E+02  0.16073400298E+03  0.00000000000E+00 0. -1.
</event>
<event>
 7    1  0.6988825E-006  0.9289930E+02  0.7561462E-02  0.1295979E+00
         -2   -1    0    0    0  501 -0.00000000000E+00  0.00000000000E+00  0.54207996456E+02  0.54207996456E+02  0.00000000000E+00 0. -1.
          2   -1    0    0  501    0  0.00000000000E+00 -0.00000000000E+00 -0.26087490041E+03  0.26087490041E+03  0.00000000000E+00 0.  1.
         23    2    1    2    0    0 -0.38787595185E+02 -0.38640645583E+01 -0.45772386722E+02  0.10759087195E+03  0.89225981669E+02 0.  0.
          5    1    1    2  502    0  0.38242674851E+02 -0.33643347596E+02 -0.16185953501E+03  0.16973614374E+03  0.41800000000E+01 0.  1.
         -5    1    1    2    0  502  0.54492033466E+00  0.37507412154E+02  0.96501777512E+00  0.37755881184E+02  0.41800000000E+01 0.  1.
        -11    1    3    3    0    0 -0.33830875852E+02 -0.44562587451E+02 -0.31317078629E+02  0.64117952051E+02  0.00000000000E+00 0.  1.
         11    1    3    3    0    0 -0.49567193331E+01  0.40698522893E+02 -0.14455308092E+02  0.43472919896E+02  0.00000000000E+00 0. -1.
</event>
<event>
 7    1  0.6988825E-006  0.9406430E+02  0.7561462E-02  0.1293298E+00
          2   -1    0    0  501    0  0.00000000000E+00  0.00000000000E+00  0.17724709845E+03  0.17724709845E+03  0.00000000000E+00 0. -1.
         -2   -1    0    0    0  501 -0.00000000000E+00 -0.00000000000E+00 -0.74167361321E+02  0.74167361321E+02  0.00000000000E+00 0.  1.
         23    2    1    2    0    0  0.17543065330E+02  0.84364580468E+01  0.58991821591E+01  0.91823921711E+02  0.89542723226E+02 0.  0.
          5    1    1    2  502    0 -0.65787780355E+02  0.19696821177E+02  0.66718717175E+02  0.95837656639E+02  0.41800000000E+01 0. -1.
         -5    1    1    2    0  502  0.48244715025E+02 -0.28133279224E+02  0.30461837796E+02  0.63752881422E+02  0.41800000000E+01 0. -1.
        -11    1    3    3    0    0  0.17382906816E+02 -0.24690893235E+02 -0.30284106124E+02  0.42766023217E+02  0.00000000000E+00 0.  1.
         11    1    3    3    0    0  0.16015851457E+00  0.33127351281E+02  0.36183288283E+02  0.49057898494E+02  0.00000000000E+00 0. -1.
</event>
<event>
 7    1  0.6988825E-006  0.1841760E+03  0.7561462E-02  0.1163822E+00
         -1   -1    0    0    0  501 -0.00000000000E+00  0.00000000000E+00  0.51671557006E+02  0.51671557006E+02  0.00000000000E+00 0.  1.
          1   -1    0    0  501    0  0.00000000000E+00 -0.00000000000E+00 -0.66137585582E+03  0.66137585582E+03  0.00000000000E+00 0. -1.
         23    2    1    2    0    0 -0.14639089787E+03 -0.33436352217E+02 -0.27985589330E+03  0.32964647381E+03  0.88313034451E+02 0.  0.
          5    1    1    2  502    0  0.11499323464E+03 -0.34788449054E+02 -0.20444099503E+03  0.23716507553E+03  0.41800000000E+01 0.  1.
         -5    1    1    2    0  502  0.31397663235E+02  0.68224801271E+02 -0.12540741048E+03  0.14623586349E+03  0.41800000000E+01 0.  1.
        -11    1    3    3    0    0 -0.41726198096E+02  0.29214671303E+02 -0.65034629788E+02  0.82607963893E+02  0.00000000000E+00 0.  1.
         11    1    3    3    0    0 -0.10466469978E+03 -0.62651023520E+02 -0.21482126351E+03  0.24703850992E+03  0.00000000000E+00 0. -1.
</event>
<event>
 7    1  0.6988825E-006  0.1283023E+03  0.7561462E-02  0.1229997E+00
          2   -1    0    0  501    0  0.00000000000E+00  0.00000000000E+00  0.13176772416E+04  0.13176772416E+04  0.00000000000E+00 0. -1.
         -2   -1    0    0    0  501 -0.00000000000E+00 -0.00000000000E+00 -0.22168621104E+02  0.22168621104E+02  0.00000000000E+00 0.  1.
         23    2    1    2    0    0  0.48188808421E+01  0.10459458465E+03  0.32106010615E+03  0.35265113021E+03  0.10158729804E+03 0.  0.
          5    1    1    2  502    0 -0.28680153484E+02 -0.33867521181E+02  0.73491297400E+03  0.73626361580E+03  0.41800000000E+01 0. -1.
         -5    1    1    2    0  502  0.23861272642E+02 -0.70727063470E+02  0.23953554030E+03  0.25093111665E+03  0.41800000000E+01 0.  1.
        -11    1    3    3    0    0  0.23798816495E+02  0.11373734480E+03  0.21375676060E+03  0.24329923957E+03  0.00000000000E+00 0.  1.
         11    1    3    3    0    0 -0.18979935652E+02 -0.91427601535E+01  0.10730334555E+03  0.10935189064E+03  0.00000000000E+00 0. -1.
</event>
<event>
 7    1  0.6988825E-006  0.1350775E+03  0.7561462E-02  0.1220110E+00
          1   -1    0    0  501    0  0.00000000000E+00  0.00000000000E+00  0.65687890157E+03  0.65687890157E+03  0.00000000000E+00 0. -1.
         -1   -1    0    0    0  501 -0.00000000000E+00 -0.00000000000E+00 -0.47964989780E+02  0.47964989780E+02  0.00000000000E+00 0.  1.
         23    2    1    2    0    0 -0.42246528185E+02 -0.10344513693E+03  0.12034748756E+03  0.18828705080E+03  0.92102281403E+02 0.  0.
          5    1    1    2  502    0 -0.22092162622E+02 -0.99329505963E+01  0.17836272679E+03  0.18004849865E+03  0.41800000000E+01 0.  1.
         -5    1    1    2    0  502  0.64338690807E+02  0.11337808752E+03  0.31020369744E+03  0.33650834190E+03  0.41800000000E+01 0.  1.
        -11    1    3    3    0    0 -0.73716657794E+01 -0.54787395993E+02  0.16016215740E+01  0.55304298276E+02  0.00000000000E+00 0.  1.
         11    1    3    3    0    0 -0.34874862405E+02 -0.48657740932E+02  0.11874586598E+03  0.13298275252E+03  0.00000000000E+00 0. -1.
</event>
<event>
 7    1  0.6988825E-006  0.9686310E+02  0.7561462E-02  0.1287034E+00
         -1   -1    0    0    0  501 -0.00000000000E+00  0.00000000000E+00  0.17934773986E+02  0.17934773986E+02  0.00000000000E+00 0.  1.
          1   -1    0    0  501    0  0.00000000000E+00 -0.00000000000E+00 -0.86340649442E+03  0.86340649442E+03  0.00000000000E+00 0. -1.
         23    2    1    2    0    0 -0.30463400741E+02 -0.30845529565E+02 -0.22098634520E+03  0.24297669658E+03  0.91231819210E+02 0.  0.
          5    1    1    2  502    0 -0.30913924431E+02  0.66806975009E+01 -0.45222163960E+02  0.55342740771E+02  0.41800000000E+01 0. -1.
         -5    1    1    2    0  502  0.61377325171E+02  0.24164832064E+02 -0.57926321127E+03  0.58302183106E+03  0.41800000000E+01 0. -1.
        -11    1    3    3    0    0  0.96450133981E+01  0.25100915664E+02 -0.10226927389E+03  0.10574538587E+03  0.00000000000E+00 0.  1.
         11    1    3    3    0    0 -0.40108414139E+02 -0.55946445229E+02 -0.11871707131E+03  0.13723131071E+03  0.00000000000E+00 0. -1.
</event>
<event>
 7    1  0.6988825E-006  0.8658692E+02  0.7561462E-02  0.1311334E+00
         -2   -1    0    0    0  501 -0.00000000000E+00  0.00000000000E+00  0.77116029655E+02  0.77116029655E+02  0.00000000000E+00 0.  1.
          2   -1    0    0  501    0  0.00000000000E+00 -0.00000000000E+00 -0.16039095437E+03  0.16039095437E+03  0.00000000000E+00 0. -1.
         23    2    1    2    0    0 -0.12016854405E+02  0.14567660001E+02 -0.14250969466E+02  0.93396069847E+02  0.90349954203E+02 0.  0.
          5    1    1    2  502    0 -0.56399566067E+02 -0.88903021848E+01 -0.25146149403E+02  0.62527991773E+02  0.41800000000E+01 0.  1.
         -5    1    1    2    0  502  0.68416420472E+02 -0.56773578157E+01 -0.43877805843E+02  0.81582922401E+02  0.41800000000E+01 0.  1.
        -11    1    3    3    0    0 -0.75479179562E+01 -0.15239381516E+02  0.33130684258E+02  0.37240462589E+02  0.00000000000E+00 0.  1.
         11    1    3    3    0    0 -0.44689364488E+01  0.29807041516E+02 -0.47381653724E+02  0.56155607258E+02  0.00000000000E+00 0. -1.
</event>
<event>
 7    1  0.6988825E-006  0.1564961E+03  0.7561462E-02  0.1192710E+00
          2   -1    0    0  501    0  0.00000000000E+00  0.00000000000E+00  0.59439044511E+03  0.59439044511E+03  0.00000000000E+00 0.  1.
         -2   -1    0    0    0  501 -0.00000000000E+00 -0.00000000000E+00 -0.61412262073E+02  0.61412262073E+02  0.00000000000E+00 0. -1.
         23    2    1    2    0    0 -0.10869833787E+03 -0.71070716741E+02  0.10089523468E+03  0.18760411474E+03  0.90272255151E+02 0.  0.
          5    1    1    2  502    0  0.29222885254E+02 -0.19075755919E+02  0.23285624705E+03  0.23549387609E+03  0.41800000000E+01 0.  1.
         -5    1    1    2    0  502  0.79475452618E+02  0.90146472660E+02  0.19922670131E+03  0.23270471636E+03  0.41800000000E+01 0.  1.
        -11    1    3    3    0    0 -0.46630080026E+01 -0.51528936355E+02  0.25782627072E+02  0.57807601440E+02  0.00000000000E+00 0. -1.
         11    1    3    3    0    0 -0.10403532987E+03 -0.19541780385E+02  0.75112607613E+02  0.12979651330E+03  0.00000000000E+00 0.  1.
</event>
<event>
 7    1  0.6988825E-006  0.2796985E+03  0.7561462E-02  0.1095854E+00
         -3   -1    0    0    0  501 -0.00000000000E+00  0.00000000000E+00  0.69868385010E+02  0.69868385010E+02  0.00000000000E+00 0.  1.
          3   -1    0    0  501    0  0.00000000000E+00 -0.00000000000E+00 -0.14591369164E+04  0.14591369164E+04  0.00000000000E+00 0. -1.
         23    2    1    2    0    0 -0.49370257793E+02  0.26448390735E+03 -0.36439345562E+03  0.46204478044E+03  0.91179104126E+02 0.  0.
          5    1    1    2  502    0  0.53034400496E+02 -0.27295376924E+03 -0.90758172194E+03  0.94923045788E+03  0.41800000000E+01 0.  1.
         -5    1    1    2    0  502 -0.36641427029E+01  0.84698618848E+01 -0.11729335382E+03  0.11773006308E+03  0.41800000000E+01 0.  1.
        -11    1    3    3    0    0 -0.45474700180E+02  0.15277024382E+03 -0.14347802441E+03  0.21445894535E+03  0.00000000000E+00 0. -1.
         11    1    3    3    0    0 -0.38955576135E+01  0.11171366353E+03 -0.22091543121E+03  0.24758583509E+03  0.00000000000E+00 0.  1.
</event>
<event>
 7    1  0.6988825E-006  0.1086503E+03  0.7561462E-02  0.1263090E+00
          2   -1    0    0  501    0  0.00000000000E+00  0.00000000000E+00  0.21191374215E+03  0.21191374215E+03  0.00000000000E+00 0. -1.
         -2   -1    0    0    0  501 -0.00000000000E+00 -0.00000000000E+00 -0.99377724960E+02  0.99377724960E+02  0.00000000000E+00 0.  1.
         23    2    1    2    0    0  0.53613665792E+02  0.63181461276E+02 -0.26565584062E+01  0.12212657576E+03  0.89674528136E+02 0.  0.
          5    1    1    2  502    0 -0.34555615285E+02 -0.19631716842E+01  0.11977864506E+03  0.12474911143E+03  0.41800000000E+01 0. -1.
         -5    1    1    2    0  502 -0.19058050507E+02 -0.61218289592E+02 -0.45860694568E+01  0.64415779920E+02  0.41800000000E+01 0. -1.
        -11    1    3    3    0    0  0.28216583274E+02  0.81907304277E+02 -0.15593111517E+02  0.88023446833E+02  0.00000000000E+00 0.  1.
         11    1    3    3    0    0  0.25397082517E+02 -0.18725843000E+02  0.12936553111E+02  0.34103128931E+02  0.00000000000E+00 0. -1.
</event>
<event>
 7    1  0.6988825E-006  0.9749174E+02  0.7561462E-02  0.1285661E+00
         -1   -1    0    0    0  501 -0.00000000000E+00  0.00000000000E+00  0.70278312551E+02  0.70278312551E+02  0.00000000000E+00 0.  1.
          1   -1    0    0  501    0  0.00000000000E+00 -0.00000000000E+00 -0.20919630709E+03  0.20919630709E+03  0.00000000000E+00 0. -1.
         23    2    1    2    0    0 -0.16511317030E+02  0.35496622747E+02 -0.33773125456E+01  0.96865536685E+02  0.88537518267E+02 0.  0.
          5    1    1    2  502    0  0.29195998314E+02  0.37702004510E+02 -0.49540445599E+02  0.68888138397E+02  0.41800000000E+01 0. -1.
         -5    1    1    2    0  502 -0.12684681284E+02 -0.73198627257E+02 -0.86000236396E+02  0.11372094456E+03  0.41800000000E+01 0.  1.
        -11    1    3    3    0    0  0.20802643129E+02  0.27611185666E+02 -0.33596540925E+02  0.48206380254E+02  0.00000000000E+00 0. -1.
         11    1    3    3    0    0 -0.37313960159E+02  0.78854370802E+01  0.30219228380E+02  0.48659156431E+02  0.00000000000E+00 0.  1.
</event>
<event>
 7    1  0.6988825E-006  0.1305886E+03  0.7561462E-02  0.1226585E+00
         -2   -1    0    0    0  501 -0.00000000000E+00  0.00000000000E+00  0.71872804623E+02  0.71872804623E+02  0.00000000000E+00 0.  1.
          2   -1    0    0  501    0  0.00000000000E+00 -0.00000000000E+00 -0.44169667732E+03  0.44169667732E+03  0.00000000000E+00 0. -1.
         23    2    1    2    0    0 -0.49106632810E+02 -0.10295996141E+03 -0.52824723986E+02  0.15419775608E+03  0.89298832454E+02 0.  0.
          5    1    1    2  502    0  0.45424159523E+02  0.37987818475E+01 -0.20336235222E+03  0.20845024277E+03  0.41800000000E+01 0.  1.
         -5    1    1    2    0  502  0.36824732869E+01  0.99161179558E+02 -0.11363679649E+03  0.15092148309E+03  0.41800000000E+01 0.  1.
        -11    1    3    3    0    0 -0.28736385091E+02 -0.81859271882E+02  0.75415847534E+01  0.87083843057E+02  0.00000000000E+00 0.  1.
         11    1    3    3    0    0 -0.20370247719E+02 -0.21100689524E+02 -0.60366308740E+02  0.67113913024E+02  0.00000000000E+00 0. -1.
</event>
<event>
 7    1  0.6988825E-006  0.1270759E+03  0.7561462E-02  0.1231860E+00
          2   -1    0    0  501    0  0.00000000000E+00  0.00000000000E+00  0.77685814912E+02  0.77685814912E+02  0.00000000000E+00 0.  1.
         -2   -1    0    0    0  501 -0.00000000000E+00 -0.00000000000E+00 -0.28463297216E+03  0.28463297216E+03  0.00000000000E+00 0. -1.
         23    2    1    2    0    0  0.23635358368E+02 -0.97281074704E+02 -0.12198163597E+03  0.18096730909E+03  0.88585607098E+02 0.  0.
          5    1    1    2  502    0  0.28384979534E+02  0.46057611060E+02  0.16103541950E+02  0.56602182494E+02  0.41800000000E+01 0.  1.
         -5    1    1    2    0  502 -0.52020337902E+02  0.51223463643E+02 -0.10106906323E+03  0.12474929549E+03  0.41800000000E+01 0.  1.
        -11    1    3    3    0    0 -0.23929432996E+02 -0.65034816305E+02 -0.37498096077E+02  0.78792463502E+02  0.00000000000E+00 0.  1.
         11    1    3    3    0    0  0.47564791363E+02 -0.32246258399E+02 -0.84483539895E+02  0.10217484559E+03  0.00000000000E+00 0. -1.
</event>
<event>
 7    1  0.6988825E-006  0.1009011E+03  0.7561462E-02  0.1278412E+00
          1   -1    0    0  501    0  0.00000000000E+00  0.00000000000E+00  0.27936170206E+03  0.27936170206E+03  0.00000000000E+00 0. -1.
         -1   -1    0    0    0  501 -0.00000000000E+00 -0.00000000000E+00 -0.59016424101E+02  0.59016424101E+02  0.00000000000E+00 0.  1.
         23    2    1    2    0    0  0.15455678745E+02  0.65956321326E+02  0.83365661156E+02  0.14089336852E+03  0.91170134944E+02 0.  0.
          5    1    1    2  502    0  0.32436626417E+02  0.25935454904E+01  0.10128598074E+03  0.10646681880E+03  0.41800000000E+01 0.  1.
         -5    1    1    2    0  502 -0.47892305162E+02 -0.68549866816E+02  0.35693636062E+02  0.91017938834E+02  0.41800000000E+01 0.  1.
        -11    1    3    3    0    0 -0.94279550805E+01  0.58551325722E+02  0.63797295578E+01  0.59647674138E+02  0.00000000000E+00 0.  1.
         11    1    3    3    0    0  0.24883633825E+02  0.74049956039E+01  0.76985931599E+02  0.81245694386E+02  0.00000000000E+00 0. -1.
</event>
<event>
 7    1  0.6988825E-006  0.1285791E+03  0.7561462E-02  0.1229579E+00
         -1   -1    0    0    0  501 -0.00000000000E+00  0.00000000000E+00  0.52749644487E+02  0.52749644487E+02  0.00000000000E+00 0.  1.
          1   -1    0    0  501    0  0.00000000000E+00 -0.00000000000E+00 -0.42192741057E+03  0.42192741057E+03  0.00000000000E+00 0. -1.
         23    2    1    2    0    0 -0.28865897836E+02  0.80300152858E+02 -0.77250368099E+02  0.14581471094E+03  0.89515115760E+02 0.  0.
          5    1    1    2  502    0  0.77126616114E+02 -0.51423595627E+02 -0.20785449238E+03  0.22762658786E+03  0.41800000000E+01 0.  1.
         -5    1    1    2    0  502 -0.48260718279E+02 -0.28876557231E+02 -0.84072905608E+02  0.10123575625E+03  0.41800000000E+01 0.  1.
        -11    1    3    3    0    0 -0.36604557005E+01 -0.11867350671E+02  0.10363693478E+02  0.16175261679E+02  0.00000000000E+00 0.  1.
         11    1    3    3    0    0 -0.25205442135E+02  0.92167503529E+02 -0.87614061576E+02  0.12963944927E+03  0.00000000000E+00 0. -1.
</event>
<event>
 7    1  0.6988825E-006  0.1112179E+03  0.7561462E-02  0.1258331E+00
          3   -1    0    0  501    0  0.00000000000E+00  0.00000000000E+00  0.37759193813E+02  0.37759193813E+02  0.00000000000E+00 0. -1.
         -3   -1    0    0    0  501 -0.00000000000E+00 -0.00000000000E+00 -0.39499837950E+03  0.39499837950E+03  0.00000000000E+00 0.  1.
         23    2    1    2    0    0 -0.53312904310E+02 -0.15035118135E+02 -0.16236750205E+03  0.19465940916E+03  0.91982385859E+02 0.  0.
          5    1    1    2  502    0  0.93485563604E+02  0.68384614756E+01 -0.11683522093E+03  0.14984744378E+03  0.41800000000E+01 0.  1.
         -5    1    1    2    0  502 -0.40172659293E+02  0.81966566592E+01 -0.78036462706E+02  0.88250720375E+02  0.41800000000E+01 0.  1.
        -11    1    3    3    0    0 -0.56817393554E+02  0.13700558231E+02 -0.15370593272E+03  0.16444280239E+03  0.00000000000E+00 0.  1.
         11    1    3    3    0    0  0.35044892438E+01 -0.28735676366E+02 -0.86615693309E+01  0.30216606764E+02  0.00000000000E+00 0. -1.
</event>
<event>
 7    1  0.6988825E-006  0.1066055E+03  0.7561462E-02  0.1266988E+00
         -1   -1    0    0    0  501 -0.00000000000E+00  0.00000000000E+00  0.23054095452E+02  0.23054095452E+02  0.00000000000E+00 0.  1.
          1   -1    0    0  501    0  0.00000000000E+00 -0.00000000000E+00 -0.57176299738E+03  0.57176299738E+03  0.00000000000E+00 0. -1.
         23    2    1    2    0    0 -0.31167807522E+01  0.22504007562E+02 -0.15965829420E+03  0.18543738753E+03  0.91542935865E+02 0.  0.
          5    1    1    2  502    0 -0.32478841575E+02  0.40770520260E+02 -0.20286645186E+03  0.20949792401E+03  0.41800000000E+01 0.  1.
         -5    1    1    2    0  502  0.35595622327E+02 -0.63274527822E+02 -0.18618415586E+03  0.19988178129E+03  0.41800000000E+01 0.  1.
        -11    1    3    3    0    0  0.33213321263E+02 -0.14589671628E+02 -0.35042398425E+02  0.50437614089E+02  0.00000000000E+00 0.  1.
         11    1    3    3    0    0 -0.36330102015E+02  0.37093679190E+02 -0.12461589578E+03  0.13499977344E+03  0.00000000000E+00 0. -1.
</event>
<event>
 7    1  0.6988825E-006  0.1080859E+03  0.7561462E-02  0.1264156E+00
         -1   -1    0    0    0  501 -0.00000000000E+00  0.00000000000E+00  0.80672787395E+02  0.80672787395E+02  0.00000000000E+00 0.  1.
          1   -1    0    0  501    0  0.00000000000E+00 -0.00000000000E+00 -0.40742911431E+03  0.40742911431E+03  0.00000000000E+00 0. -1.
         23    2    1    2    0    0  0.86185732961E+02 -0.13322780205E+02 -0.70793780082E+01  0.13829061846E+03  0.10709201894E+03 0.  0.
          5    1    1    2  502    0 -0.59788584989E+02  0.14819768274E+02 -0.31694724159E+03  0.32290451651E+03  0.41800000000E+01 0. -1.
         -5    1    1    2    0  502 -0.26397147973E+02 -0.14969880694E+01 -0.27297073092E+01  0.26906766739E+02  0.41800000000E+01 0.  1.
        -11    1    3    3    0    0 -0.18030122589E+02 -0.14970930340E+02  0.19768388740E+02  0.30659472748E+02  0.00000000000E+00 0. -1.
         11    1    3    3    0    0  0.10421585555E+03  0.16481501349E+01 -0.26847766749E+02  0.10763114571E+03  0.00000000000E+00 0.  1.
</event>
<event>
 7    1  0.6988825E-006  0.1180896E+03  0.7561462E-02  0.1246282E+00
          2   -1    0    0  501    0  0.00000000000E+00  0.00000000000E+00  0.93781627546E+03  0.93781627546E+03  0.00000000000E+00 0. -1.
         -2   -1    0    0    0  501 -0.00000000000E+00 -0.00000000000E+00 -0.17928849251E+02  0.17928849251E+02  0.00000000000E+00 0.  1.
         23    2    1    2    0    0  0.17179073894E+02 -0.63934675197E+02  0.32803390918E+03  0.34721130984E+03  0.92556387361E+02 0.  0.
          5    1    1    2  502    0 -0.40598467602E+02 -0.12616662599E+02  0.82430732739E+02  0.92842414050E+02  0.41800000000E+01 0. -1.
         -5    1    1    2    0  502  0.23419393708E+02  0.76551337797E+02  0.50942278429E+03  0.51569140082E+03  0.41800000000E+01 0. -1.
        -11    1    3    3    0    0 -0.36995760511E+02 -0.38685215685E+02  0.13886285828E+03  0.14882246342E+03  0.00000000000E+00 0.  1.
         11    1    3    3    0    0  0.54174834405E+02 -0.25249459512E+02  0.18917105090E+03  0.19838884642E+03  0.00000000000E+00 0. -1.
</event>
<event>
 7    1  0.6988825E-006  0.1367198E+03  0.7561462E-02  0.1217812E+00
          1   -1    0    0  501    0  0.00000000000E+00  0.00000000000E+00  0.14687488263E+04  0.14687488263E+04  0.00000000000E+00 0. -1.
         -1   -1    0    0    0  501 -0.00000000000E+00 -0.00000000000E+00 -0.16053905876E+02  0.16053905876E+02  0.00000000000E+00 0.  1.
         23    2    1    2    0    0 -0.37454785445E+02 -0.90872763561E+02  0.44841332016E+03  0.46799892653E+03  0.91037187029E+02 0.  0.
          5    1    1    2  502    0  0.72843169497E+02  0.77603150342E+02  0.89024466838E+03  0.89659434432E+03  0.41800000000E+01 0. -1.
         -5    1    1    2    0  502 -0.35388384052E+02  0.13269613219E+02  0.11403693193E+03  0.12020946138E+03  0.41800000000E+01 0. -1.
        -11    1    3    3    0    0 -0.35928307897E+02 -0.10691130219E+03  0.42403077418E+03  0.43877439226E+03  0.00000000000E+00 0. -1.
         11    1    3    3    0    0 -0.15264775478E+01  0.16038538628E+02  0.24382545978E+02  0.29224534272E+02  0.00000000000E+00 0.  1.
</event>
<event>
 7    1  0.6988825E-006  0.1731645E+03  0.7561462E-02  0.1174587E+00
          2   -1    0    0  501    0  0.00000000000E+00  0.00000000000E+00  0.12885898910E+04  0.12885898910E+04  0.00000000000E+00 0.  1.
         -2   -1    0    0    0  501 -0.00000000000E+00 -0.00000000000E+00 -0.24329174196E+02  0.24329174196E+02  0.00000000000E+00 0. -1.
         23    2    1    2    0    0 -0.11394709502E+03 -0.80342058116E+02  0.53708276728E+03  0.56199931908E+03  0.89143418021E+02 0.  0.
          5    1    1    2  502    0  0.32611607669E+02  0.98181420268E+02  0.42752037622E+03  0.43987981622E+03  0.41800000000E+01 0. -1.
         -5    1    1    2    0  502  0.81335487353E+02 -0.17839362152E+02  0.29965757334E+03  0.31103992992E+03  0.41800000000E+01 0. -1.
        -11    1    3    3    0    0 -0.12079795928E+03 -0.54217568654E+02  0.37517019167E+03  0.39784967568E+03  0.00000000000E+00 0. -1.
         11    1    3    3    0    0  0.68508642604E+01 -0.26124489461E+02  0.16191257560E+03  0.16414964340E+03  0.00000000000E+00 0.  1.
</event>
<event>
 7    1  0.6988825E-006  0.8933303E+02  0.7561462E-02  0.1304475E+00
          2   -1    0    0  501    0  0.00000000000E+00  0.00000000000E+00  0.10861308306E+04  0.10861308306E+04  0.00000000000E+00 0. -1.
         -2   -1    0    0    0  501 -0.00000000000E+00 -0.00000000000E+00 -0.14035086915E+02  0.14035086915E+02  0.00000000000E+00 0.  1.
         23    2    1    2    0    0  0.14918627352E+02 -0.44914452486E+02  0.32571967373E+03  0.34190170223E+03  0.92539692315E+02 0.  0.
          5    1    1    2  502    0  0.32940214154E+01  0.57449123913E+02  0.72479193840E+03  0.72708464348E+03  0.41800000000E+01 0.  1.
         -5    1    1    2    0  502 -0.18212648767E+02 -0.12534671426E+02  0.21584131577E+02  0.31179571819E+02  0.41800000000E+01 0.  1.
        -11    1    3    3    0    0  0.50886185875E+02 -0.19802624600E+02  0.23323042421E+03  0.23953700890E+03  0.00000000000E+00 0.  1.
         11    1    3    3    0    0 -0.35967558524E+02 -0.25111827886E+02  0.92489249516E+02  0.10236469334E+03  0.00000000000E+00 0. -1.
</event>
<event>
 7    1  0.6988825E-006  0.7745018E+02  0.7561462E-02  0.1336447E+00
          2   -1    0    0  501    0  0.00000000000E+00  0.00000000000E+00  0.53139015520E+03  0.53139015520E+03  0.00000000000E+00 0. -1.
         -2   -1    0    0    0  501 -0.00000000000E+00 -0.00000000000E+00 -0.51532198293E+02  0.51532198293E+02  0.00000000000E+00 0.  1.
         23    2    1    2    0    0  0.25502908209E+02  0.25665209197E+02  0.19684730926E+02  0.10467913393E+03  0.96234771049E+02 0.  0.
          5    1    1    2  502    0  0.21009190285E+02  0.41620454447E+01  0.38089252667E+03  0.38151710050E+03  0.41800000000E+01 0. -1.
         -5    1    1    2    0  502 -0.46512098493E+02 -0.29827254641E+02  0.79280699309E+02  0.96726119061E+02  0.41800000000E+01 0. -1.
        -11    1    3    3    0    0 -0.18143339601E+02  0.28657320630E+02 -0.25006112530E+02  0.42139393226E+02  0.00000000000E+00 0.  1.
         11    1    3    3    0    0  0.43646247810E+02 -0.29921114336E+01  0.44690843456E+02  0.62539740706E+02  0.00000000000E+00 0. -1.
</event>
<event>
 7    1  0.6988825E-006  0.3832333E+03  0.7561462E-02  0.1049745E+00
         -1   -1    0    0    0  501 -0.00000000000E+00  0.00000000000E+00  0.20775408427E+03  0.20775408427E+03  0.00000000000E+00 0.  1.
          1   -1    0    0  501    0  0.00000000000E+00 -0.00000000000E+00 -0.97286877468E+03  0.97286877468E+03  0.00000000000E+00 0. -1.
         23    2    1    2    0    0 -0.12911023689E+03  0.36007126227E+03 -0.10432847284E+03  0.40692667454E+03  0.91564846036E+02 0.  0.
          5    1    1    2  502    0  0.11151695895E+03 -0.33417226759E+03 -0.65168738348E+03  0.74082457758E+03  0.41800000000E+01 0. -1.
         -5    1    1    2    0  502  0.17593277935E+02 -0.25898994679E+02 -0.90988340851E+01  0.32871606830E+02  0.41800000000E+01 0. -1.
        -11    1    3    3    0    0 -0.74124197641E+02  0.21545843275E+03 -0.15159615954E+02  0.22835618422E+03  0.00000000000E+00 0.  1.
         11    1    3    3    0    0 -0.54986039245E+02  0.14461282952E+03 -0.89168856890E+02  0.17857049032E+03  0.00000000000E+00 0. -1.
</event>
<event>
 7    1  0.6988825E-006  0.6605079E+02  0.7561462E-02  0.1374062E+00
          1   -1    0    0  501    0  0.00000000000E+00  0.00000000000E+00  0.16636087614E+03  0.16636087614E+03  0.00000000000E+00 0. -1.
         -1   -1    0    0    0  501 -0.00000000000E+00 -0.00000000000E+00 -0.10970132648E+03  0.10970132648E+03  0.00000000000E+00 0.  1.
         23    2    1    2    0    0 -0.22833293497E+02  0.21599757890E+02 -0.49470573007E+02  0.10903442787E+03  0.91941612097E+02 0.  0.
          5    1    1    2  502    0  0.10123700241E+02 -0.52714207312E+02  0.11914424640E+03  0.13074441024E+03  0.41800000000E+01 0. -1.
         -5    1    1    2    0  502  0.12709593256E+02  0.31114449423E+02 -0.13014123731E+02  0.36283364509E+02  0.41800000000E+01 0. -1.
        -11    1    3    3    0    0 -0.54851333370E+01  0.25936734255E+02  0.22564390977E+02  0.34813109768E+02  0.00000000000E+00 0. -1.
         11    1    3    3    0    0 -0.17348160161E+02 -0.43369763652E+01 -0.72034963984E+02  0.74221318104E+02  0.00000000000E+00 0.  1.
</event>
<event>
 7    1  0.6988825E-006  0.1789350E+03  0.7561462E-02  0.1168838E+00
          1   -1    0    0  501    0  0.00000000000E+00  0.00000000000E+00  0.29324133795E+03  0.29324133795E+03  0.00000000000E+00 0. -1.
         -1   -1    0    0    0  501 -0.00000000000E+00 -0.00000000000E+00 -0.14609288235E+03  0.14609288235E+03  0.00000000000E+00 0.  1.
         23    2    1    2    0    0  0.85608842324E+02 -0.12305888634E+03 -0.27993259719E+02  0.17803415118E+03  0.91870414204E+02 0.  0.
          5    1    1    2  502    0 -0.99036895902E+02  0.40768763866E+02  0.12173617825E+03  0.16219607995E+03  0.41800000000E+01 0. -1.
         -5    1    1    2    0  502  0.13428053578E+02  0.82290122477E+02  0.53405537065E+02  0.99103989170E+02  0.41800000000E+01 0.  1.
        -11    1    3    3    0    0 -0.71169572683E+01 -0.46263185863E+02  0.16569890330E+02  0.49653748222E+02  0.00000000000E+00 0. -1.
         11    1    3    3    0    0  0.92725799592E+02 -0.76795700479E+02 -0.44563150049E+02  0.12838040296E+03  0.00000000000E+00 0.  1.
</event>
<event>
 7    1  0.6988825E-006  0.1017477E+03  0.7561462E-02  0.1276663E+00
          1   -1    0    0  501    0  0.00000000000E+00  0.00000000000E+00  0.62613184403E+03  0.62613184403E+03  0.00000000000E+00 0. -1.
         -1   -1    0    0    0  501 -0.00000000000E+00 -0.00000000000E+00 -0.21580410496E+02  0.21580410496E+02  0.00000000000E+00 0.  1.
         23    2    1    2    0    0  0.19012390524E+02 -0.31096805038E+02  0.19591407745E+03  0.21880586393E+03  0.90361485562E+02 0.  0.
          5    1    1    2  502    0  0.14169252639E+02  0.71067413119E+02  0.17367409390E+03  0.18823259075E+03  0.41800000000E+01 0.  1.
         -5    1    1    2    0  502 -0.33181643163E+02 -0.39970608081E+02  0.23496326219E+03  0.24067379984E+03  0.41800000000E+01 0.  1.
        -11    1    3    3    0    0  0.17479824208E+02  0.20631724090E+02  0.15612722308E+02  0.31224499854E+02  0.00000000000E+00 0.  1.
         11    1    3    3    0    0  0.15325663163E+01 -0.51728529128E+02  0.18030135514E+03  0.18758136408E+03  0.00000000000E+00 0. -1.
</event>
<event>
 7    1  0.6988825E-006  0.1019697E+03  0.7561462E-02  0.1276208E+00
         -1   -1    0    0    0  501 -0.00000000000E+00  0.00000000000E+00  0.60389680444E+03  0.60389680444E+03  0.00000000000E+00 0.  1.
          1   -1    0    0  501    0  0.00000000000E+00 -0.00000000000E+00 -0.27403646045E+02  0.27403646045E+02  0.00000000000E+00 0. -1.
         23    2    1    2    0    0 -0.57012570205E+00  0.25186935934E+02  0.45165027914E+03  0.46100950236E+03  0.88921762466E+02 0.  0.
          5    1    1    2  502    0 -0.13606555956E+02 -0.66357714024E+02  0.97188044040E+02  0.11853890872E+03  0.41800000000E+01 0. -1.
         -5    1    1    2    0  502  0.14176681658E+02  0.41170778090E+02  0.27654835214E+02  0.51752039400E+02  0.41800000000E+01 0.  1.
        -11    1    3    3    0    0 -0.19700556389E+02  0.54147597576E+02  0.29176680482E+03  0.29740198829E+03  0.00000000000E+00 0.  1.
         11    1    3    3    0    0  0.19130430687E+02 -0.28960661642E+02  0.15988347432E+03  0.16360751407E+03  0.00000000000E+00 0. -1.
</event>
<event>
 7    1  0.6988825E-006  0.1006967E+03  0.7561462E-02  0.1278838E+00
          2   -1    0    0  501    0  0.00000000000E+00  0.00000000000E+00  0.52912732495E+03  0.52912732495E+03  0.00000000000E+00 0. -1.
         -2   -1    0    0    0  501 -0.00000000000E+00 -0.00000000000E+00 -0.22257311464E+02  0.22257311464E+02  0.00000000000E+00 0.  1.
         23    2    1    2    0    0 -0.21240269415E+02 -0.59315868952E+01  0.22003309990E+03  0.23768263890E+03  0.87132881372E+02 0.  0.
          5    1    1    2  502    0  0.48825690327E+02 -0.45590318668E+02  0.17666428495E+03  0.18891841405E+03  0.41800000000E+01 0.  1.
         -5    1    1    2    0  502 -0.27585420912E+02  0.51521905563E+02  0.11017262864E+03  0.12478358346E+03  0.41800000000E+01 0.  1.
        -11    1    3    3    0    0  0.63944370099E+01  0.29924793939E+02  0.31997452074E+02  0.44274361161E+02  0.00000000000E+00 0.  1.
         11    1    3    3    0    0 -0.27634706425E+02 -0.35856380834E+02  0.18803564783E+03  0.19340827774E+03  0.00000000000E+00 0. -1.
</event>
<event>
 7    1  0.6988825E-006  0.1156323E+03  0.7561462E-02  0.1250481E+00
          2   -1    0    0  501    0  0.00000000000E+00  0.00000000000E+00  0.88725147514E+03  0.88725147514E+03  0.00000000000E+00 0. -1.
         -2   -1    0    0    0  501 -0.00000000000E+00 -0.00000000000E+00 -0.21021637436E+02  0.21021637436E+02  0.00000000000E+00 0.  1.
         23    2    1    2    0    0 -0.37222871913E+02 -0.17603903834E+02  0.15105195156E+03  0.18107131979E+03  0.90965329424E+02 0.  0.
          5    1    1    2  502    0 -0.38729474128E+02  0.36335896670E+02  0.27690881148E+03  0.28198622631E+03  0.41800000000E+01 0.  1.
         -5    1    1    2    0  502  0.75952346041E+02 -0.18731992836E+02  0.43826907467E+03  0.44521556648E+03  0.41800000000E+01 0.  1.
        -11    1    3    3    0    0  0.26443680324E+02  0.12476734808E+02  0.49610473538E+02  0.57585903008E+02  0.00000000000E+00 0. -1.
         11    1    3    3    0    0 -0.63666552237E+02 -0.30080638643E+02  0.10144147802E+03  0.12348541678E+03  0.00000000000E+00 0.  1.
</event>
<event>
 7    1  0.6988825E-006  0.1279854E+03  0.7561462E-02  0.1230476E+00
         -1   -1    0    0    0  501 -0.00000000000E+00  0.00000000000E+00  0.70481205163E+02  0.70481205163E+02  0.00000000000E+00 0.  1.
          1   -1    0    0  501    0  0.00000000000E+00 -0.00000000000E+00 -0.44263419557E+03  0.44263419557E+03  0.00000000000E+00 0. -1.
         23    2    1    2    0    0  0.49100912971E+02  0.68034810719E+02 -0.18723630012E+02  0.12884630581E+03  0.95974793962E+02 0.  0.
          5    1    1    2  502    0  0.35718667538E+02 -0.35918023533E+02 -0.68995059455E+02  0.85695497281E+02  0.41800000000E+01 0.  1.
         -5    1    1    2    0  502 -0.84819580509E+02 -0.32116787186E+02 -0.28443430094E+03  0.29857359764E+03  0.41800000000E+01 0.  1.
        -11    1    3    3    0    0  0.73663604845E+01  0.72048291545E+02  0.16276640897E+02  0.74230375321E+02  0.00000000000E+00 0.  1.
         11    1    3    3    0    0  0.41734552486E+02 -0.40134808261E+01 -0.35000270909E+02  0.54615930490E+02  0.00000000000E+00 0. -1.
</event>
<event>
 7    1  0.6988825E-006  0.1346369E+03  0.7561462E-02  0.1220733E+00
         -1   -1    0    0    0  501 -0.00000000000E+00  0.00000000000E+00  0.36104641568E+02  0.36104641568E+02  0.00000000000E+00 0.  1.
          1   -1    0    0  501    0  0.00000000000E+00 -0.00000000000E+00 -0.62184620211E+03  0.62184620211E+03  0.00000000000E+00 0. -1.
         23    2    1    2    0    0 -0.49955736432E+02 -0.90547426268E+02 -0.27108276066E+03  0.30389341763E+03  0.90393219569E+02 0.  0.
          5    1    1    2  502    0  0.22303574529E+02 -0.23095881279E+02 -0.22778233644E+02  0.39587744275E+02  0.41800000000E+01 0.  1.
         -5    1    1    2    0  502  0.27652161902E+02  0.11364330755E+03 -0.29188056623E+03  0.31446968177E+03  0.41800000000E+01 0.  1.
        -11    1    3    3    0    0 -0.30622882103E+02 -0.36497375943E+01 -0.15264818366E+03  0.15573230065E+03  0.00000000000E+00 0. -1.
         11    1    3    3    0    0 -0.19332854328E+02 -0.86897688674E+02 -0.11843457700E+03  0.14816111698E+03  0.00000000000E+00 0.  1.
</event>
<event>
 7    1  0.6988825E-006  0.1269893E+03  0.7561462E-02  0.1231993E+00
         -1   -1    0    0    0  501 -0.00000000000E+00  0.00000000000E+00  0.61095577659E+03  0.61095577659E+03  0.00000000000E+00 0.  1.
          1   -1    0    0  501    0  0.00000000000E+00 -0.00000000000E+00 -0.28277930286E+02  0.28277930286E+02  0.00000000000E+00 0. -1.
         23    2    1    2    0    0  0.37968594333E+02  0.64276615321E+02  0.24368623080E+03  0.27026759696E+03  0.89936074269E+02 0.  0.
          5    1    1    2  502    0 -0.30934944314E+02 -0.10152418172E+03  0.22606070440E+03  0.24976998364E+03  0.41800000000E+01 0. -1.
         -5    1    1    2    0  502 -0.70336500196E+01  0.37247566398E+02  0.11293091110E+03  0.11919612627E+03  0.41800000000E+01 0. -1.
        -11    1    3    3    0    0  0.59245973828E+02  0.23698516315E+02  0.93125779439E+02  0.11288983961E+03  0.00000000000E+00 0.  1.
         11    1    3    3    0    0 -0.21277379494E+02  0.40578099006E+02  0.15056045136E+03  0.15737775736E+03  0.00000000000E+00 0. -1.
</event>
<event>
 7    1  0.6988825E-006  0.9354683E+02  0.7561462E-02  0.1294483E+00
          1   -1    0    0  501    0  0.00000000000E+00  0.00000000000E+00  0.19140863415E+03  0.19140863415E+03  0.00000000000E+00 0. -1.
         -1   -1    0    0    0  501 -0.00000000000E+00 -0.00000000000E+00 -0.60909243684E+02  0.60909243684E+02  0.00000000000E+00 0.  1.
         23    2    1    2    0    0 -0.56883984766E+01  0.48058411597E+01  0.61340981975E+02  0.10919327308E+03  0.90027778102E+02 0.  0.
          5    1    1    2  502    0 -0.16895415555E+02 -0.59015271151E+02  0.15462647041E+02  0.63441493908E+02  0.41800000000E+01 0. -1.
         -5    1    1    2    0  502  0.22583814031E+02  0.54209429991E+02  0.53695761448E+02  0.79683110843E+02  0.41800000000E+01 0. -1.
        -11    1    3    3    0    0  0.29184237964E+02  0.11158502284E+02 -0.71689388979E+01  0.32056600002E+02  0.00000000000E+00 0.  1.
         11    1    3    3    0    0 -0.34872636440E+02 -0.63526611243E+01  0.68509920872E+02  0.77136673078E+02  0.00000000000E+00 0. -1.
</event>
<event>
 7    1  0.6988825E-006  0.6451301E+02  0.7561462E-02  0.1379813E+00
          1   -1    0    0  501    0  0.00000000000E+00  0.00000000000E+00  0.14350994180E+04  0.14350994180E+04  0.00000000000E+00 0. -1.
         -1   -1    0    0    0  501 -0.00000000000E+00 -0.00000000000E+00 -0.18302270562E+02  0.18302270562E+02  0.00000000000E+00 0.  1.
         23    2    1    2    0    0 -0.30315971914E+02  0.16837150979E+02  0.14683063336E+03  0.17681975362E+03  0.92214112657E+02 0.  0.
          5    1    1    2  502    0  0.58792453963E+02 -0.80727825479E+01  0.28436600716E+03  0.29052232426E+03  0.41800000000E+01 0.  1.
         -5    1    1    2    0  502 -0.28476482049E+02 -0.87643684313E+01  0.98560050694E+03  0.98605961070E+03  0.41800000000E+01 0.  1.
        -11    1    3    3    0    0 -0.32096539729E+01  0.11346296171E+02 -0.11274281435E+02  0.16314096276E+02  0.00000000000E+00 0.  1.
         11    1    3    3    0    0 -0.27106317941E+02  0.54908548079E+01  0.15810491479E+03  0.16050565735E+03  0.00000000000E+00 0. -1.
</event>
<event>
 7    1  0.6988825E-006  0.1113326E+03  0.7561462E-02  0.1258122E+00
          1   -1    0    0  501    0  0.00000000000E+00  0.00000000000E+00  0.15724835900E+03  0.15724835900E+03  0.00000000000E+00 0. -1.
         -1   -1    0    0    0  501 -0.00000000000E+00 -0.00000000000E+00 -0.22714996493E+03  0.22714996493E+03  0.00000000000E+00 0.  1.
         23    2    1    2    0    0 -0.50588962610E+02 -0.84965085922E+02 -0.15652932394E+03  0.20293363607E+03  0.83080216849E+02 0.  0.
          5    1    1    2  502    0  0.18413138072E+02  0.25631848516E+02  0.10635755760E+03  0.11101998816E+03  0.41800000000E+01 0.  1.
         -5    1    1    2    0  502  0.32175824539E+02  0.59333237406E+02 -0.19729839578E+02  0.70444699699E+02  0.41800000000E+01 0.  1.
        -11    1    3    3    0    0 -0.40343630101E+01 -0.75611790000E+02 -0.12429075617E+03  0.14553903580E+03  0.00000000000E+00 0.  1.
         11    1    3    3    0    0 -0.46554599600E+02 -0.93532959219E+01 -0.32238567774E+02  0.57394600274E+02  0.00000000000E+00 0. -1.
</event>
<event>
 7    1  0.6988825E-006  0.1026262E+03  0.7561462E-02  0.1274868E+00
          1   -1    0    0  501    0  0.00000000000E+00  0.00000000000E+00  0.14050946465E+03  0.14050946465E+03  0.00000000000E+00 0. -1.
         -1   -1    0    0    0  501 -0.00000000000E+00 -0.00000000000E+00 -0.93175265588E+02  0.93175265588E+02  0.00000000000E+00 0.  1.
         23    2    1    2    0    0 -0.22533680558E+02  0.23234404143E+02  0.27678662971E+00  0.96165028961E+02  0.90554027458E+02 0.  0.
          5    1    1    2  502    0  0.26856564276E+01  0.48069463184E+02 -0.24304380398E+01  0.48386624911E+02  0.41800000000E+01 0.  1.
         -5    1    1    2    0  502  0.19848024131E+02 -0.71303867327E+02  0.49487850469E+02  0.89133076362E+02  0.41800000000E+01 0.  1.
        -11    1    3    3    0    0  0.21126403057E+02 -0.14057181173E+02 -0.22961727513E+02  0.34222363727E+02  0.00000000000E+00 0.  1.
         11    1    3    3    0    0 -0.43660083616E+02  0.37291585316E+02  0.23238514143E+02  0.61942665234E+02  0.00000000000E+00 0. -1.
</event>
<event>
 7    1  0.6988825E-006  0.8451633E+02  0.7561462E-02  0.1316702E+00
          2   -1    0    0  501    0  0.00000000000E+00  0.00000000000E+00  0.21260054897E+03  0.21260054897E+03  0.00000000000E+00 0. -1.
         -2   -1    0    0    0  501 -0.00000000000E+00 -0.00000000000E+00 -0.60970432912E+02  0.60970432912E+02  0.00000000000E+00 0.  1.
         23    2    1    2    0    0 -0.25913108293E+02 -0.93103236373E+01  0.32588595164E+02  0.98714633660E+02  0.89019048839E+02 0.  0.
          5    1    1    2  502    0 -0.30427288174E+02  0.14845724377E+02  0.11268559321E+03  0.11773585144E+03  0.41800000000E+01 0. -1.
         -5    1    1    2    0  502  0.56340396467E+02 -0.55354007398E+01  0.63559276820E+01  0.57120496778E+02  0.41800000000E+01 0. -1.
        -11    1    3    3    0    0 -0.49659357462E+02  0.58167460380E+01 -0.66296140155E+01  0.50436475888E+02  0.00000000000E+00 0.  1.
         11    1    3    3    0    0  0.23746249169E+02 -0.15127069675E+02  0.39218209179E+02  0.48278157771E+02  0.00000000000E+00 0. -1.
</event>
<event>
 7    1  0.6988825E-006  0.2368019E+03  0.7561462E-02  0.1121942E+00
          1   -1    0    0  501    0  0.00000000000E+00  0.00000000000E+00  0.24270086961E+03  0.24270086961E+03  0.00000000000E+00 0. -1.
         -1   -1    0    0    0  501 -0.00000000000E+00 -0.00000000000E+00 -0.28064528118E+03  0.28064528118E+03  0.00000000000E+00 0.  1.
         23    2    1    2    0    0  0.20640927174E+03  0.79761634185E+02 -0.10344238362E+03  0.26084889007E+03  0.91515632392E+02 0.  0.
          5    1    1    2  502    0 -0.13461647358E+02 -0.55067724911E+02 -0.10851338423E+01  0.56853497622E+02  0.41800000000E+01 0.  1.
         -5    1    1    2    0  502 -0.19294762438E+03 -0.24693909274E+02  0.66583105886E+02  0.20564376310E+03  0.41800000000E+01 0.  1.
        -11    1    3    3    0    0  0.51098555946E+02  0.10629886046E+02  0.14226196002E+02  0.54096594623E+02  0.00000000000E+00 0.  1.
         11    1    3    3    0    0  0.15531071580E+03  0.69131748139E+02 -0.11766857962E+03  0.20675229545E+03  0.00000000000E+00 0. -1.
</event>
<event>
 7    1  0.6988825E-006  0.9722361E+02  0.7561462E-02  0.1286245E+00
          1   -1    0    0  501    0  0.00000000000E+00  0.00000000000E+00  0.22528002738E+03  0.22528002738E+03  0.00000000000E+00 0. -1.
         -1   -1    0    0    0  501 -0.00000000000E+00 -0.00000000000E+00 -0.66956452106E+02  0.66956452106E+02  0.00000000000E+00 0.  1.
         23    2    1    2    0    0  0.26699356126E+02 -0.30003330354E+02  0.23428907498E+02  0.10393483237E+03  0.92954183467E+02 0.  0.
          5    1    1    2  502    0  0.17605094972E+02 -0.21428544440E+02 -0.87417627914E+01  0.29377077841E+02  0.41800000000E+01 0.  1.
         -5    1    1    2    0  502 -0.44304451098E+02  0.51431874794E+02  0.14363643057E+03  0.15892456927E+03  0.41800000000E+01 0.  1.
        -11    1    3    3    0    0  0.58915226443E+02 -0.81867762641E+01  0.26056762950E+02  0.64938294618E+02  0.00000000000E+00 0.  1.
         11    1    3    3    0    0 -0.32215870317E+02 -0.21816554090E+02 -0.26278554520E+01  0.38996537756E+02  0.00000000000E+00 0. -1.
</event>
<event>
 7    1  0.6988825E-006  0.8981694E+02  0.7561462E-02  0.1303296E+00
          2   -1    0    0  501    0  0.00000000000E+00  0.00000000000E+00  0.16575208934E+03  0.16575208934E+03  0.00000000000E+00 0. -1.
         -2   -1    0    0    0  501 -0.00000000000E+00 -0.00000000000E+00 -0.83726164888E+02  0.83726164888E+02  0.00000000000E+00 0.  1.
         23    2    1    2    0    0  0.28193420692E+00  0.86316050585E+01 -0.12829559343E+02  0.92247564861E+02  0.90941912984E+02 0.  0.
          5    1    1    2  502    0 -0.43051898452E+02 -0.22746513532E+02 -0.34764674395E+01  0.48994163571E+02  0.41800000000E+01 0.  1.
         -5    1    1    2    0  502  0.42769964245E+02  0.14114908473E+02  0.98331951238E+02  0.10823652580E+03  0.41800000000E+01 0.  1.
        -11    1    3    3    0    0  0.40933978113E+02 -0.78230801650E+01 -0.22467112156E+02  0.47345139941E+02  0.00000000000E+00 0. -1.
         11    1    3    3    0    0 -0.40652043906E+02  0.16454685223E+02  0.96375528131E+01  0.44902424921E+02  0.00000000000E+00 0.  1.
</event>
<event>
 7    1  0.6988825E-006  0.1698308E+03  0.7561462E-02  0.1178024E+00
          1   -1    0    0  501    0  0.00000000000E+00  0.00000000000E+00  0.10237431886E+04  0.10237431886E+04  0.00000000000E+00 0. -1.
         -1   -1    0    0    0  501 -0.00000000000E+00 -0.00000000000E+00 -0.35336369022E+02  0.35336369022E+02  0.00000000000E+00 0.  1.
         23    2    1    2    0    0 -0.13533153490E+03 -0.15031594032E+02  0.25985889287E+03  0.30743512450E+03  0.91919195024E+02 0.  0.
          5    1    1    2  502    0  0.15787509832E+03  0.10755225609E+02  0.57731737801E+03  0.59862596744E+03  0.41800000000E+01 0.  1.
         -5    1    1    2    0  502 -0.22543563423E+02  0.42763684233E+01  0.15123054872E+03  0.15301846570E+03  0.41800000000E+01 0.  1.
        -11    1    3    3    0    0 -0.83556719623E+02 -0.48288337008E+02  0.19754801366E+03  0.21986065266E+03  0.00000000000E+00 0.  1.
         11    1    3    3    0    0 -0.51774815278E+02  0.33256742976E+02  0.62310879207E+02  0.87574471840E+02  0.00000000000E+00 0. -1.
</event>
<event>
 7    1  0.6988825E-006  0.1252551E+03  0.7561462E-02  0.1234671E+00
         -1   -1    0    0    0  501 -0.00000000000E+00  0.00000000000E+00  0.25023418300E+02  0.25023418300E+02  0.00000000000E+00 0.  1.
          1   -1    0    0  501    0  0.00000000000E+00 -0.00000000000E+00 -0.80810593799E+03  0.80810593799E+03  0.00000000000E+00 0. -1.
         23    2    1    2    0    0  0.55733140660E+02  0.69603934852E+02 -0.32810932097E+03  0.35292306241E+03  0.94594242767E+02 0.  0.
          5    1    1    2  502    0 -0.10538670512E+02 -0.81513033216E+02 -0.14521450708E+03  0.16691364123E+03  0.41800000000E+01 0. -1.
         -5    1    1    2    0  502 -0.45194470148E+02  0.11909098364E+02 -0.30975869164E+03  0.31329265265E+03  0.41800000000E+01 0. -1.
        -11    1    3    3    0    0  0.56589902439E+02  0.51440678259E+01 -0.91670363648E+02  0.10785329881E+03  0.00000000000E+00 0.  1.
         11    1    3    3    0    0 -0.85676177937E+00  0.64459867026E+02 -0.23643895732E+03  0.24506976361E+03  0.00000000000E+00 0. -1.
</event>
<event>
 7    1  0.6988825E-006  0.1795950E+03  0.7561462E-02  0.1168196E+00
          1   -1    0    0  501    0  0.00000000000E+00  0.00000000000E+00  0.84295148968E+02  0.84295148968E+02  0.00000000000E+00 0. -1.
         -1   -1    0    0    0  501 -0.00000000000E+00 -0.00000000000E+00 -0.41801396129E+03  0.41801396129E+03  0.00000000000E+00 0.  1.
         23    2    1    2    0    0  0.12130628467E+03 -0.92302946759E+02 -0.14735205925E+03  0.23100105992E+03  0.91726831614E+02 0.  0.
          5    1    1    2  502    0 -0.72666530074E+02  0.11554115490E+03 -0.16235563798E+03  0.21214855327E+03  0.41800000000E+01 0.  1.
         -5    1    1    2    0  502 -0.48639754598E+02 -0.23238208145E+02 -0.24011115085E+02  0.59159497063E+02  0.41800000000E+01 0.  1.
        -11    1    3    3    0    0  0.44292255943E+02 -0.78774572922E+02 -0.11529200897E+03  0.14649056150E+03  0.00000000000E+00 0.  1.
         11    1    3    3    0    0  0.77014028729E+02 -0.13528373837E+02 -0.32060050279E+02  0.84510498422E+02  0.00000000000E+00 0. -1.
</event>
<event>
 7    1  0.6988825E-006  0.9275153E+02  0.7561462E-02  0.1296322E+00
          1   -1    0    0  501    0  0.00000000000E+00  0.00000000000E+00  0.33618169140E+03  0.33618169140E+03  0.00000000000E+00 0. -1.
         -1   -1    0    0    0  501 -0.00000000000E+00 -0.00000000000E+00 -0.39652200276E+02  0.39652200276E+02  0.00000000000E+00 0.  1.
         23    2    1    2    0    0 -0.22251997433E+02 -0.14233384741E+02  0.62287504667E+02  0.10897496197E+03  0.85428733274E+02 0.  0.
          5    1    1    2  502    0 -0.79608037649E+01 -0.36242654581E+02  0.18866403294E+03  0.19232393022E+03  0.41800000000E+01 0.  1.
         -5    1    1    2    0  502  0.30212801198E+02  0.50476039322E+02  0.45577953518E+02  0.74534999488E+02  0.41800000000E+01 0.  1.
        -11    1    3    3    0    0  0.32476298939E+02  0.60508625825E+00  0.18944263077E+02  0.37602675778E+02  0.00000000000E+00 0.  1.
         11    1    3    3    0    0 -0.54728296372E+02 -0.14838471000E+02  0.43343241590E+02  0.71372286197E+02  0.00000000000E+00 0. -1.
</event>
<event>
 7    1  0.6988825E-006  0.8736180E+02  0.7561462E-02  0.1309369E+00
          1   -1    0    0  501    0  0.00000000000E+00  0.00000000000E+00  0.13266150734E+04  0.13266150734E+04  0.00000000000E+00 0. -1.
         -1   -1    0    0    0  501 -0.00000000000E+00 -0.00000000000E+00 -0.18222482555E+02  0.18222482555E+02  0.00000000000E+00 0.  1.
         23    2    1    2    0    0 -0.46577443972E+02  0.25110015614E+01  0.17417747836E+03  0.20278492266E+03  0.92780210580E+02 0.  0.
          5    1    1    2  502    0 -0.12910353323E+02  0.24735526621E+02  0.84616045161E+03  0.84663067850E+03  0.41800000000E+01 0.  1.
         -5    1    1    2    0  502  0.59487797295E+02 -0.27246528183E+02  0.28805466090E+03  0.29542195482E+03  0.41800000000E+01 0.  1.
        -11    1    3    3    0    0  0.60165892630E+01 -0.22081504660E+02  0.12385608722E+03  0.12595285839E+03  0.00000000000E+00 0. -1.
         11    1    3    3    0    0 -0.52594033235E+02  0.24592506221E+02  0.50321391133E+02  0.76832064268E+02  0.00000000000E+00 0.  1.
</event>
<event>
 7    1  0.6988825E-006  0.1033765E+03  0.7561462E-02  0.1273352E+00
          1   -1    0    0  501    0  0.00000000000E+00  0.00000000000E+00  0.12826666429E+04  0.12826666429E+04  0.00000000000E+00 0. -1.
         -1   -1    0    0    0  501 -0.00000000000E+00 -0.00000000000E+00 -0.21319597165E+02  0.21319597165E+02  0.00000000000E+00 0.  1.
         23    2    1    2    0    0 -0.11412611444E+02  0.11729534451E+02  0.17078133909E+03  0.20614808109E+03  0.11429320136E+03 0.  0.
          5    1    1    2  502    0  0.68188203377E+02 -0.70761640001E+01  0.63604542231E+03  0.63974288180E+03  0.41800000000E+01 0. -1.
         -5    1    1    2    0  502 -0.56775591933E+02 -0.46533704506E+01  0.45452028438E+03  0.45809527722E+03  0.41800000000E+01 0. -1.
        -11    1    3    3    0    0 -0.44990527425E+02  0.14476020770E+02  0.19442955583E+02  0.51105100109E+02  0.00000000000E+00 0.  1.
         11    1    3    3    0    0  0.33577915981E+02 -0.27464863191E+01  0.15133838351E+03  0.15504298098E+03  0.00000000000E+00 0. -1.
</event>
<event>
 7    1  0.6988825E-006  0.1262126E+03  0.7561462E-02  0.1233186E+00
          2   -1    0    0  501    0  0.00000000000E+00  0.00000000000E+00  0.54300356142E+03  0.54300356142E+03  0.00000000000E+00 0. -1.
         -2   -1    0    0    0  501 -0.00000000000E+00 -0.00000000000E+00 -0.58378142972E+02  0.58378142972E+02  0.00000000000E+00 0.  1.
         23    2    1    2    0    0  0.11482015608E+03  0.35396560868E+02  0.10622886107E+03  0.18512913638E+03  0.92475085563E+02 0.  0.
          5    1    1    2  502    0 -0.99136805848E+02 -0.20111542021E+02  0.12046419378E+03  0.15735842773E+03  0.41800000000E+01 0.  1.
         -5    1    1    2    0  502 -0.15683350235E+02 -0.15285018847E+02  0.25793236360E+03  0.25889414028E+03  0.41800000000E+01 0.  1.
        -11    1    3    3    0    0  0.11407555980E+03  0.22878108533E+02  0.48495406149E+02  0.12604937767E+03  0.00000000000E+00 0.  1.
         11    1    3    3    0    0  0.74459628340E+00  0.12518452335E+02  0.57733454922E+02  0.59079758714E+02  0.00000000000E+00 0. -1.
</event>
<event>
 7    1  0.6988825E-006  0.1817178E+03  0.7561462E-02  0.1166151E+00
         -3   -1    0    0    0  501 -0.00000000000E+00  0.00000000000E+00  0.52122212076E+02  0.52122212076E+02  0.00000000000E+00 0.  1.
          3   -1    0    0  501    0  0.00000000000E+00 -0.00000000000E+00 -0.73828216848E+03  0.73828216848E+03  0.00000000000E+00 0. -1.
         23    2    1    2    0    0 -0.11972560248E+03 -0.96102949871E+02 -0.21938126726E+03  0.28335213805E+03  0.92683854318E+02 0.  0.
          5    1    1    2  502    0  0.90814504036E+02  0.11926631632E+03 -0.29105614521E+03  0.32741850958E+03  0.41800000000E+01 0. -1.
         -5    1    1    2    0  502  0.28911098441E+02 -0.23163366445E+02 -0.17572254393E+03  0.17963373292E+03  0.41800000000E+01 0. -1.
        -11    1    3    3    0    0 -0.40678439004E+02 -0.87728964905E+02 -0.14631747872E+03  0.17538503717E+03  0.00000000000E+00 0. -1.
         11    1    3    3    0    0 -0.79047163474E+02 -0.83739849662E+01 -0.73063788535E+02  0.10796710088E+03  0.00000000000E+00 0.  1.
</event>
<event>
 7    1  0.6988825E-006  0.1198541E+03  0.7561462E-02  0.1243338E+00
          2   -1    0    0  501    0  0.00000000000E+00  0.00000000000E+00  0.13661561978E+03  0.13661561978E+03  0.00000000000E+00 0. -1.
         -2   -1    0    0    0  501 -0.00000000000E+00 -0.00000000000E+00 -0.14881656005E+03  0.14881656005E+03  0.00000000000E+00 0.  1.
         23    2    1    2    0    0  0.79324104315E+02  0.39036455317E+02 -0.14789058767E+02  0.13223248910E+03  0.97213972990E+02 0.  0.
          5    1    1    2  502    0  0.32773890809E+02 -0.15972684687E+02  0.11159484753E+02  0.38357021193E+02  0.41800000000E+01 0.  1.
         -5    1    1    2    0  502 -0.11209799512E+03 -0.23063770630E+02 -0.85713662569E+01  0.11484266954E+03  0.41800000000E+01 0.  1.
        -11    1    3    3    0    0  0.46122169056E+02  0.24746334126E+02  0.40496772883E+02  0.66178728796E+02  0.00000000000E+00 0. -1.
         11    1    3    3    0    0  0.33201935260E+02  0.14290121190E+02 -0.55285831650E+02  0.66053760301E+02  0.00000000000E+00 0.  1.
</event>
<event>
 7    1  0.6988825E-006  0.2107840E+03  0.7561462E-02  0.1140947E+00
          3   -1    0    0  501    0  0.00000000000E+00  0.00000000000E+00  0.86023891255E+03  0.86023891255E+03  0.00000000000E+00 0. -1.
         -3   -1    0    0    0  501 -0.00000000000E+00 -0.00000000000E+00 -0.70041905839E+02  0.70041905839E+02  0.00000000000E+00 0.  1.
         23    2    1    2    0    0  0.20567644220E+03 -0.40654220034E+02  0.25895130206E+03  0.34562265728E+03  0.91889498329E+02 0.  0.
          5    1    1    2  502    0 -0.18205440651E+03  0.36383952498E+02  0.52845384893E+03  0.56013261089E+03  0.41800000000E+01 0. -1.
         -5    1    1    2    0  502 -0.23622035690E+02  0.42702675358E+01  0.27918557105E+01  0.24525550214E+02  0.41800000000E+01 0. -1.
        -11    1    3    3    0    0  0.10600869096E+03 -0.35136222838E+02  0.69659588702E+02  0.13162391505E+03  0.00000000000E+00 0. -1.
         11    1    3    3    0    0  0.99667751242E+02 -0.55179971964E+01  0.18929171336E+03  0.21399874224E+03  0.00000000000E+00 0.  1.
</event>
<event>
 7    1  0.6988825E-006  0.1259613E+03  0.7561462E-02  0.1233574E+00
         -3   -1    0    0    0  501 -0.00000000000E+00  0.00000000000E+00  0.34886637633E+03  0.34886637633E+03  0.00000000000E+00 0.  1.
          3   -1    0    0  501    0  0.00000000000E+00 -0.00000000000E+00 -0.62663214735E+02  0.62663214735E+02  0.00000000000E+00 0. -1.
         23    2    1    2    0    0 -0.69635339593E+02  0.45806180431E+02  0.20714907719E+03  0.24169412756E+03  0.92509591027E+02 0.  0.
          5    1    1    2  502    0  0.45342713247E+02  0.31599649455E+02  0.68193593218E+02  0.87876834526E+02  0.41800000000E+01 0.  1.
         -5    1    1    2    0  502  0.24292626346E+02 -0.77405829886E+02  0.10860491188E+02  0.81958628978E+02  0.41800000000E+01 0.  1.
        -11    1    3    3    0    0 -0.18552107349E+02 -0.23010040889E+02  0.10116089211E+03  0.10539055347E+03  0.00000000000E+00 0.  1.
         11    1    3    3    0    0 -0.51083232244E+02  0.68816221320E+02  0.10598818508E+03  0.13630357409E+03  0.00000000000E+00 0. -1.
</event>
<event>
 7    1  0.6988825E-006  0.9677041E+02  0.7561462E-02  0.1287238E+00
         -1   -1    0    0    0  501 -0.00000000000E+00  0.00000000000E+00  0.62165798919E+02  0.62165798919E+02  0.00000000000E+00 0.  1.
          1   -1    0    0  501    0  0.00000000000E+00 -0.00000000000E+00 -0.25987439068E+03  0.25987439068E+03  0.00000000000E+00 0. -1.
         23    2    1    2    0    0 -0.82456917849E+01 -0.44798310989E+02 -0.29663621661E+02  0.10765741910E+03  0.92926365128E+02 0.  0.
          5    1    1    2  502    0  0.29568141736E+02 -0.10081468835E+02  0.46685737695E+01  0.31861873778E+02  0.41800000000E+01 0. -1.
         -5    1    1    2    0  502 -0.21322449951E+02  0.54879779824E+02 -0.17271354387E+03  0.18252089673E+03  0.41800000000E+01 0. -1.
        -11    1    3    3    0    0  0.93626251518E+01 -0.70898317405E+02 -0.15707547512E+02  0.73218557821E+02  0.00000000000E+00 0.  1.
         11    1    3    3    0    0 -0.17608316937E+02  0.26100006416E+02 -0.13956074150E+02  0.34438861275E+02  0.00000000000E+00 0. -1.
</event>
<event>
 7    1  0.6988825E-006  0.9747979E+02  0.7561462E-02  0.1285687E+00
          1   -1    0    0  501    0  0.00000000000E+00  0.00000000000E+00  0.10468533387E+04  0.10468533387E+04  0.00000000000E+00 0. -1.
         -1   -1    0    0    0  501 -0.00000000000E+00 -0.00000000000E+00 -0.14785112414E+02  0.14785112414E+02  0.00000000000E+00 0.  1.
         23    2    1    2    0    0  0.25778220165E+02 -0.27851985875E+02  0.39125680810E+03  0.40763017040E+03  0.10788983354E+03 0.  0.
          5    1    1    2  502    0 -0.50950578035E+02  0.43607430711E+02  0.17855011334E+03  0.19077522059E+03  0.41800000000E+01 0. -1.
         -5    1    1    2    0  502  0.25172357870E+02 -0.15755444836E+02  0.46226130484E+03  0.46323306013E+03  0.41800000000E+01 0. -1.
        -11    1    3    3    0    0  0.38042980124E+02  0.23676035416E+02  0.78233569657E+02  0.90157165056E+02  0.00000000000E+00 0.  1.
         11    1    3    3    0    0 -0.12264759959E+02 -0.51528021290E+02  0.31302323845E+03  0.31747300535E+03  0.00000000000E+00 0. -1.
</event>
<event>
 7    1  0.6988825E-006  0.8008215E+02  0.7561462E-02  0.1328818E+00
          2   -1    0    0  501    0  0.00000000000E+00  0.00000000000E+00  0.25089485071E+03  0.25089485071E+03  0.00000000000E+00 0. -1.
         -2   -1    0    0    0  501 -0.00000000000E+00 -0.00000000000E+00 -0.54255384975E+02  0.54255384975E+02  0.00000000000E+00 0.  1.
         23    2    1    2    0    0  0.35203512591E+02 -0.19291840572E+02  0.58682921232E+02  0.11464694637E+03  0.89937615359E+02 0.  0.
          5    1    1    2  502    0  0.15607315350E+02  0.34765598401E+02  0.13133323438E+03  0.13681420240E+03  0.41800000000E+01 0. -1.
         -5    1    1    2    0  502 -0.50810827940E+02 -0.15473757829E+02  0.66233101248E+01  0.53689086920E+02  0.41800000000E+01 0. -1.
        -11    1    3    3    0    0  0.22603324437E+02 -0.39046861622E+02  0.73988650833E+02  0.86659610720E+02  0.00000000000E+00 0.  1.
         11    1    3    3    0    0  0.12600188153E+02  0.19755021050E+02 -0.15305729601E+02  0.27987335651E+02  0.00000000000E+00 0. -1.
</event>
<event>
 6    1  0.6988825E-006  0.7698215E+02  0.7561462E-02  0.1337841E+00
         -2   -1    0    0    0  501 -0.00000000000E+00  0.00000000000E+00  0.67757470871E+02  0.67757470871E+02  0.00000000000E+00 0.  1.
          2   -1    0    0  501    0  0.00000000000E+00 -0.00000000000E+00 -0.37077202328E+03  0.37077202328E+03  0.00000000000E+00 0. -1.
          5    1    1    2  502    0 -0.62048960124E+02 -0.24806959197E+02 -0.19121116113E+03  0.20259476602E+03  0.41800000000E+01 0. -1.
         -5    1    1    2    0  502  0.47816626581E+02  0.20632930337E+02 -0.16415213298E+03  0.17226590711E+03  0.41800000000E+01 0.  1.
        -11    1    1    2    0    0 -0.75766685482E+01 -0.69501947796E+01  0.80619627714E+01  0.13065464304E+02  0.00000000000E+00 0. -1.
         11    1    1    2    0    0  0.21809002090E+02  0.11124223639E+02  0.44286778925E+02  0.50603356720E+02  0.00000000000E+00 0.  1.
</event>
<event>
 7    1  0.6988825E-006  0.2287305E+03  0.7561462E-02  0.1127537E+00
         -2   -1    0    0    0  501 -0.00000000000E+00  0.00000000000E+00  0.60596950017E+02  0.60596950017E+02  0.00000000000E+00 0.  1.
          2   -1    0    0  501    0  0.00000000000E+00 -0.00000000000E+00 -0.92131779201E+03  0.92131779201E+03  0.00000000000E+00 0. -1.
         23    2    1    2    0    0  0.17516341732E+03 -0.10181582922E+03 -0.30784051360E+03  0.37994077519E+03  0.92414960858E+02 0.  0.
          5    1    1    2  502    0  0.14847482101E+02  0.29944047695E+02 -0.10215035702E+03  0.10756050185E+03  0.41800000000E+01 0.  1.
         -5    1    1    2    0  502 -0.19001089942E+03  0.71871781522E+02 -0.45072997137E+03  0.49441346500E+03  0.41800000000E+01 0.  1.
        -11    1    3    3    0    0  0.87326854964E+02 -0.99954882223E+02 -0.15914237017E+03  0.20722753693E+03  0.00000000000E+00 0.  1.
         11    1    3    3    0    0  0.87836562357E+02 -0.18609469933E+01 -0.14869814344E+03  0.17271323826E+03  0.00000000000E+00 0. -1.
</event>
<event>
 7    1  0.6988825E-006  0.1284426E+03  0.7561462E-02  0.1229785E+00
          2   -1    0    0  501    0  0.00000000000E+00  0.00000000000E+00  0.24740197030E+03  0.24740197030E+03  0.00000000000E+00 0. -1.
         -2   -1    0    0    0  501 -0.00000000000E+00 -0.00000000000E+00 -0.11386869509E+03  0.11386869509E+03  0.00000000000E+00 0.  1.
         23    2    1    2    0    0  0.40820661476E+02  0.11687850441E+03  0.23615072113E+02  0.15380096014E+03  0.88148468579E+02 0.  0.
          5    1    1    2  502    0 -0.36143174800E+02 -0.10442973614E+03  0.15077022797E+02  0.11160953316E+03  0.41800000000E+01 0. -1.
         -5    1    1    2    0  502 -0.46774866757E+01 -0.12448768269E+02  0.94841180295E+02  0.95860172088E+02  0.41800000000E+01 0. -1.
        -11    1    3    3    0    0  0.39722120447E+02  0.43253940331E+02 -0.26810707572E+02  0.64556674693E+02  0.00000000000E+00 0.  1.
         11    1    3    3    0    0  0.10985410292E+01  0.73624564082E+02  0.50425779685E+02  0.89244285450E+02  0.00000000000E+00 0. -1.
</event>
<event>
 7    1  0.6988825E-006  0.1333130E+03  0.7561462E-02  0.1222621E+00
          1   -1    0    0  501    0  0.00000000000E+00  0.00000000000E+00  0.28163019006E+02  0.28163019006E+02  0.00000000000E+00 0. -1.
         -1   -1    0    0    0  501 -0.00000000000E+00 -0.00000000000E+00 -0.69580975020E+03  0.69580975020E+03  0.00000000000E+00 0.  1.
         23    2    1    2    0    0 -0.60400107858E+02 -0.56387710735E+02 -0.22371525625E+03  0.25541076357E+03  0.91424260001E+02 0.  0.
          5    1    1    2  502    0  0.73124115036E+02  0.87949137342E+02 -0.31495974158E+03  0.33511087445E+03  0.41800000000E+01 0.  1.
         -5    1    1    2    0  502 -0.12724007178E+02 -0.31561426607E+02 -0.12897173335E+03  0.13345113118E+03  0.41800000000E+01 0.  1.
        -11    1    3    3    0    0 -0.36869562737E+02  0.17159455762E+02 -0.11564773254E+03  0.12258959833E+03  0.00000000000E+00 0.  1.
         11    1    3    3    0    0 -0.23530545121E+02 -0.73547166497E+02 -0.10806752372E+03  0.13282116524E+03  0.00000000000E+00 0. -1.
</event>
<event>
 7    1  0.6988825E-006  0.1389171E+03  0.7561462E-02  0.1214794E+00
          1   -1    0    0  501    0  0.00000000000E+00  0.00000000000E+00  0.15392898377E+04  0.15392898377E+04  0.00000000000E+00 0. -1.
         -1   -1    0    0    0  501 -0.00000000000E+00 -0.00000000000E+00 -0.15423994446E+02  0.15423994446E+02  0.00000000000E+00 0.  1.
         23    2    1    2    0    0  0.26663207140E+02  0.22832395398E+02  0.23698338568E+03  0.25449125784E+03  0.85862857716E+02 0.  0.
          5    1    1    2  502    0 -0.62901906456E+01 -0.10278424774E+03  0.69293047320E+03  0.70055283967E+03  0.41800000000E+01 0. -1.
         -5    1    1    2    0  502 -0.20373016495E+02  0.79951852338E+02  0.59395198435E+03  0.59966973461E+03  0.41800000000E+01 0.  1.
        -11    1    3    3    0    0  0.57407369707E+02  0.77899596711E+01  0.16255928295E+03  0.17257407117E+03  0.00000000000E+00 0.  1.
         11    1    3    3    0    0 -0.30744162566E+02  0.15042435727E+02  0.74424102731E+02  0.81917186669E+02  0.00000000000E+00 0. -1.
</event>
<event>
 7    1  0.6988825E-006  0.1154549E+03  0.7561462E-02  0.1250789E+00
         -1   -1    0    0    0  501 -0.00000000000E+00  0.00000000000E+00  0.41685110156E+03  0.41685110156E+03  0.00000000000E+00 0.  1.
          1   -1    0    0  501    0  0.00000000000E+00 -0.00000000000E+00 -0.68509478266E+02  0.68509478266E+02  0.00000000000E+00 0. -1.
         23    2    1    2    0    0 -0.93837959100E+02  0.42664049028E+02  0.27463438229E+03  0.30729759782E+03  0.91553186978E+02 0.  0.
          5    1    1    2  502    0  0.97423618687E+02 -0.56287083081E+02  0.98266480145E+02  0.14944353690E+03  0.41800000000E+01 0.  1.
         -5    1    1    2    0  502 -0.35856595877E+01  0.13623034053E+02 -0.24559239135E+02  0.28619445110E+02  0.41800000000E+01 0.  1.
        -11    1    3    3    0    0 -0.32368052157E+02  0.20323201288E+02  0.21632541935E+03  0.21967569362E+03  0.00000000000E+00 0.  1.
         11    1    3    3    0    0 -0.61469906942E+02  0.22340847740E+02  0.58308962940E+02  0.87621904204E+02  0.00000000000E+00 0. -1.
</event>
<event>
 7    1  0.6988825E-006  0.8034036E+02  0.7561462E-02  0.1328088E+00
         -2   -1    0    0    0  501 -0.00000000000E+00  0.00000000000E+00  0.90939798479E+02  0.90939798479E+02  0.00000000000E+00 0. -1.
          2   -1    0    0  501    0  0.00000000000E+00 -0.00000000000E+00 -0.14508643792E+03  0.14508643792E+03  0.00000000000E+00 0.  1.
         23    2    1    2    0    0 -0.27279040180E+02  0.20149123890E+02  0.11287299551E+02  0.90841255064E+02  0.83514054289E+02 0.  0.
          5    1    1    2  502    0 -0.98258465580E+01 -0.30070912846E+02 -0.92607118108E+02  0.97950792668E+02  0.41800000000E+01 0.  1.
         -5    1    1    2    0  502  0.37104886738E+02  0.99217889557E+01  0.27173179115E+02  0.47234188668E+02  0.41800000000E+01 0.  1.
        -11    1    3    3    0    0  0.26307128206E+02  0.25049050464E+02  0.42262989447E+01  0.36570227322E+02  0.00000000000E+00 0.  1.
         11    1    3    3    0    0 -0.53586168385E+02 -0.48999265741E+01  0.70610006058E+01  0.54271027742E+02  0.00000000000E+00 0. -1.
</event>
<event>
 7    1  0.6988825E-006  0.1426993E+03  0.7561462E-02  0.1209742E+00
         -1   -1    0    0    0  501 -0.00000000000E+00  0.00000000000E+00  0.15924248112E+02  0.15924248112E+02  0.00000000000E+00 0.  1.
          1   -1    0    0  501    0  0.00000000000E+00 -0.00000000000E+00 -0.14581167202E+04  0.14581167202E+04  0.00000000000E+00 0. -1.
         23    2    1    2    0    0  0.69442326032E+02 -0.61660576740E+02 -0.40944806885E+03  0.42961156206E+03  0.91072003407E+02 0.  0.
          5    1    1    2  502    0  0.19939864400E+02  0.63090720658E+02 -0.43575998325E+03  0.44077462793E+03  0.41800000000E+01 0.  1.
         -5    1    1    2    0  502 -0.89382190431E+02 -0.14301439185E+01 -0.59698441996E+03  0.60365477829E+03  0.41800000000E+01 0.  1.
        -11    1    3    3    0    0 -0.72273138995E+01 -0.51806660927E+02 -0.18327964738E+03  0.19059798878E+03  0.00000000000E+00 0.  1.
         11    1    3    3    0    0  0.76669639931E+02 -0.98539158133E+01 -0.22616842147E+03  0.23901357328E+03  0.00000000000E+00 0. -1.
</event>
<event>
 7    1  0.6988825E-006  0.9699808E+02  0.7561462E-02  0.1286738E+00
          1   -1    0    0  501    0  0.00000000000E+00  0.00000000000E+00  0.46998980334E+03  0.46998980334E+03  0.00000000000E+00 0. -1.
         -1   -1    0    0    0  501 -0.00000000000E+00 -0.00000000000E+00 -0.30178622251E+02  0.30178622251E+02  0.00000000000E+00 0.  1.
         23    2    1    2    0    0  0.84606625230E+01  0.82556602422E+01  0.90807029173E+02  0.12923408493E+03  0.91190972279E+02 0.  0.
          5    1    1    2  502    0  0.52693959622E+02 -0.17377655928E+02  0.23145621665E+03  0.23805060162E+03  0.41800000000E+01 0. -1.
         -5    1    1    2    0  502 -0.61154622145E+02  0.91219956858E+01  0.11754793527E+03  0.13288373904E+03  0.41800000000E+01 0. -1.
        -11    1    3    3    0    0 -0.30744980148E+02  0.18470517198E+02  0.75643029249E+01  0.36655592869E+02  0.00000000000E+00 0.  1.
         11    1    3    3    0    0  0.39205642671E+02 -0.10214856956E+02  0.83242726248E+02  0.92578492065E+02  0.00000000000E+00 0. -1.
</event>
<event>
 7    1  0.6988825E-006  0.1191699E+03  0.7561462E-02  0.1244473E+00
         -2   -1    0    0    0  501 -0.00000000000E+00  0.00000000000E+00  0.12241891060E+03  0.12241891060E+03  0.00000000000E+00 0.  1.
          2   -1    0    0  501    0  0.00000000000E+00 -0.00000000000E+00 -0.16298078661E+03  0.16298078661E+03  0.00000000000E+00 0. -1.
         23    2    1    2    0    0 -0.17596698309E+02 -0.76791387435E+02  0.16308228897E+02  0.12700518859E+03  0.98274099449E+02 0.  0.
          5    1    1    2  502    0 -0.24284980862E+02  0.90987335946E+02 -0.11607719348E+02  0.94977192770E+02  0.41800000000E+01 0.  1.
         -5    1    1    2    0  502  0.41881679171E+02 -0.14195948511E+02 -0.45262385551E+02  0.63417315854E+02  0.41800000000E+01 0.  1.
        -11    1    3    3    0    0  0.42019259825E+01  0.96408135104E+01 -0.26213054144E+02  0.28244037861E+02  0.00000000000E+00 0. -1.
         11    1    3    3    0    0 -0.21798624292E+02 -0.86432200945E+02  0.42521283041E+02  0.98761150726E+02  0.00000000000E+00 0.  1.
</event>
<event>
 7    1  0.6988825E-006  0.1026059E+03  0.7561462E-02  0.1274910E+00
         -2   -1    0    0    0  501 -0.00000000000E+00  0.00000000000E+00  0.25993991581E+02  0.25993991581E+02  0.00000000000E+00 0.  1.
          2   -1    0    0  501    0  0.00000000000E+00 -0.00000000000E+00 -0.63848443152E+03  0.63848443152E+03  0.00000000000E+00 0. -1.
         23    2    1    2    0    0 -0.19155576993E+02  0.11531186736E+02 -0.91055162520E+02  0.12952828336E+03  0.89367942641E+02 0.  0.
          5    1    1    2  502    0  0.18511566776E+02 -0.60920406552E+02 -0.20637291168E+03  0.21601209483E+03  0.41800000000E+01 0. -1.
         -5    1    1    2    0  502  0.64401021656E+00  0.49389219816E+02 -0.31506236574E+03  0.31893804491E+03  0.41800000000E+01 0.  1.
        -11    1    3    3    0    0  0.29875192402E+02  0.27156855731E+02 -0.45148952845E+02  0.60567729669E+02  0.00000000000E+00 0. -1.
         11    1    3    3    0    0 -0.49030769395E+02 -0.15625668995E+02 -0.45906209675E+02  0.68960553694E+02  0.00000000000E+00 0.  1.
</event>
<event>
 7    1  0.6988825E-006  0.1677624E+03  0.7561462E-02  0.1180202E+00
          1   -1    0    0  501    0  0.00000000000E+00  0.00000000000E+00  0.18833906684E+04  0.18833906684E+04  0.00000000000E+00 0. -1.
         -1   -1    0    0    0  501 -0.00000000000E+00 -0.00000000000E+00 -0.23846724812E+02  0.23846724812E+02  0.00000000000E+00 0.  1.
         23    2    1    2    0    0  0.26040990983E+02 -0.15589988673E+03  0.50861469414E+03  0.54135213163E+03  0.96903639946E+02 0.  0.
          5    1    1    2  502    0 -0.66602293932E+00  0.34562605721E+02  0.62876932879E+02  0.71874880098E+02  0.41800000000E+01 0.  1.
         -5    1    1    2    0  502 -0.25374968044E+02  0.12133728101E+03  0.12880523166E+04  0.12940103815E+04  0.41800000000E+01 0.  1.
        -11    1    3    3    0    0  0.29860520491E+02 -0.11155022562E+02  0.41615602069E+02  0.52420831241E+02  0.00000000000E+00 0.  1.
         11    1    3    3    0    0 -0.38195295082E+01 -0.14474486417E+03  0.46699909207E+03  0.48893130039E+03  0.00000000000E+00 0. -1.
</event>
<event>
 7    1  0.6988825E-006  0.9772617E+02  0.7561462E-02  0.1285151E+00
         -2   -1    0    0    0  501 -0.00000000000E+00  0.00000000000E+00  0.51800382484E+02  0.51800382484E+02  0.00000000000E+00 0.  1.
          2   -1    0    0  501    0  0.00000000000E+00 -0.00000000000E+00 -0.52890542980E+03  0.52890542980E+03  0.00000000000E+00 0. -1.
         23    2    1    2    0    0  0.75240452180E+02  0.51205416196E+02 -0.99585088094E+02  0.15969301015E+03  0.85449092609E+02 0.  0.
          5    1    1    2  502    0 -0.31455397956E+02 -0.29077753002E+02 -0.36844080880E+03  0.37094616829E+03  0.41800000000E+01 0. -1.
         -5    1    1    2    0  502 -0.43785054224E+02 -0.22127663194E+02 -0.90791504193E+01  0.50066633841E+02  0.41800000000E+01 0.  1.
        -11    1    3    3    0    0  0.22350374841E+02 -0.80440852949E+01 -0.71676675644E+02  0.75510213846E+02  0.00000000000E+00 0. -1.
         11    1    3    3    0    0  0.52890077339E+02  0.59249501491E+02 -0.27908412450E+02  0.84182796303E+02  0.00000000000E+00 0.  1.
</event>
<event>
 7    1  0.6988825E-006  0.1019343E+03  0.7561462E-02  0.1276280E+00
         -2   -1    0    0    0  501 -0.00000000000E+00  0.00000000000E+00  0.40530126444E+02  0.40530126444E+02  0.00000000000E+00 0.  1.
          2   -1    0    0  501    0  0.00000000000E+00 -0.00000000000E+00 -0.62524413433E+03  0.62524413433E+03  0.00000000000E+00 0. -1.
         23    2    1    2    0    0 -0.31424176371E+02 -0.86050476158E+02 -0.12643808330E+03  0.18197945101E+03  0.93476030999E+02 0.  0.
          5    1    1    2  502    0  0.50973472003E+02  0.54322598742E+02 -0.10655019189E+03  0.13007557562E+03  0.41800000000E+01 0. -1.
         -5    1    1    2    0  502 -0.19549295633E+02  0.31727877416E+02 -0.35172573269E+03  0.35371923414E+03  0.41800000000E+01 0. -1.
        -11    1    3    3    0    0 -0.17484766037E+02 -0.40273850702E+02 -0.12673690547E+03  0.13412659432E+03  0.00000000000E+00 0. -1.
         11    1    3    3    0    0 -0.13939410334E+02 -0.45776625456E+02  0.29882217096E+00  0.47852856689E+02  0.00000000000E+00 0.  1.
</event>
<event>
 7    1  0.6988825E-006  0.1584610E+03  0.7561462E-02  0.1190445E+00
         -2   -1    0    0    0  501 -0.00000000000E+00  0.00000000000E+00  0.15245041668E+03  0.15245041668E+03  0.00000000000E+00 0.  1.
          2   -1    0    0  501    0  0.00000000000E+00 -0.00000000000E+00 -0.18335118629E+03  0.18335118629E+03  0.00000000000E+00 0. -1.
         23    2    1    2    0    0 -0.17459055800E+02 -0.63992209100E+01  0.21910498427E+02  0.97044419363E+02  0.92691859030E+02 0.  0.
          5    1    1    2  502    0  0.12249252091E+03  0.25484501018E+02 -0.38475153774E+02  0.13096445063E+03  0.41800000000E+01 0. -1.
         -5    1    1    2    0  502 -0.10503346511E+03 -0.19085280108E+02 -0.14336114267E+02  0.10779273298E+03  0.41800000000E+01 0.  1.
        -11    1    3    3    0    0 -0.50956148686E+02 -0.67596708692E+01 -0.81386953162E+01  0.52042872716E+02  0.00000000000E+00 0.  1.
         11    1    3    3    0    0  0.33497092885E+02  0.36044995914E+00  0.30049193743E+02  0.45001546646E+02  0.00000000000E+00 0. -1.
</event>
<event>
 7    1  0.6988825E-006  0.1409370E+03  0.7561462E-02  0.1212074E+00
          1   -1    0    0  501    0  0.00000000000E+00  0.00000000000E+00  0.18191959649E+03  0.18191959649E+03  0.00000000000E+00 0. -1.
         -1   -1    0    0    0  501 -0.00000000000E+00 -0.00000000000E+00 -0.16271589994E+03  0.16271589994E+03  0.00000000000E+00 0.  1.
         23    2    1    2    0    0 -0.70454695600E+02  0.10202263784E+03 -0.45794336172E+02  0.15938231205E+03  0.89068049302E+02 0.  0.
          5    1    1    2  502    0  0.70298524035E+01 -0.93250331090E+02  0.75466124875E+02  0.12023997454E+03  0.41800000000E+01 0. -1.
         -5    1    1    2    0  502  0.63424843196E+02 -0.87723067458E+01 -0.10468092157E+02  0.65013209839E+02  0.41800000000E+01 0.  1.
        -11    1    3    3    0    0 -0.47520575520E+02  0.73107962463E+02  0.14791694441E+02  0.88440790915E+02  0.00000000000E+00 0. -1.
         11    1    3    3    0    0 -0.22934120080E+02  0.28914675373E+02 -0.60586030613E+02  0.70941521137E+02  0.00000000000E+00 0.  1.
</event>
<event>
 7    1  0.6988825E-006  0.1951237E+03  0.7561462E-02  0.1153920E+00
         -2   -1    0    0    0  501 -0.00000000000E+00  0.00000000000E+00  0.27311641878E+02  0.27311641878E+02  0.00000000000E+00 0.  1.
          2   -1    0    0  501    0  0.00000000000E+00 -0.00000000000E+00 -0.17392864041E+04  0.17392864041E+04  0.00000000000E+00 0. -1.
         23    2    1    2    0    0  0.18778075941E+02  0.17200117750E+03 -0.54373441801E+03  0.57737174871E+03  0.88170276660E+02 0.  0.
          5    1    1    2  502    0  0.27708119224E+02 -0.13326507689E+03 -0.10201037113E+04  0.10291532320E+04  0.41800000000E+01 0. -1.
         -5    1    1    2    0  502 -0.46486195165E+02 -0.38736100613E+02 -0.14813663282E+03  0.16007306524E+03  0.41800000000E+01 0.  1.
        -11    1    3    3    0    0 -0.73586114254E+01  0.16655307511E+03 -0.48500407505E+03  0.51285770815E+03  0.00000000000E+00 0.  1.
         11    1    3    3    0    0  0.26136687367E+02  0.54481023961E+01 -0.58730342955E+02  0.64514040563E+02  0.00000000000E+00 0. -1.
</event>
<event>
 7    1  0.6988825E-006  0.8056655E+02  0.7561462E-02  0.1327451E+00
          2   -1    0    0  501    0  0.00000000000E+00  0.00000000000E+00  0.18581510123E+03  0.18581510123E+03  0.00000000000E+00 0. -1.
         -2   -1    0    0    0  501 -0.00000000000E+00 -0.00000000000E+00 -0.74080165355E+02  0.74080165355E+02  0.00000000000E+00 0.  1.
         23    2    1    2    0    0 -0.71555987238E+01  0.89883190762E+00  0.48646091223E+02  0.11961167913E+03  0.10903440330E+03 0.  0.
          5    1    1    2  502    0  0.19520663507E+02 -0.60797350322E+02  0.31862845277E+02  0.71484875456E+02  0.41800000000E+01 0. -1.
         -5    1    1    2    0  502 -0.12365064783E+02  0.59898518414E+02  0.31225999379E+02  0.68798711997E+02  0.41800000000E+01 0. -1.
        -11    1    3    3    0    0  0.11665550716E+02  0.95952968376E+01  0.80335068148E+02  0.81742754843E+02  0.00000000000E+00 0. -1.
         11    1    3    3    0    0 -0.18821149440E+02 -0.86964649300E+01 -0.31688976925E+02  0.37868924292E+02  0.00000000000E+00 0.  1.
</event>
<event>
 7    1  0.6988825E-006  0.1096396E+03  0.7561462E-02  0.1261239E+00
         -1   -1    0    0    0  501 -0.00000000000E+00  0.00000000000E+00  0.18057077844E+03  0.18057077844E+03  0.00000000000E+00 0.  1.
          1   -1    0    0  501    0  0.00000000000E+00 -0.00000000000E+00 -0.78844924743E+02  0.78844924743E+02  0.00000000000E+00 0. -1.
         23    2    1    2    0    0  0.22266927374E+01 -0.23879641088E+02  0.87979070137E+02  0.13130764303E+03  0.94478489177E+02 0.  0.
          5    1    1    2  502    0 -0.41092352558E+02  0.60443698469E+02  0.16206601147E+01  0.73226505192E+02  0.41800000000E+01 0. -1.
         -5    1    1    2    0  502  0.38865659821E+02 -0.36564057381E+02  0.12126123450E+02  0.54881554965E+02  0.41800000000E+01 0. -1.
        -11    1    3    3    0    0  0.38917344271E+02 -0.36883476498E+02  0.70663345797E+02  0.88703207173E+02  0.00000000000E+00 0.  1.
         11    1    3    3    0    0 -0.36690651534E+02  0.13003835410E+02  0.17315724340E+02  0.42604435858E+02  0.00000000000E+00 0. -1.
</event>
<event>
 7    1  0.6988825E-006  0.1472330E+03  0.7561462E-02  0.1203915E+00
          1   -1    0    0  501    0  0.00000000000E+00  0.00000000000E+00  0.24883087646E+04  0.24883087646E+04  0.00000000000E+00 0. -1.
         -1   -1    0    0    0  501 -0.00000000000E+00 -0.00000000000E+00 -0.15574488442E+02  0.15574488442E+02  0.00000000000E+00 0.  1.
         23    2    1    2    0    0  0.11382093624E+03 -0.49741730808E+02  0.49834834908E+03  0.52164299699E+03  0.91273731016E+02 0.  0.
          5    1    1    2  502    0 -0.10881866118E+02 -0.26055954016E+02  0.11608963301E+03  0.11954749283E+03  0.41800000000E+01 0.  1.
         -5    1    1    2    0  502 -0.10293907012E+03  0.75797684824E+02  0.18582962941E+04  0.18626927632E+04  0.41800000000E+01 0.  1.
        -11    1    3    3    0    0  0.39856986664E+02 -0.50142055076E+02  0.35072918533E+03  0.35653017617E+03  0.00000000000E+00 0. -1.
         11    1    3    3    0    0  0.73963949578E+02  0.40032426811E+00  0.14761916374E+03  0.16511282082E+03  0.00000000000E+00 0.  1.
</event>
<event>
 7    1  0.6988825E-006  0.9565408E+02  0.7561462E-02  0.1289710E+00
         -1   -1    0    0    0  501 -0.00000000000E+00  0.00000000000E+00  0.17977012388E+03  0.17977012388E+03  0.00000000000E+00 0.  1.
          1   -1    0    0  501    0  0.00000000000E+00 -0.00000000000E+00 -0.93017573672E+02  0.93017573672E+02  0.00000000000E+00 0. -1.
         23    2    1    2    0    0  0.33340197469E+02  0.56858069314E+02  0.55419981556E+02  0.12796226545E+03  0.94649660374E+02 0.  0.
          5    1    1    2  502    0 -0.45719700167E+02 -0.35866413233E+02 -0.39109921869E+02  0.70169430454E+02  0.41800000000E+01 0.  1.
         -5    1    1    2    0  502  0.12379502698E+02 -0.20991656081E+02  0.70442490524E+02  0.74656001656E+02  0.41800000000E+01 0.  1.
        -11    1    3    3    0    0  0.21442318654E+00  0.71929303154E+02  0.14823237520E+02  0.73441126081E+02  0.00000000000E+00 0. -1.
         11    1    3    3    0    0  0.33125774282E+02 -0.15071233840E+02  0.40596744037E+02  0.54521139365E+02  0.00000000000E+00 0.  1.
</event>
<event>
 7    1  0.6988825E-006  0.7323557E+02  0.7561462E-02  0.1349424E+00
          2   -1    0    0  501    0  0.00000000000E+00  0.00000000000E+00  0.25037526896E+04  0.25037526896E+04  0.00000000000E+00 0. -1.
         -2   -1    0    0    0  501 -0.00000000000E+00 -0.00000000000E+00 -0.63849433108E+02  0.63849433108E+02  0.00000000000E+00 0.  1.
         23    2    1    2    0    0 -0.11967651667E+02  0.40560178175E+02 -0.21459656549E+02  0.10270009650E+03  0.91095774999E+02 0.  0.
          5    1    1    2  502    0  0.22521288455E+02  0.41200757116E+01  0.21517570474E+04  0.21518829073E+04  0.41800000000E+01 0.  1.
         -5    1    1    2    0  502 -0.10553636788E+02 -0.44680253886E+02  0.30960586569E+03  0.31301911891E+03  0.41800000000E+01 0.  1.
        -11    1    3    3    0    0 -0.38709026718E+02  0.26230351450E+02 -0.44542004229E+02  0.64578713423E+02  0.00000000000E+00 0.  1.
         11    1    3    3    0    0  0.26741375051E+02  0.14329826725E+02  0.23082347680E+02  0.38121383081E+02  0.00000000000E+00 0. -1.
</event>
<event>
 7    1  0.6988825E-006  0.1563012E+03  0.7561462E-02  0.1192937E+00
          3   -1    0    0  501    0  0.00000000000E+00  0.00000000000E+00  0.38213005189E+03  0.38213005189E+03  0.00000000000E+00 0. -1.
         -3   -1    0    0    0  501 -0.00000000000E+00 -0.00000000000E+00 -0.77002538627E+02  0.77002538627E+02  0.00000000000E+00 0.  1.
         23    2    1    2    0    0  0.89095686398E+02  0.91723378006E+02  0.97581803505E+02  0.18513450571E+03  0.91658918943E+02 0.  0.
          5    1    1    2  502    0 -0.20469665852E+02  0.23836602123E+02  0.89927405369E+02  0.95349889655E+02  0.41800000000E+01 0.  1.
         -5    1    1    2    0  502 -0.68626020545E+02 -0.11555998013E+03  0.11761830439E+03  0.17864819515E+03  0.41800000000E+01 0.  1.
        -11    1    3    3    0    0  0.35052967099E+02 -0.52307866680E+01 -0.27009580562E+01  0.35543871568E+02  0.00000000000E+00 0.  1.
         11    1    3    3    0    0  0.54042719299E+02  0.96954164674E+02  0.10028276156E+03  0.14959063414E+03  0.00000000000E+00 0. -1.
</event>
<event>
 7    1  0.6988825E-006  0.2262666E+03  0.7561462E-02  0.1129295E+00
          2   -1    0    0  501    0  0.00000000000E+00  0.00000000000E+00  0.12924730347E+04  0.12924730347E+04  0.00000000000E+00 0. -1.
         -2   -1    0    0    0  501 -0.00000000000E+00 -0.00000000000E+00 -0.41179579694E+02  0.41179579694E+02  0.00000000000E+00 0.  1.
         23    2    1    2    0    0 -0.16273266542E+02  0.20241313148E+03  0.58938518786E+03  0.63008280498E+03  0.91616300232E+02 0.  0.
          5    1    1    2  502    0  0.60036137792E+02 -0.76125382652E+02  0.19382003341E+03  0.21675582916E+03  0.41800000000E+01 0.  1.
         -5    1    1    2    0  502 -0.43762871249E+02 -0.12628774882E+03  0.46808823372E+03  0.48681398024E+03  0.41800000000E+01 0.  1.
        -11    1    3    3    0    0 -0.46233597887E+02  0.57440551612E+02  0.22502783971E+03  0.23680053038E+03  0.00000000000E+00 0.  1.
         11    1    3    3    0    0  0.29960331344E+02  0.14497257986E+03  0.36435734815E+03  0.39328227460E+03  0.00000000000E+00 0. -1.
</event>
<event>
 7    1  0.6988825E-006  0.1213245E+03  0.7561462E-02  0.1240928E+00
          1   -1    0    0  501    0  0.00000000000E+00  0.00000000000E+00  0.49135135175E+03  0.49135135175E+03  0.00000000000E+00 0. -1.
         -1   -1    0    0    0  501 -0.00000000000E+00 -0.00000000000E+00 -0.12319796630E+03  0.12319796630E+03  0.00000000000E+00 0.  1.
         23    2    1    2    0    0  0.70065835264E+02  0.26592192323E+02 -0.80910932852E+02  0.14238979976E+03  0.90066142683E+02 0.  0.
          5    1    1    2  502    0 -0.93178450504E+02 -0.54310773841E+02  0.36391003593E+03  0.37957854318E+03  0.41800000000E+01 0.  1.
         -5    1    1    2    0  502  0.23112615240E+02  0.27718581518E+02  0.85154282382E+02  0.92580975111E+02  0.41800000000E+01 0.  1.
        -11    1    3    3    0    0  0.53360890235E+02  0.47626906806E+02 -0.89148356775E+02  0.11429407847E+03  0.00000000000E+00 0.  1.
         11    1    3    3    0    0  0.16704945029E+02 -0.21034714483E+02  0.82374239234E+01  0.28095721288E+02  0.00000000000E+00 0. -1.
</event>
<event>
 7    1  0.6988825E-006  0.7202896E+02  0.7561462E-02  0.1353326E+00
         -1   -1    0    0    0  501 -0.00000000000E+00  0.00000000000E+00  0.22762185911E+03  0.22762185911E+03  0.00000000000E+00 0.  1.
          1   -1    0    0  501    0  0.00000000000E+00 -0.00000000000E+00 -0.77279218301E+02  0.77279218301E+02  0.00000000000E+00 0. -1.
         23    2    1    2    0    0 -0.32780255040E+02 -0.52808957074E+02  0.11960925858E+03  0.16187936117E+03  0.89639398524E+02 0.  0.
          5    1    1    2  502    0  0.22048703615E+02  0.40522226191E+02  0.79178623625E+02  0.91732889335E+02  0.41800000000E+01 0.  1.
         -5    1    1    2    0  502  0.10731551424E+02  0.12286730883E+02 -0.48445241394E+02  0.51288826907E+02  0.41800000000E+01 0.  1.
        -11    1    3    3    0    0 -0.94185402993E+01 -0.56469256428E+02  0.12512315135E+03  0.13759828788E+03  0.00000000000E+00 0.  1.
         11    1    3    3    0    0 -0.23361714740E+02  0.36602993542E+01 -0.55138927685E+01  0.24281073296E+02  0.00000000000E+00 0. -1.
</event>
<event>
 7    1  0.6988825E-006  0.1502847E+03  0.7561462E-02  0.1200124E+00
         -4   -1    0    0    0  501 -0.00000000000E+00  0.00000000000E+00  0.11733628963E+03  0.11733628963E+03  0.00000000000E+00 0. -1.
          4   -1    0    0  501    0  0.00000000000E+00 -0.00000000000E+00 -0.24642848635E+03  0.24642848635E+03  0.00000000000E+00 0.  1.
         23    2    1    2    0    0  0.10939638018E+03  0.51312426097E+02 -0.43572383294E+01  0.14973705932E+03  0.88327053274E+02 0.  0.
          5    1    1    2  502    0 -0.13029183419E+03 -0.14522510820E+02 -0.89262503320E+02  0.15865727930E+03  0.41800000000E+01 0. -1.
         -5    1    1    2    0  502  0.20895454016E+02 -0.36789915277E+02 -0.35472455064E+02  0.55370437355E+02  0.41800000000E+01 0. -1.
        -11    1    3    3    0    0  0.73681772701E+02  0.53577672695E+02 -0.39757883543E+02  0.99399496697E+02  0.00000000000E+00 0.  1.
         11    1    3    3    0    0  0.35714607475E+02 -0.22652465980E+01  0.35400645213E+02  0.50337562622E+02  0.00000000000E+00 0. -1.
</event>
<event>
 7    1  0.6988825E-006  0.9675105E+02  0.7561462E-02  0.1287280E+00
          2   -1    0    0  501    0  0.00000000000E+00  0.00000000000E+00  0.12877638408E+04  0.12877638408E+04  0.00000000000E+00 0. -1.
         -2   -1    0    0    0  501 -0.00000000000E+00 -0.00000000000E+00 -0.13666813717E+02  0.13666813717E+02  0.00000000000E+00 0.  1.
         23    2    1    2    0    0  0.22926731230E+02  0.23448894246E+02  0.23168887308E+03  0.25103193520E+03  0.90894515440E+02 0.  0.
          5    1    1    2  502    0  0.33406187389E+02 -0.49108493994E+02  0.69058381789E+03  0.69314579957E+03  0.41800000000E+01 0.  1.
         -5    1    1    2    0  502 -0.56332918619E+02  0.25659599748E+02  0.35182433614E+03  0.35725291977E+03  0.41800000000E+01 0.  1.
        -11    1    3    3    0    0 -0.22330934281E+02  0.11461442610E+02  0.14781859750E+02  0.29129687095E+02  0.00000000000E+00 0.  1.
         11    1    3    3    0    0  0.45257665511E+02  0.11987451636E+02  0.21690701333E+03  0.22190224811E+03  0.00000000000E+00 0. -1.
</event>
<event>
 7    1  0.6988825E-006  0.9428105E+02  0.7561462E-02  0.1292804E+00
          1   -1    0    0  501    0  0.00000000000E+00  0.00000000000E+00  0.32416250264E+03  0.32416250264E+03  0.00000000000E+00 0. -1.
         -1   -1    0    0    0  501 -0.00000000000E+00 -0.00000000000E+00 -0.58128255956E+02  0.58128255956E+02  0.00000000000E+00 0.  1.
         23    2    1    2    0    0 -0.19009642546E+02 -0.70904822147E+02  0.59485650962E+02  0.12990833295E+03  0.89155885878E+02 0.  0.
          5    1    1    2  502    0 -0.31065101401E+02  0.34547081068E+02  0.17817028735E+03  0.18417563636E+03  0.41800000000E+01 0.  1.
         -5    1    1    2    0  502  0.50074743947E+02  0.36357741078E+02  0.28378308368E+02  0.68206789277E+02  0.41800000000E+01 0.  1.
        -11    1    3    3    0    0 -0.21118874218E+02 -0.20466045646E+02 -0.20128807628E+02  0.35637547182E+02  0.00000000000E+00 0.  1.
         11    1    3    3    0    0  0.21092316716E+01 -0.50438776500E+02  0.79614458591E+02  0.94270785770E+02  0.00000000000E+00 0. -1.
</event>
<event>
 7    1  0.6988825E-006  0.9839668E+02  0.7561462E-02  0.1283704E+00
          1   -1    0    0  501    0  0.00000000000E+00  0.00000000000E+00  0.20425627447E+03  0.20425627447E+03  0.00000000000E+00 0. -1.
         -1   -1    0    0    0  501 -0.00000000000E+00 -0.00000000000E+00 -0.86991736422E+02  0.86991736422E+02  0.00000000000E+00 0.  1.
         23    2    1    2    0    0  0.10101075507E+02  0.51376509162E+02 -0.83145803069E+01  0.10644113426E+03  0.92298458255E+02 0.  0.
          5    1    1    2  502    0 -0.35505502698E+02  0.57745812628E+01 -0.81466404995E+01  0.37119087570E+02  0.41800000000E+01 0.  1.
         -5    1    1    2    0  502  0.25404427191E+02 -0.57151090425E+02  0.13372575885E+03  0.14768778906E+03  0.41800000000E+01 0.  1.
        -11    1    3    3    0    0 -0.36480001782E+02  0.26499366432E+02 -0.24361111517E+02  0.51249104438E+02  0.00000000000E+00 0.  1.
         11    1    3    3    0    0  0.46581077289E+02  0.24877142730E+02  0.16046531210E+02  0.55192029820E+02  0.00000000000E+00 0. -1.
</event>
<event>
 7    1  0.6988825E-006  0.1260275E+03  0.7561462E-02  0.1233472E+00
         -1   -1    0    0    0  501 -0.00000000000E+00  0.00000000000E+00  0.18066837829E+03  0.18066837829E+03  0.00000000000E+00 0.  1.
          1   -1    0    0  501    0  0.00000000000E+00 -0.00000000000E+00 -0.10675468507E+03  0.10675468507E+03  0.00000000000E+00 0. -1.
         23    2    1    2    0    0 -0.59664537556E+02 -0.41441545500E+02  0.81818797636E+02  0.14254674541E+03  0.91367391586E+02 0.  0.
          5    1    1    2  502    0 -0.33731484099E+02  0.26715177509E+02  0.17881630295E+02  0.46783959119E+02  0.41800000000E+01 0.  1.
         -5    1    1    2    0  502  0.93396021655E+02  0.14726367991E+02 -0.25786734712E+02  0.98092358837E+02  0.41800000000E+01 0.  1.
        -11    1    3    3    0    0 -0.25816219508E+02  0.27290302334E+02  0.41475720160E+02  0.55959567136E+02  0.00000000000E+00 0.  1.
         11    1    3    3    0    0 -0.33848318049E+02 -0.68731847834E+02  0.40343077476E+02  0.86587178275E+02  0.00000000000E+00 0. -1.
</event>
<event>
 7    1  0.6988825E-006  0.1238716E+03  0.7561462E-02  0.1236843E+00
         -1   -1    0    0    0  501 -0.00000000000E+00  0.00000000000E+00  0.11627086445E+02  0.11627086445E+02  0.00000000000E+00 0.  1.
          1   -1    0    0  501    0  0.00000000000E+00 -0.00000000000E+00 -0.15364439797E+04  0.15364439797E+04  0.00000000000E+00 0. -1.
         23    2    1    2    0    0  0.59103578162E+02 -0.46164935238E+02 -0.53139545543E+03  0.54399968839E+03  0.89051090498E+02 0.  0.
          5    1    1    2  502    0 -0.11332065272E+02 -0.38846513925E+02 -0.45987621885E+03  0.46167204422E+03  0.41800000000E+01 0. -1.
         -5    1    1    2    0  502 -0.47771512890E+02  0.85011449163E+02 -0.53354521901E+03  0.54239933358E+03  0.41800000000E+01 0. -1.
        -11    1    3    3    0    0 -0.16937576552E+02 -0.25581526507E+02 -0.78105598599E+02  0.83915317614E+02  0.00000000000E+00 0.  1.
         11    1    3    3    0    0  0.76041154714E+02 -0.20583408732E+02 -0.45328985684E+03  0.46008437078E+03  0.00000000000E+00 0. -1.
</event>
<event>
 7    1  0.6988825E-006  0.1093119E+03  0.7561462E-02  0.1261849E+00
         -3   -1    0    0    0  501 -0.00000000000E+00  0.00000000000E+00  0.69463722440E+03  0.69463722440E+03  0.00000000000E+00 0.  1.
          3   -1    0    0  501    0  0.00000000000E+00 -0.00000000000E+00 -0.27649568189E+02  0.27649568189E+02  0.00000000000E+00 0. -1.
         23    2    1    2    0    0 -0.26883280143E+02 -0.67990022364E+02  0.42082155183E+03  0.43664353939E+03  0.90672201418E+02 0.  0.
          5    1    1    2  502    0 -0.82062584722E+01 -0.23694344370E+02  0.13458739479E+03  0.13696716347E+03  0.41800000000E+01 0. -1.
         -5    1    1    2    0  502  0.35089538615E+02  0.91684366735E+02  0.11157870959E+03  0.14867608973E+03  0.41800000000E+01 0. -1.
        -11    1    3    3    0    0 -0.59578173862E+01 -0.73149559386E+02  0.39999699667E+03  0.40667425658E+03  0.00000000000E+00 0.  1.
         11    1    3    3    0    0 -0.20925462757E+02  0.51595370213E+01  0.20824555165E+02  0.29969282802E+02  0.00000000000E+00 0. -1.
</event>
<event>
 7    1  0.6988825E-006  0.8865824E+02  0.7561462E-02  0.1306134E+00
          1   -1    0    0  501    0  0.00000000000E+00  0.00000000000E+00  0.14748954549E+03  0.14748954549E+03  0.00000000000E+00 0. -1.
         -1   -1    0    0    0  501 -0.00000000000E+00 -0.00000000000E+00 -0.19667627784E+03  0.19667627784E+03  0.00000000000E+00 0.  1.
         23    2    1    2    0    0 -0.52376945924E+02  0.33205750854E+02 -0.13849504679E+03  0.17842751214E+03  0.93859111174E+02 0.  0.
          5    1    1    2  502    0  0.15734296269E+01  0.32108040896E+02  0.74939000493E+02  0.81650034696E+02  0.41800000000E+01 0. -1.
         -5    1    1    2    0  502  0.50803516297E+02 -0.65313791750E+02  0.14369313937E+02  0.84088276495E+02  0.41800000000E+01 0. -1.
        -11    1    3    3    0    0 -0.29188552559E+02  0.17330492740E+02 -0.14554781769E+03  0.14945395550E+03  0.00000000000E+00 0.  1.
         11    1    3    3    0    0 -0.23188393365E+02  0.15875258114E+02  0.70527709064E+01  0.28973556642E+02  0.00000000000E+00 0. -1.
</event>
<event>
 7    1  0.6988825E-006  0.8599239E+02  0.7561462E-02  0.1312858E+00
         -1   -1    0    0    0  501 -0.00000000000E+00  0.00000000000E+00  0.15466309990E+03  0.15466309990E+03  0.00000000000E+00 0.  1.
          1   -1    0    0  501    0  0.00000000000E+00 -0.00000000000E+00 -0.87378827505E+02  0.87378827505E+02  0.00000000000E+00 0. -1.
         23    2    1    2    0    0  0.56379983474E+01 -0.38462912540E+02  0.46931488398E+02  0.10947856369E+03  0.90949483987E+02 0.  0.
          5    1    1    2  502    0  0.32863393415E+02  0.11493638237E+02 -0.41776821083E+02  0.54542474518E+02  0.41800000000E+01 0. -1.
         -5    1    1    2    0  502 -0.38501391763E+02  0.26969274302E+02  0.62129605080E+02  0.78020889199E+02  0.41800000000E+01 0. -1.
        -11    1    3    3    0    0  0.11474993877E+02 -0.63239244657E+02  0.10634690942E+02  0.65145791888E+02  0.00000000000E+00 0. -1.
         11    1    3    3    0    0 -0.58369955295E+01  0.24776332117E+02  0.36296797456E+02  0.44332771801E+02  0.00000000000E+00 0.  1.
</event>
<event>
 7    1  0.6988825E-006  0.7561193E+02  0.7561462E-02  0.1341986E+00
         -1   -1    0    0    0  501 -0.00000000000E+00  0.00000000000E+00  0.62265873893E+02  0.62265873893E+02  0.00000000000E+00 0.  1.
          1   -1    0    0  501    0  0.00000000000E+00 -0.00000000000E+00 -0.22434528535E+03  0.22434528535E+03  0.00000000000E+00 0. -1.
         23    2    1    2    0    0  0.47569237499E+02 -0.44192805838E+01 -0.72140486505E+02  0.12530378341E+03  0.90633470347E+02 0.  0.
          5    1    1    2  502    0 -0.64828881561E+02  0.75190266231E+01 -0.11388977467E+03  0.13133039565E+03  0.41800000000E+01 0.  1.
         -5    1    1    2    0  502  0.17259644062E+02 -0.30997460393E+01  0.23950849720E+02  0.29976980184E+02  0.41800000000E+01 0.  1.
        -11    1    3    3    0    0 -0.57937221006E+01 -0.12548057498E+02  0.16498457515E+02  0.21522547785E+02  0.00000000000E+00 0.  1.
         11    1    3    3    0    0  0.53362959599E+02  0.81287769146E+01 -0.88638944021E+02  0.10378123563E+03  0.00000000000E+00 0. -1.
</event>
<event>
 7    1  0.6988825E-006  0.1001586E+03  0.7561462E-02  0.1279963E+00
         -1   -1    0    0    0  501 -0.00000000000E+00  0.00000000000E+00  0.10517161285E+02  0.10517161285E+02  0.00000000000E+00 0.  1.
          1   -1    0    0  501    0  0.00000000000E+00 -0.00000000000E+00 -0.11250608613E+04  0.11250608613E+04  0.00000000000E+00 0. -1.
         23    2    1    2    0    0 -0.18694354706E+02  0.13912201001E+01 -0.41609607451E+03  0.42577017887E+03  0.88277333458E+02 0.  0.
          5    1    1    2  502    0  0.16750846628E+02  0.53039048582E+02 -0.52517390553E+03  0.52812766921E+03  0.41800000000E+01 0.  1.
         -5    1    1    2    0  502  0.19435080782E+01 -0.54430268682E+02 -0.17327371996E+03  0.18168017448E+03  0.41800000000E+01 0.  1.
        -11    1    3    3    0    0  0.14711713118E+02 -0.36527451117E+02 -0.20052605884E+03  0.20435603603E+03  0.00000000000E+00 0. -1.
         11    1    3    3    0    0 -0.33406067824E+02  0.37918671217E+02 -0.21557001567E+03  0.22141414284E+03  0.00000000000E+00 0.  1.
</event>
<event>
 7    1  0.6988825E-006  0.6389325E+02  0.7561462E-02  0.1382184E+00
         -1   -1    0    0    0  501 -0.00000000000E+00  0.00000000000E+00  0.45132503768E+02  0.45132503768E+02  0.00000000000E+00 0.  1.
          1   -1    0    0  501    0  0.00000000000E+00 -0.00000000000E+00 -0.27696726372E+03  0.27696726372E+03  0.00000000000E+00 0. -1.
         23    2    1    2    0    0  0.27364188298E+02 -0.18573913266E+02 -0.76677600871E+02  0.12006954937E+03  0.86275449326E+02 0.  0.
          5    1    1    2  502    0 -0.21764773901E+02  0.71165008285E+01 -0.17584057773E+03  0.17737455044E+03  0.41800000000E+01 0.  1.
         -5    1    1    2    0  502 -0.55994143969E+01  0.11457412438E+02  0.20683418650E+02  0.24655667673E+02  0.41800000000E+01 0.  1.
        -11    1    3    3    0    0  0.57959219079E+02 -0.17224895764E+02 -0.60071010836E+02  0.85232003691E+02  0.00000000000E+00 0. -1.
         11    1    3    3    0    0 -0.30595030781E+02 -0.13490175027E+01 -0.16606590035E+02  0.34837545684E+02  0.00000000000E+00 0.  1.
</event>
<event>
 7    1  0.9746126E-006  0.1406945E+03  0.7561462E-02  0.1212398E+00
         -2   -1    0    0    0  501 -0.00000000000E+00  0.00000000000E+00  0.16279459712E+02  0.16279459712E+02  0.00000000000E+00 0.  1.
          2   -1    0    0  501    0  0.00000000000E+00 -0.00000000000E+00 -0.15893219161E+04  0.15893219161E+04  0.00000000000E+00 0. -1.
         23    2    1    2    0    0  0.69215836161E+02  0.82734753889E+02 -0.49775792174E+03  0.51770415482E+03  0.92837340482E+02 0.  0.
          5    1    1    2  502    0 -0.10379926487E+03 -0.47651445421E+02 -0.81293544650E+03  0.82093024077E+03  0.41800000000E+01 0. -1.
         -5    1    1    2    0  502  0.34583428714E+02 -0.35083308468E+02 -0.26234908818E+03  0.26696698025E+03  0.41800000000E+01 0. -1.
        -11    1    3    3    0    0 -0.30803863799E+01  0.24859646981E+02 -0.23029249778E+02  0.34027006534E+02  0.00000000000E+00 0.  1.
         11    1    3    3    0    0  0.72296222541E+02  0.57875106908E+02 -0.47472867196E+03  0.48367714829E+03  0.00000000000E+00 0. -1.
</event>
<event>
 7    1  0.6988825E-006  0.8751997E+02  0.7561462E-02  0.1308971E+00
         -1   -1    0    0    0  501 -0.00000000000E+00  0.00000000000E+00  0.14352529459E+03  0.14352529459E+03  0.00000000000E+00 0.  1.
          1   -1    0    0  501    0  0.00000000000E+00 -0.00000000000E+00 -0.84572615109E+02  0.84572615109E+02  0.00000000000E+00 0. -1.
         23    2    1    2    0    0 -0.59152555079E+01  0.11017216624E+02  0.40875380660E+02  0.10108154369E+03  0.91598648577E+02 0.  0.
          5    1    1    2  502    0 -0.36018421776E+02  0.94970944489E+01  0.55546613833E+02  0.67010597807E+02  0.41800000000E+01 0.  1.
         -5    1    1    2    0  502  0.41933677284E+02 -0.20514311073E+02 -0.37469315014E+02  0.60005768198E+02  0.41800000000E+01 0.  1.
        -11    1    3    3    0    0 -0.82626557796E+01 -0.39378951904E+02  0.84650562916E+01  0.41117277532E+02  0.00000000000E+00 0. -1.
         11    1    3    3    0    0  0.23474002717E+01  0.50396168528E+02  0.32410324369E+02  0.59964266160E+02  0.00000000000E+00 0.  1.
</event>
<event>
 7    1  0.6988825E-006  0.8715575E+02  0.7561462E-02  0.1309889E+00
          2   -1    0    0  501    0  0.00000000000E+00  0.00000000000E+00  0.89081799156E+03  0.89081799156E+03  0.00000000000E+00 0. -1.
         -2   -1    0    0    0  501 -0.00000000000E+00 -0.00000000000E+00 -0.18209705348E+02  0.18209705348E+02  0.00000000000E+00 0.  1.
         23    2    1    2    0    0  0.22649493497E+02  0.57587270046E+02  0.29811196915E+03  0.31782354516E+03  0.91168889846E+02 0.  0.
          5    1    1    2  502    0 -0.17311377376E+02 -0.61126707021E+02  0.57889203630E+03  0.58238270939E+03  0.41800000000E+01 0.  1.
         -5    1    1    2    0  502 -0.53381161208E+01  0.35394369752E+01 -0.43957192409E+01  0.88214423688E+01  0.41800000000E+01 0.  1.
        -11    1    3    3    0    0  0.50541839483E+02  0.16177700674E+02  0.96581393348E+02  0.11020054936E+03  0.00000000000E+00 0.  1.
         11    1    3    3    0    0 -0.27892345986E+02  0.41409569372E+02  0.20153057581E+03  0.20762299580E+03  0.00000000000E+00 0. -1.
</event>
<event>
 7    1  0.6988825E-006  0.7704943E+02  0.7561462E-02  0.1337640E+00
          2   -1    0    0  501    0  0.00000000000E+00  0.00000000000E+00  0.57096128448E+03  0.57096128448E+03  0.00000000000E+00 0. -1.
         -2   -1    0    0    0  501 -0.00000000000E+00 -0.00000000000E+00 -0.27924908091E+02  0.27924908091E+02  0.00000000000E+00 0.  1.
         23    2    1    2    0    0  0.19012212031E+02  0.13350495941E+02  0.35652357162E+02  0.75916588516E+02  0.62869212597E+02 0.  0.
          5    1    1    2  502    0 -0.48951506716E+02 -0.35358890795E+02  0.12630490884E+03  0.14006035686E+03  0.41800000000E+01 0. -1.
         -5    1    1    2    0  502  0.29939294685E+02  0.22008394854E+02  0.38107911039E+03  0.38290924719E+03  0.41800000000E+01 0. -1.
        -11    1    3    3    0    0  0.28837020138E+02  0.26902044160E+02  0.42367258680E+02  0.57881588769E+02  0.00000000000E+00 0. -1.
         11    1    3    3    0    0 -0.98248081062E+01 -0.13551548219E+02 -0.67149015187E+01  0.18034999747E+02  0.00000000000E+00 0.  1.
</event>
<event>
 7    1  0.6988825E-006  0.1330664E+03  0.7561462E-02  0.1222975E+00
         -2   -1    0    0    0  501 -0.00000000000E+00  0.00000000000E+00  0.16848746282E+02  0.16848746282E+02  0.00000000000E+00 0. -1.
          2   -1    0    0  501    0  0.00000000000E+00 -0.00000000000E+00 -0.14788695315E+04  0.14788695315E+04  0.00000000000E+00 0.  1.
         23    2    1    2    0    0 -0.65210915737E+02 -0.75384531036E+02 -0.41384328971E+03  0.43540712534E+03  0.91530351840E+02 0.  0.
          5    1    1    2  502    0  0.12856276143E+02  0.82085645697E+02 -0.88171706781E+03  0.88563299235E+03  0.41800000000E+01 0.  1.
         -5    1    1    2    0  502  0.52354639595E+02 -0.67011146604E+01 -0.16646042769E+03  0.17467816009E+03  0.41800000000E+01 0.  1.
        -11    1    3    3    0    0 -0.29772515718E+02  0.14689844864E+02 -0.60102759665E+02  0.68662478499E+02  0.00000000000E+00 0. -1.
         11    1    3    3    0    0 -0.35438400020E+02 -0.90074375901E+02 -0.35374053004E+03  0.36674464684E+03  0.00000000000E+00 0.  1.
</event>
<event>
 7    1  0.6988825E-006  0.1527893E+03  0.7561462E-02  0.1197087E+00
         -2   -1    0    0    0  501 -0.00000000000E+00  0.00000000000E+00  0.20516543670E+02  0.20516543670E+02  0.00000000000E+00 0.  1.
          2   -1    0    0  501    0  0.00000000000E+00 -0.00000000000E+00 -0.13757088782E+04  0.13757088782E+04  0.00000000000E+00 0. -1.
         23    2    1    2    0    0 -0.61302853113E+02 -0.10554858972E+03 -0.47882663531E+03  0.50260364362E+03  0.91852769715E+02 0.  0.
          5    1    1    2  502    0 -0.31248993615E+02  0.24612364657E+02 -0.10229186040E+03  0.10983335195E+03  0.41800000000E+01 0.  1.
         -5    1    1    2    0  502  0.92551846728E+02  0.80936225067E+02 -0.77407383880E+03  0.78378842628E+03  0.41800000000E+01 0.  1.
        -11    1    3    3    0    0 -0.59149651509E+02 -0.28809947903E+02 -0.13331321507E+03  0.14866441297E+03  0.00000000000E+00 0.  1.
         11    1    3    3    0    0 -0.21532016048E+01 -0.76738641822E+02 -0.34551342024E+03  0.35393923065E+03  0.00000000000E+00 0. -1.
</event>
<event>
 7    1  0.6988825E-006  0.1268783E+03  0.7561462E-02  0.1232163E+00
         -2   -1    0    0    0  501 -0.00000000000E+00  0.00000000000E+00  0.29592052548E+02  0.29592052548E+02  0.00000000000E+00 0.  1.
          2   -1    0    0  501    0  0.00000000000E+00 -0.00000000000E+00 -0.62064397207E+03  0.62064397207E+03  0.00000000000E+00 0. -1.
         23    2    1    2    0    0 -0.18005103596E+02  0.79384764201E+02 -0.25524257644E+03  0.28275654862E+03  0.90423273638E+02 0.  0.
          5    1    1    2  502    0  0.44303485148E+02 -0.93889290932E+02 -0.31224217151E+03  0.32907543788E+03  0.41800000000E+01 0. -1.
         -5    1    1    2    0  502 -0.26298381551E+02  0.14504526731E+02 -0.23567171569E+02  0.38404038117E+02  0.41800000000E+01 0. -1.
        -11    1    3    3    0    0  0.28603896211E+02  0.64576422881E+02 -0.12407617557E+03  0.14276972583E+03  0.00000000000E+00 0.  1.
         11    1    3    3    0    0 -0.46608999807E+02  0.14808341320E+02 -0.13116640088E+03  0.13998682279E+03  0.00000000000E+00 0. -1.
</event>
<event>
 7    1  0.6988825E-006  0.7933042E+02  0.7561462E-02  0.1330962E+00
         -3   -1    0    0    0  501 -0.00000000000E+00  0.00000000000E+00  0.66504390225E+02  0.66504390225E+02  0.00000000000E+00 0.  1.
          3   -1    0    0  501    0  0.00000000000E+00 -0.00000000000E+00 -0.21926439178E+03  0.21926439178E+03  0.00000000000E+00 0. -1.
         23    2    1    2    0    0  0.48494689478E+02  0.11799140652E+01 -0.52375401027E+02  0.11820828552E+03  0.94217243794E+02 0.  0.
          5    1    1    2  502    0 -0.13846032748E+02  0.81409521099E+01  0.28898614149E+02  0.33325516108E+02  0.41800000000E+01 0. -1.
         -5    1    1    2    0  502 -0.34648656729E+02 -0.93208661751E+01 -0.12928321468E+03  0.13423498038E+03  0.41800000000E+01 0. -1.
        -11    1    3    3    0    0 -0.17424137867E+02 -0.28692772743E+02 -0.15270139636E+02  0.36878895762E+02  0.00000000000E+00 0.  1.
         11    1    3    3    0    0  0.65918827345E+02  0.29872686808E+02 -0.37105261391E+02  0.81329389759E+02  0.00000000000E+00 0. -1.
</event>
<event>
 7    1  0.6988825E-006  0.1467958E+03  0.7561462E-02  0.1204466E+00
          2   -1    0    0  501    0  0.00000000000E+00  0.00000000000E+00  0.52707066355E+03  0.52707066355E+03  0.00000000000E+00 0. -1.
         -2   -1    0    0    0  501 -0.00000000000E+00 -0.00000000000E+00 -0.56241752802E+02  0.56241752802E+02  0.00000000000E+00 0.  1.
         23    2    1    2    0    0 -0.92629258270E+02 -0.59123684912E+02  0.83188083949E+02  0.16532912824E+03  0.91310863138E+02 0.  0.
          5    1    1    2  502    0 -0.18181907167E+02 -0.10198911839E+02  0.96584426839E+02  0.98897034631E+02  0.41800000000E+01 0. -1.
         -5    1    1    2    0  502  0.11081116544E+03  0.69322596751E+02  0.29105639996E+03  0.31908625349E+03  0.41800000000E+01 0.  1.
        -11    1    3    3    0    0 -0.67425132068E+02  0.98305935001E+01  0.51280992890E+02  0.85279125433E+02  0.00000000000E+00 0.  1.
         11    1    3    3    0    0 -0.25204126203E+02 -0.68954278412E+02  0.31907091060E+02  0.80050002804E+02  0.00000000000E+00 0. -1.
</event>
<event>
 7    1  0.6988825E-006  0.1296417E+03  0.7561462E-02  0.1227988E+00
         -2   -1    0    0    0  501 -0.00000000000E+00  0.00000000000E+00  0.38881764766E+02  0.38881764766E+02  0.00000000000E+00 0.  1.
          2   -1    0    0  501    0  0.00000000000E+00 -0.00000000000E+00 -0.88657494284E+03  0.88657494284E+03  0.00000000000E+00 0. -1.
         23    2    1    2    0    0  0.53291660495E+02  0.51076426348E+02 -0.75825851499E+02  0.14041666653E+03  0.92295601619E+02 0.  0.
          5    1    1    2  502    0  0.34259766012E+02 -0.41621588610E+02 -0.25019199296E+03  0.25596795492E+03  0.41800000000E+01 0. -1.
         -5    1    1    2    0  502 -0.87551426507E+02 -0.94548377374E+01 -0.52167533362E+03  0.52907208615E+03  0.41800000000E+01 0.  1.
        -11    1    3    3    0    0  0.32873213399E+02 -0.23061421814E+02 -0.17035560993E+02  0.43619808271E+02  0.00000000000E+00 0. -1.
         11    1    3    3    0    0  0.20418447096E+02  0.74137848162E+02 -0.58790290505E+02  0.96796858263E+02  0.00000000000E+00 0.  1.
</event>
<event>
 7    1  0.6988825E-006  0.1180672E+03  0.7561462E-02  0.1246320E+00
         -4   -1    0    0    0  501 -0.00000000000E+00  0.00000000000E+00  0.94550731686E+02  0.94550731686E+02  0.00000000000E+00 0.  1.
          4   -1    0    0  501    0  0.00000000000E+00 -0.00000000000E+00 -0.15562141250E+03  0.15562141250E+03  0.00000000000E+00 0. -1.
         23    2    1    2    0    0 -0.64227680285E+01 -0.49166440418E+02 -0.92572457854E+01  0.10598254341E+03  0.93209506461E+02 0.  0.
          5    1    1    2  502    0 -0.41396069620E+02 -0.21884513494E+02 -0.72884109118E+01  0.47572679602E+02  0.41800000000E+01 0.  1.
         -5    1    1    2    0  502  0.47818837649E+02  0.71050953913E+02 -0.44525024120E+02  0.96616921183E+02  0.41800000000E+01 0.  1.
        -11    1    3    3    0    0  0.20050736255E+02  0.20606119833E+02 -0.12351679471E+02  0.31292302324E+02  0.00000000000E+00 0.  1.
         11    1    3    3    0    0 -0.26473504284E+02 -0.69772560251E+02  0.30944336852E+01  0.74690241082E+02  0.00000000000E+00 0. -1.
</event>
<event>
 7    1  0.6988825E-006  0.1283328E+03  0.7561462E-02  0.1229951E+00
          1   -1    0    0  501    0  0.00000000000E+00  0.00000000000E+00  0.12150610745E+03  0.12150610745E+03  0.00000000000E+00 0. -1.
         -1   -1    0    0    0  501 -0.00000000000E+00 -0.00000000000E+00 -0.16993994936E+03  0.16993994936E+03  0.00000000000E+00 0.  1.
         23    2    1    2    0    0  0.76826166476E+02  0.51014112350E+02 -0.42584860457E+02  0.13589575596E+03  0.90274507109E+02 0.  0.
          5    1    1    2  502    0 -0.47653128923E+02  0.19336969329E+02 -0.46201874337E+02  0.69259112551E+02  0.41800000000E+01 0. -1.
         -5    1    1    2    0  502 -0.29173037552E+02 -0.70351081678E+02  0.40352892887E+02  0.86291188297E+02  0.41800000000E+01 0. -1.
        -11    1    3    3    0    0  0.94190480675E+02  0.24886290423E+02 -0.35849061015E+02  0.10380910016E+03  0.00000000000E+00 0.  1.
         11    1    3    3    0    0 -0.17364314199E+02  0.26127821926E+02 -0.67357994420E+01  0.32086655798E+02  0.00000000000E+00 0. -1.
</event>
<event>
 7    1  0.6988825E-006  0.5184501E+02  0.7561462E-02  0.1435637E+00
         -1   -1    0    0    0  501 -0.00000000000E+00  0.00000000000E+00  0.93690475607E+02  0.93690475607E+02  0.00000000000E+00 0.  1.
          1   -1    0    0  501    0  0.00000000000E+00 -0.00000000000E+00 -0.13552380883E+03  0.13552380883E+03  0.00000000000E+00 0. -1.
         23    2    1    2    0    0 -0.19170504961E+02 -0.10771731669E+02 -0.24902647998E+01  0.96337999760E+02  0.93761774276E+02 0.  0.
          5    1    1    2  502    0 -0.73360156846E+01  0.12809888265E+02  0.43312812657E+02  0.45949782412E+02  0.41800000000E+01 0.  1.
         -5    1    1    2    0  502  0.26506520646E+02 -0.20381565958E+01 -0.82655881078E+02  0.86926502264E+02  0.41800000000E+01 0.  1.
        -11    1    3    3    0    0  0.14332152784E+02 -0.21866182899E+02 -0.38096619921E+02  0.46204902417E+02  0.00000000000E+00 0. -1.
         11    1    3    3    0    0 -0.33502657746E+02  0.11094451230E+02  0.35606355121E+02  0.50133097342E+02  0.00000000000E+00 0.  1.
</event>
<event>
 7    1  0.6988825E-006  0.1330794E+03  0.7561462E-02  0.1222957E+00
          1   -1    0    0  501    0  0.00000000000E+00  0.00000000000E+00  0.19253174762E+04  0.19253174762E+04  0.00000000000E+00 0. -1.
         -1   -1    0    0    0  501 -0.00000000000E+00 -0.00000000000E+00 -0.12973580829E+02  0.12973580829E+02  0.00000000000E+00 0.  1.
         23    2    1    2    0    0 -0.32807227327E+02  0.99485396360E+02  0.62312177366E+03  0.63878541102E+03  0.93767789081E+02 0.  0.
          5    1    1    2  502    0  0.57946370799E+02 -0.28942326291E+02  0.94403142295E+03  0.94626013340E+03  0.41800000000E+01 0. -1.
         -5    1    1    2    0  502 -0.25139143472E+02 -0.70543070069E+02  0.34519069877E+03  0.35324551262E+03  0.41800000000E+01 0. -1.
        -11    1    3    3    0    0 -0.31509804023E+02  0.11062842208E+03  0.61292532680E+03  0.62362566637E+03  0.00000000000E+00 0. -1.
         11    1    3    3    0    0 -0.12974233037E+01 -0.11143025716E+02  0.10196446861E+02  0.15159744652E+02  0.00000000000E+00 0.  1.
</event>
<event>
 7    1  0.6988825E-006  0.1916642E+03  0.7561462E-02  0.1156969E+00
          1   -1    0    0  501    0  0.00000000000E+00  0.00000000000E+00  0.16546710995E+04  0.16546710995E+04  0.00000000000E+00 0. -1.
         -1   -1    0    0    0  501 -0.00000000000E+00 -0.00000000000E+00 -0.23149153699E+02  0.23149153699E+02  0.00000000000E+00 0.  1.
         23    2    1    2    0    0 -0.13419435821E+03  0.90999366999E+02  0.83285280305E+03  0.85331110064E+03  0.90592672738E+02 0.  0.
          5    1    1    2  502    0  0.15278029933E+03 -0.53910801491E+02  0.59931905643E+03  0.62084538992E+03  0.41800000000E+01 0. -1.
         -5    1    1    2    0  502 -0.18585941124E+02 -0.37088565508E+02  0.19935008634E+03  0.20366376266E+03  0.41800000000E+01 0. -1.
        -11    1    3    3    0    0 -0.12431943140E+03  0.44521126378E+02  0.69673522386E+03  0.70913850825E+03  0.00000000000E+00 0. -1.
         11    1    3    3    0    0 -0.98749268009E+01  0.46478240621E+02  0.13611757919E+03  0.14417259239E+03  0.00000000000E+00 0.  1.
</event>
<event>
 7    1  0.6988825E-006  0.1579216E+03  0.7561462E-02  0.1191063E+00
          2   -1    0    0  501    0  0.00000000000E+00  0.00000000000E+00  0.64067115396E+03  0.64067115396E+03  0.00000000000E+00 0. -1.
         -2   -1    0    0    0  501 -0.00000000000E+00 -0.00000000000E+00 -0.52460250734E+02  0.52460250734E+02  0.00000000000E+00 0.  1.
         23    2    1    2    0    0 -0.53843767276E+02  0.11261330496E+03  0.12753693423E+03  0.19972600071E+03  0.89687780875E+02 0.  0.
          5    1    1    2  502    0 -0.29736156780E+02 -0.56503829660E+02  0.98348124952E+02  0.11733178541E+03  0.41800000000E+01 0. -1.
         -5    1    1    2    0  502  0.83579924056E+02 -0.56109475301E+02  0.36232584404E+03  0.37607361857E+03  0.41800000000E+01 0. -1.
        -11    1    3    3    0    0 -0.72500416832E+02  0.11072585048E+03  0.97775346117E+02  0.16454951447E+03  0.00000000000E+00 0.  1.
         11    1    3    3    0    0  0.18656649556E+02  0.18874544846E+01  0.29761588116E+02  0.35176486241E+02  0.00000000000E+00 0. -1.
</event>
<event>
 7    1  0.6988825E-006  0.1569692E+03  0.7561462E-02  0.1192162E+00
          2   -1    0    0  501    0  0.00000000000E+00  0.00000000000E+00  0.20285731568E+04  0.20285731568E+04  0.00000000000E+00 0. -1.
         -2   -1    0    0    0  501 -0.00000000000E+00 -0.00000000000E+00 -0.16154489981E+02  0.16154489981E+02  0.00000000000E+00 0.  1.
         23    2    1    2    0    0  0.96298270290E+02  0.73881083523E+02  0.50801673893E+03  0.53026260170E+03  0.91463918371E+02 0.  0.
          5    1    1    2  502    0 -0.17587157092E+02  0.30691574657E+02  0.54565150688E+03  0.54681287495E+03  0.41800000000E+01 0. -1.
         -5    1    1    2    0  502 -0.78711113198E+02 -0.10457265818E+03  0.95875042105E+03  0.96765217017E+03  0.41800000000E+01 0. -1.
        -11    1    3    3    0    0  0.82405818005E+02  0.11198132968E+02  0.34904235000E+03  0.35881287479E+03  0.00000000000E+00 0. -1.
         11    1    3    3    0    0  0.13892452285E+02  0.62682950554E+02  0.15897438893E+03  0.17144972691E+03  0.00000000000E+00 0.  1.
</event>
<event>
 7    1  0.6988825E-006  0.1144460E+03  0.7561462E-02  0.1252551E+00
         -1   -1    0    0    0  501 -0.00000000000E+00  0.00000000000E+00  0.65096482348E+02  0.65096482348E+02  0.00000000000E+00 0.  1.
          1   -1    0    0  501    0  0.00000000000E+00 -0.00000000000E+00 -0.30621771897E+03  0.30621771897E+03  0.00000000000E+00 0. -1.
         23    2    1    2    0    0  0.10863474703E+01 -0.80535748331E+02 -0.66814711897E+02  0.14214579674E+03  0.96197894447E+02 0.  0.
          5    1    1    2  502    0  0.55781311493E+02  0.70944667680E+02 -0.11626456818E+03  0.14724001766E+03  0.41800000000E+01 0.  1.
         -5    1    1    2    0  502 -0.56867658964E+02  0.95910806511E+01 -0.58041956541E+02  0.81928386919E+02  0.41800000000E+01 0.  1.
        -11    1    3    3    0    0  0.31915570312E+01 -0.59168095120E+02  0.12001532606E+02  0.60457309742E+02  0.00000000000E+00 0.  1.
         11    1    3    3    0    0 -0.21052095609E+01 -0.21367653212E+02 -0.78816244503E+02  0.81688487002E+02  0.00000000000E+00 0. -1.
</event>
<event>
 7    1  0.6988825E-006  0.1885817E+03  0.7561462E-02  0.1159747E+00
          2   -1    0    0  501    0  0.00000000000E+00  0.00000000000E+00  0.35610790388E+03  0.35610790388E+03  0.00000000000E+00 0. -1.
         -2   -1    0    0    0  501 -0.00000000000E+00 -0.00000000000E+00 -0.15652700296E+03  0.15652700296E+03  0.00000000000E+00 0.  1.
         23    2    1    2    0    0 -0.18250044454E+03  0.32311203950E+02 -0.80275424130E+01  0.20751252324E+03  0.92986986768E+02 0.  0.
          5    1    1    2  502    0  0.16794428785E+03 -0.15688637455E+02  0.10203399921E+03  0.19717968090E+03  0.41800000000E+01 0.  1.
         -5    1    1    2    0  502  0.14556156688E+02 -0.16622566495E+02  0.10557444413E+03  0.10794270270E+03  0.41800000000E+01 0.  1.
        -11    1    3    3    0    0 -0.14538709034E+03  0.31840271906E+02 -0.44633908606E+02  0.15538144918E+03  0.00000000000E+00 0.  1.
         11    1    3    3    0    0 -0.37113354196E+02  0.47093204408E+00  0.36606366193E+02  0.52131074058E+02  0.00000000000E+00 0. -1.
</event>
<event>
 7    1  0.6988825E-006  0.9017199E+02  0.7561462E-02  0.1302436E+00
         -1   -1    0    0    0  501 -0.00000000000E+00  0.00000000000E+00  0.61596226549E+02  0.61596226549E+02  0.00000000000E+00 0.  1.
          1   -1    0    0  501    0  0.00000000000E+00 -0.00000000000E+00 -0.33484525580E+03  0.33484525580E+03  0.00000000000E+00 0. -1.
         23    2    1    2    0    0 -0.27734768767E+02 -0.34967502137E+02 -0.10521357225E+02  0.10205171726E+03  0.91169679354E+02 0.  0.
          5    1    1    2  502    0 -0.35871327782E+02 -0.25316885544E+02 -0.71712912540E+02  0.84189732601E+02  0.41800000000E+01 0.  1.
         -5    1    1    2    0  502  0.63606096549E+02  0.60284387681E+02 -0.19101475949E+03  0.21020003249E+03  0.41800000000E+01 0.  1.
        -11    1    3    3    0    0 -0.33391695050E+01 -0.19130351369E+02 -0.49641016724E+02  0.53304323820E+02  0.00000000000E+00 0. -1.
         11    1    3    3    0    0 -0.24395599262E+02 -0.15837150768E+02  0.39119659499E+02  0.48747393440E+02  0.00000000000E+00 0.  1.
</event>
<event>
 7    1  0.6988825E-006  0.9060110E+02  0.7561462E-02  0.1301403E+00
         -2   -1    0    0    0  501 -0.00000000000E+00  0.00000000000E+00  0.16171986636E+03  0.16171986636E+03  0.00000000000E+00 0.  1.
          2   -1    0    0  501    0  0.00000000000E+00 -0.00000000000E+00 -0.90189367575E+02  0.90189367575E+02  0.00000000000E+00 0. -1.
         23    2    1    2    0    0 -0.39112977314E+02 -0.12230374999E+02  0.61078439176E+02  0.11986382561E+03  0.94643298180E+02 0.  0.
          5    1    1    2  502    0 -0.49387613687E+01  0.52403058680E+02  0.39165050415E+02  0.65740744572E+02  0.41800000000E+01 0. -1.
         -5    1    1    2    0  502  0.44051738682E+02 -0.40172683681E+02 -0.28712990804E+02  0.66304663757E+02  0.41800000000E+01 0. -1.
        -11    1    3    3    0    0  0.13765743172E+02  0.19143661227E+01  0.63567803000E+02  0.65069394196E+02  0.00000000000E+00 0.  1.
         11    1    3    3    0    0 -0.52878720486E+02 -0.14144741122E+02 -0.24893638237E+01  0.54794431413E+02  0.00000000000E+00 0. -1.
</event>
<event>
 7    1  0.6988825E-006  0.1143783E+03  0.7561462E-02  0.1252670E+00
         -1   -1    0    0    0  501 -0.00000000000E+00  0.00000000000E+00  0.43719813530E+02  0.43719813530E+02  0.00000000000E+00 0.  1.
          1   -1    0    0  501    0  0.00000000000E+00 -0.00000000000E+00 -0.76539424474E+03  0.76539424474E+03  0.00000000000E+00 0. -1.
         23    2    1    2    0    0 -0.30641506064E+02  0.86002868329E+02 -0.85329709591E+02  0.15419514983E+03  0.90330446903E+02 0.  0.
          5    1    1    2  502    0  0.48861044211E-01  0.10736234881E+02 -0.36521377331E+03  0.36539545939E+03  0.41800000000E+01 0. -1.
         -5    1    1    2    0  502  0.30592645020E+02 -0.96739103210E+02 -0.27113094831E+03  0.28952344906E+03  0.41800000000E+01 0. -1.
        -11    1    3    3    0    0 -0.53189756075E+02  0.70544520332E+02 -0.31457097883E+02  0.93782879607E+02  0.00000000000E+00 0.  1.
         11    1    3    3    0    0  0.22548250011E+02  0.15458347997E+02 -0.53872611708E+02  0.60412270224E+02  0.00000000000E+00 0. -1.
</event>
<event>
 7    1  0.6988825E-006  0.1068796E+03  0.7561462E-02  0.1266460E+00
         -3   -1    0    0    0  501 -0.00000000000E+00  0.00000000000E+00  0.41763100977E+02  0.41763100977E+02  0.00000000000E+00 0.  1.
          3   -1    0    0  501    0  0.00000000000E+00 -0.00000000000E+00 -0.30201338564E+03  0.30201338564E+03  0.00000000000E+00 0. -1.
         23    2    1    2    0    0  0.32222708052E+02  0.41388678213E+01 -0.99792989003E+02  0.13774636547E+03  0.89218761506E+02 0.  0.
          5    1    1    2  502    0 -0.33121626775E+02  0.56539867748E+02 -0.62054845382E+02  0.90344203138E+02  0.41800000000E+01 0.  1.
         -5    1    1    2    0  502  0.89891872267E+00 -0.60678735570E+02 -0.98402450282E+02  0.11568591801E+03  0.41800000000E+01 0.  1.
        -11    1    3    3    0    0 -0.11005850482E+02 -0.30148348176E+02 -0.65069388064E+02  0.72553958580E+02  0.00000000000E+00 0. -1.
         11    1    3    3    0    0  0.43228558534E+02  0.34287215998E+02 -0.34723600939E+02  0.65192406889E+02  0.00000000000E+00 0.  1.
</event>
<event>
 7    1  0.6988825E-006  0.1920018E+03  0.7561462E-02  0.1156668E+00
         -1   -1    0    0    0  501 -0.00000000000E+00  0.00000000000E+00  0.50803336412E+02  0.50803336412E+02  0.00000000000E+00 0.  1.
          1   -1    0    0  501    0  0.00000000000E+00 -0.00000000000E+00 -0.95172751510E+03  0.95172751510E+03  0.00000000000E+00 0. -1.
         23    2    1    2    0    0 -0.42766158857E+02 -0.16484623083E+03 -0.23936782008E+03  0.30804754274E+03  0.92699035229E+02 0.  0.
          5    1    1    2  502    0  0.71335994565E+02  0.10418957268E+03 -0.54946485645E+03  0.56380261799E+03  0.41800000000E+01 0.  1.
         -5    1    1    2    0  502 -0.28569835709E+02  0.60656658145E+02 -0.11209150215E+03  0.13068069079E+03  0.41800000000E+01 0.  1.
        -11    1    3    3    0    0  0.14715602982E+02 -0.11018425986E+03 -0.11061225451E+03  0.15681897506E+03  0.00000000000E+00 0.  1.
         11    1    3    3    0    0 -0.57481761839E+02 -0.54661970970E+02 -0.12875556558E+03  0.15122856768E+03  0.00000000000E+00 0. -1.
</event>
<event>
 7    1  0.6988825E-006  0.1164781E+03  0.7561462E-02  0.1249023E+00
         -1   -1    0    0    0  501 -0.00000000000E+00  0.00000000000E+00  0.25745297418E+02  0.25745297418E+02  0.00000000000E+00 0.  1.
          1   -1    0    0  501    0  0.00000000000E+00 -0.00000000000E+00 -0.67666920680E+03  0.67666920680E+03  0.00000000000E+00 0. -1.
         23    2    1    2    0    0  0.80741404400E+02  0.77065292834E+01 -0.28887037982E+03  0.31358439417E+03  0.91162003885E+02 0.  0.
          5    1    1    2  502    0  0.33262160786E+01 -0.44092231081E+02 -0.17444444362E+03  0.18000979103E+03  0.41800000000E+01 0. -1.
         -5    1    1    2    0  502 -0.84067620479E+02  0.36385701798E+02 -0.18760908594E+03  0.20882031902E+03  0.41800000000E+01 0.  1.
        -11    1    3    3    0    0  0.14920650972E+02  0.24705799921E+02 -0.17332548455E+02  0.33666297853E+02  0.00000000000E+00 0.  1.
         11    1    3    3    0    0  0.65820753428E+02 -0.16999270638E+02 -0.27153783137E+03  0.27991809632E+03  0.00000000000E+00 0. -1.
</event>
<event>
 7    1  0.6988825E-006  0.5786237E+02  0.7561462E-02  0.1407028E+00
          2   -1    0    0  501    0  0.00000000000E+00  0.00000000000E+00  0.86076895480E+03  0.86076895480E+03  0.00000000000E+00 0. -1.
         -2   -1    0    0    0  501 -0.00000000000E+00 -0.00000000000E+00 -0.14925582508E+02  0.14925582508E+02  0.00000000000E+00 0.  1.
         23    2    1    2    0    0 -0.97982052965E+01 -0.23805778911E+02  0.28755627501E+03  0.30298612352E+03  0.91919855367E+02 0.  0.
          5    1    1    2  502    0  0.10368066653E+02 -0.74420697001E+01 -0.10179736508E+00  0.13429965385E+02  0.41800000000E+01 0.  1.
         -5    1    1    2    0  502 -0.56986135613E+00  0.31247848611E+02  0.55838889464E+03  0.55927844840E+03  0.41800000000E+01 0.  1.
        -11    1    3    3    0    0 -0.20954986575E+02 -0.43412335095E+02  0.27035135411E+03  0.27461536186E+03  0.00000000000E+00 0. -1.
         11    1    3    3    0    0  0.11156781278E+02  0.19606556184E+02  0.17204920901E+02  0.28370761659E+02  0.00000000000E+00 0.  1.
</event>
<event>
 7    1  0.6988825E-006  0.1641131E+03  0.7561462E-02  0.1184130E+00
         -2   -1    0    0    0  501 -0.00000000000E+00  0.00000000000E+00  0.33219446989E+02  0.33219446989E+02  0.00000000000E+00 0.  1.
          2   -1    0    0  501    0  0.00000000000E+00 -0.00000000000E+00 -0.16355603425E+04  0.16355603425E+04  0.00000000000E+00 0. -1.
         23    2    1    2    0    0 -0.11162638446E+03 -0.84255881284E+02 -0.23344485640E+03  0.28708369801E+03  0.91438752438E+02 0.  0.
          5    1    1    2  502    0 -0.20354565307E+02 -0.87651145064E+01 -0.97122386006E+02  0.99706398113E+02  0.41800000000E+01 0. -1.
         -5    1    1    2    0  502  0.13198094976E+03  0.93020995790E+02 -0.12717736531E+04  0.12819896934E+04  0.41800000000E+01 0. -1.
        -11    1    3    3    0    0 -0.57553165355E+02 -0.21807730099E+02 -0.17604474918E+03  0.18649315711E+03  0.00000000000E+00 0. -1.
         11    1    3    3    0    0 -0.54073219100E+02 -0.62448151185E+02 -0.57400107217E+02  0.10059054090E+03  0.00000000000E+00 0.  1.
</event>
<event>
 7    1  0.6988825E-006  0.1315681E+03  0.7561462E-02  0.1225147E+00
         -2   -1    0    0    0  501 -0.00000000000E+00  0.00000000000E+00  0.70858212754E+02  0.70858212754E+02  0.00000000000E+00 0.  1.
          2   -1    0    0  501    0  0.00000000000E+00 -0.00000000000E+00 -0.38388715265E+03  0.38388715265E+03  0.00000000000E+00 0. -1.
         23    2    1    2    0    0  0.59860475876E+02  0.42453469093E+02 -0.16027078616E+02  0.11695783749E+03  0.89647615096E+02 0.  0.
          5    1    1    2  502    0  0.41045994556E+02 -0.44326857172E+00 -0.14340907578E+03  0.14922669189E+03  0.41800000000E+01 0. -1.
         -5    1    1    2    0  502 -0.10090647043E+03 -0.42010200521E+02 -0.15359278549E+03  0.18856083601E+03  0.41800000000E+01 0.  1.
        -11    1    3    3    0    0  0.25814943282E+02 -0.25626711288E+02 -0.18479613229E+02  0.40799947711E+02  0.00000000000E+00 0.  1.
         11    1    3    3    0    0  0.34045532593E+02  0.68080180381E+02  0.24525346132E+01  0.76157889784E+02  0.00000000000E+00 0. -1.
</event>
<event>
 7    1  0.6988825E-006  0.1100809E+03  0.7561462E-02  0.1260420E+00
          1   -1    0    0  501    0  0.00000000000E+00  0.00000000000E+00  0.88311399225E+03  0.88311399225E+03  0.00000000000E+00 0. -1.
         -1   -1    0    0    0  501 -0.00000000000E+00 -0.00000000000E+00 -0.15933304105E+02  0.15933304105E+02  0.00000000000E+00 0.  1.
         23    2    1    2    0    0  0.32899539466E+02  0.19864074620E+02  0.26122158894E+03  0.27911909272E+03  0.90519546156E+02 0.  0.
          5    1    1    2  502    0  0.43894347077E+02 -0.87855635994E+01  0.33648467210E+03  0.33947504590E+03  0.41800000000E+01 0. -1.
         -5    1    1    2    0  502 -0.76793886543E+02 -0.11078511020E+02  0.26947442711E+03  0.28045315773E+03  0.41800000000E+01 0. -1.
        -11    1    3    3    0    0  0.45528004392E+02  0.48306933226E+02  0.19402610815E+03  0.20506703690E+03  0.00000000000E+00 0.  1.
         11    1    3    3    0    0 -0.12628464926E+02 -0.28442858606E+02  0.67195480793E+02  0.74052055819E+02  0.00000000000E+00 0. -1.
</event>
<event>
 7    1  0.6988825E-006  0.1950664E+03  0.7561462E-02  0.1153970E+00
          1   -1    0    0  501    0  0.00000000000E+00  0.00000000000E+00  0.85601220148E+02  0.85601220148E+02  0.00000000000E+00 0. -1.
         -1   -1    0    0    0  501 -0.00000000000E+00 -0.00000000000E+00 -0.51316500166E+03  0.51316500166E+03  0.00000000000E+00 0.  1.
         23    2    1    2    0    0  0.15249810205E+03 -0.62637506000E+02 -0.31075874129E+03  0.36112775019E+03  0.81627987737E+02 0.  0.
          5    1    1    2  502    0 -0.17232602177E+03  0.68519571388E+02 -0.10049121097E+03  0.21096716646E+03  0.41800000000E+01 0.  1.
         -5    1    1    2    0  502  0.19827919726E+02 -0.58820653877E+01 -0.16313829241E+02  0.26671305150E+02  0.41800000000E+01 0.  1.
        -11    1    3    3    0    0  0.14948275497E+03 -0.32150530299E+02 -0.24923463973E+03  0.29239811264E+03  0.00000000000E+00 0.  1.
         11    1    3    3    0    0  0.30153470786E+01 -0.30486975701E+02 -0.61524101560E+02  0.68729637553E+02  0.00000000000E+00 0. -1.
</event>
<event>
 7    1  0.6988825E-006  0.1447212E+03  0.7561462E-02  0.1207114E+00
          2   -1    0    0  501    0  0.00000000000E+00  0.00000000000E+00  0.13415843850E+04  0.13415843850E+04  0.00000000000E+00 0. -1.
         -2   -1    0    0    0  501 -0.00000000000E+00 -0.00000000000E+00 -0.42537776967E+02  0.42537776967E+02  0.00000000000E+00 0.  1.
         23    2    1    2    0    0  0.10052874858E+03  0.64129591221E+02  0.12584538880E+03  0.19825966327E+03  0.96183150470E+02 0.  0.
          5    1    1    2  502    0 -0.88023214496E+02  0.15301376553E+02  0.72379145796E+03  0.72929676088E+03  0.41800000000E+01 0. -1.
         -5    1    1    2    0  502 -0.12505534087E+02 -0.79430967774E+02  0.44940976124E+03  0.45656573779E+03  0.41800000000E+01 0. -1.
        -11    1    3    3    0    0  0.59085494407E+02  0.42090512340E+02  0.99551157502E+01  0.73224389434E+02  0.00000000000E+00 0.  1.
         11    1    3    3    0    0  0.41443254176E+02  0.22039078881E+02  0.11589027305E+03  0.12503527383E+03  0.00000000000E+00 0. -1.
</event>
<event>
 7    1  0.6988825E-006  0.9866146E+02  0.7561462E-02  0.1283136E+00
         -4   -1    0    0    0  501 -0.00000000000E+00  0.00000000000E+00  0.38749204956E+02  0.38749204956E+02  0.00000000000E+00 0. -1.
          4   -1    0    0  501    0  0.00000000000E+00 -0.00000000000E+00 -0.52628018200E+03  0.52628018200E+03  0.00000000000E+00 0.  1.
         23    2    1    2    0    0  0.13531549491E+02 -0.63249402413E+02 -0.57726555062E+02  0.11274349983E+03  0.72077401854E+02 0.  0.
          5    1    1    2  502    0 -0.23944587115E+01 -0.26648835589E+02 -0.24437169910E+03  0.24586763429E+03  0.41800000000E+01 0.  1.
         -5    1    1    2    0  502 -0.11137090779E+02  0.89898238001E+02 -0.18543272288E+03  0.20641825283E+03  0.41800000000E+01 0.  1.
        -11    1    3    3    0    0 -0.16088531496E+02 -0.10968658705E+02 -0.48096039251E+02  0.51888161570E+02  0.00000000000E+00 0.  1.
         11    1    3    3    0    0  0.29620080987E+02 -0.52280743708E+02 -0.96305158112E+01  0.60855338263E+02  0.00000000000E+00 0. -1.
</event>
<event>
 7    1  0.6988825E-006  0.1867715E+03  0.7561462E-02  0.1161406E+00
          1   -1    0    0  501    0  0.00000000000E+00  0.00000000000E+00  0.27378152563E+03  0.27378152563E+03  0.00000000000E+00 0. -1.
         -1   -1    0    0    0  501 -0.00000000000E+00 -0.00000000000E+00 -0.14408766193E+03  0.14408766193E+03  0.00000000000E+00 0.  1.
         23    2    1    2    0    0  0.12559768561E+03  0.10812157554E+03  0.69618789318E+02  0.20172249728E+03  0.91543084701E+02 0.  0.
          5    1    1    2  502    0 -0.10805736385E+03 -0.12091734528E+03  0.11320850859E+02  0.16261313703E+03  0.41800000000E+01 0.  1.
         -5    1    1    2    0  502 -0.17540321761E+02  0.12795769744E+02  0.48754223531E+02  0.53533553244E+02  0.41800000000E+01 0.  1.
        -11    1    3    3    0    0  0.83199051497E+02  0.11922603230E+03  0.50514875378E+02  0.15391127828E+03  0.00000000000E+00 0. -1.
         11    1    3    3    0    0  0.42398634114E+02 -0.11104456761E+02  0.19103913941E+02  0.47811219003E+02  0.00000000000E+00 0.  1.
</event>
<event>
 7    1  0.6988825E-006  0.2485412E+03  0.7561462E-02  0.1114230E+00
          1   -1    0    0  501    0  0.00000000000E+00  0.00000000000E+00  0.46886336781E+03  0.46886336781E+03  0.00000000000E+00 0. -1.
         -1   -1    0    0    0  501 -0.00000000000E+00 -0.00000000000E+00 -0.15998992058E+03  0.15998992058E+03  0.00000000000E+00 0.  1.
         23    2    1    2    0    0 -0.84639028549E+02  0.22556032262E+03  0.70532433431E+02  0.26761116490E+03  0.92734497979E+02 0.  0.
          5    1    1    2  502    0  0.23033475605E+02 -0.48862725367E+02  0.13932679127E+03  0.14949091643E+03  0.41800000000E+01 0. -1.
         -5    1    1    2    0  502  0.61605552944E+02 -0.17669759726E+03  0.99014222527E+02  0.21175120706E+03  0.41800000000E+01 0. -1.
        -11    1    3    3    0    0  0.71252379128E+00  0.11988405060E+03  0.51363508501E+02  0.13042585359E+03  0.00000000000E+00 0. -1.
         11    1    3    3    0    0 -0.85351552340E+02  0.10567627202E+03  0.19168924931E+02  0.13718531130E+03  0.00000000000E+00 0.  1.
</event>
<event>
 7    1  0.6988825E-006  0.1253136E+03  0.7561462E-02  0.1234580E+00
          1   -1    0    0  501    0  0.00000000000E+00  0.00000000000E+00  0.44622936510E+03  0.44622936510E+03  0.00000000000E+00 0. -1.
         -1   -1    0    0    0  501 -0.00000000000E+00 -0.00000000000E+00 -0.39523497576E+02  0.39523497576E+02  0.00000000000E+00 0.  1.
         23    2    1    2    0    0  0.52675585518E+02  0.50333271209E+02  0.13980981552E+03  0.18212581384E+03  0.91185920237E+02 0.  0.
          5    1    1    2  502    0 -0.90354729641E+02 -0.34538204958E+02  0.13975181351E+03  0.17001443041E+03  0.41800000000E+01 0. -1.
         -5    1    1    2    0  502  0.37679144124E+02 -0.15795066251E+02  0.12714423850E+03  0.13361261842E+03  0.41800000000E+01 0. -1.
        -11    1    3    3    0    0  0.58201281266E+02  0.70734188843E+02  0.91870665693E+02  0.12973408892E+03  0.00000000000E+00 0.  1.
         11    1    3    3    0    0 -0.55256957486E+01 -0.20400917634E+02  0.47939149827E+02  0.52391724918E+02  0.00000000000E+00 0. -1.
</event>
<event>
 7    1  0.6988825E-006  0.1288838E+03  0.7561462E-02  0.1229121E+00
          2   -1    0    0  501    0  0.00000000000E+00  0.00000000000E+00  0.13023961861E+04  0.13023961861E+04  0.00000000000E+00 0. -1.
         -2   -1    0    0    0  501 -0.00000000000E+00 -0.00000000000E+00 -0.34776444064E+02  0.34776444064E+02  0.00000000000E+00 0.  1.
         23    2    1    2    0    0  0.26030042952E+02  0.21634332574E+02  0.80108389305E+02  0.12374050334E+03  0.88026988177E+02 0.  0.
          5    1    1    2  502    0 -0.10734326759E+03 -0.43919626457E+02  0.10124593295E+04  0.10190892390E+04  0.41800000000E+01 0. -1.
         -5    1    1    2    0  502  0.81313224635E+02  0.22285293883E+02  0.17505202322E+03  0.19434288785E+03  0.41800000000E+01 0.  1.
        -11    1    3    3    0    0 -0.13304160853E+02  0.86732889541E+01  0.80774059296E+02  0.82320564214E+02  0.00000000000E+00 0. -1.
         11    1    3    3    0    0  0.39334203804E+02  0.12961043620E+02 -0.66566999052E+00  0.41419939126E+02  0.00000000000E+00 0.  1.
</event>
<event>
 7    1  0.6988825E-006  0.1058775E+03  0.7561462E-02  0.1268400E+00
         -1   -1    0    0    0  501 -0.00000000000E+00  0.00000000000E+00  0.23157084038E+03  0.23157084038E+03  0.00000000000E+00 0.  1.
          1   -1    0    0  501    0  0.00000000000E+00 -0.00000000000E+00 -0.88603282347E+02  0.88603282347E+02  0.00000000000E+00 0. -1.
         23    2    1    2    0    0  0.51059834154E+02  0.49765149212E+02  0.13223681888E+03  0.17578579913E+03  0.91270993030E+02 0.  0.
          5    1    1    2  502    0 -0.83769184684E+02 -0.21925947340E+02  0.36568840832E+02  0.94089191671E+02  0.41800000000E+01 0.  1.
         -5    1    1    2    0  502  0.32709350531E+02 -0.27839201872E+02 -0.25838101686E+02  0.50299131919E+02  0.41800000000E+01 0.  1.
        -11    1    3    3    0    0  0.82340094206E+01  0.35991481331E+02  0.12485276813E+03  0.13019753972E+03  0.00000000000E+00 0.  1.
         11    1    3    3    0    0  0.42825824733E+02  0.13773667881E+02  0.73840507555E+01  0.45588259415E+02  0.00000000000E+00 0. -1.
</event>
<event>
 7    1  0.6988825E-006  0.2388582E+03  0.7561462E-02  0.1120556E+00
          3   -1    0    0  501    0  0.00000000000E+00  0.00000000000E+00  0.10895530370E+03  0.10895530370E+03  0.00000000000E+00 0. -1.
         -3   -1    0    0    0  501 -0.00000000000E+00 -0.00000000000E+00 -0.78148518506E+03  0.78148518506E+03  0.00000000000E+00 0.  1.
         23    2    1    2    0    0  0.71148700725E+02 -0.10553261974E+03 -0.43557155702E+03  0.46312931281E+03  0.92557591012E+02 0.  0.
          5    1    1    2  502    0 -0.10700013204E+03  0.20955518291E+03 -0.20646046128E+03  0.31305877629E+03  0.41800000000E+01 0. -1.
         -5    1    1    2    0  502  0.35851431314E+02 -0.10402256317E+03 -0.30497863063E+02  0.11425239966E+03  0.41800000000E+01 0.  1.
        -11    1    3    3    0    0  0.87088215498E+01 -0.43140805256E+02 -0.45921388295E+02  0.63606183298E+02  0.00000000000E+00 0.  1.
         11    1    3    3    0    0  0.62439879176E+02 -0.62391814484E+02 -0.38965016873E+03  0.39952312951E+03  0.00000000000E+00 0. -1.
</event>
<event>
 7    1  0.6988825E-006  0.1573839E+03  0.7561462E-02  0.1191682E+00
         -1   -1    0    0    0  501 -0.00000000000E+00  0.00000000000E+00  0.78415765325E+03  0.78415765325E+03  0.00000000000E+00 0.  1.
          1   -1    0    0  501    0  0.00000000000E+00 -0.00000000000E+00 -0.49763727638E+02  0.49763727638E+02  0.00000000000E+00 0. -1.
         23    2    1    2    0    0  0.93158230057E+02 -0.93196480288E+02  0.55780649770E+03  0.58055537247E+03  0.92371055301E+02 0.  0.
          5    1    1    2  502    0  0.16802765611E+02  0.92440087021E+01  0.85382240393E+02  0.87609268937E+02  0.41800000000E+01 0. -1.
         -5    1    1    2    0  502 -0.10996099567E+03  0.83952471586E+02  0.91205187512E+02  0.16575673948E+03  0.41800000000E+01 0. -1.
        -11    1    3    3    0    0  0.77743471528E+02 -0.17773517080E+02  0.34939144504E+03  0.35837735300E+03  0.00000000000E+00 0. -1.
         11    1    3    3    0    0  0.15414758529E+02 -0.75422963207E+02  0.20841505266E+03  0.22217801947E+03  0.00000000000E+00 0.  1.
</event>
<event>
 7    1  0.6988825E-006  0.1348134E+03  0.7561462E-02  0.1220483E+00
         -1   -1    0    0    0  501 -0.00000000000E+00  0.00000000000E+00  0.11585766841E+02  0.11585766841E+02  0.00000000000E+00 0.  1.
          1   -1    0    0  501    0  0.00000000000E+00 -0.00000000000E+00 -0.17553744475E+04  0.17553744475E+04  0.00000000000E+00 0. -1.
         23    2    1    2    0    0  0.28357448450E+02  0.76833467402E+02 -0.53305702593E+03  0.54703137282E+03  0.91575124156E+02 0.  0.
          5    1    1    2  502    0 -0.35641368017E+02  0.25552405034E+02 -0.47892838347E+03  0.48095020679E+03  0.41800000000E+01 0. -1.
         -5    1    1    2    0  502  0.72839195667E+01 -0.10238587244E+03 -0.73180327125E+03  0.73897863472E+03  0.41800000000E+01 0. -1.
        -11    1    3    3    0    0  0.24146991015E+02 -0.16608181262E+02 -0.13047536884E+03  0.13372632775E+03  0.00000000000E+00 0. -1.
         11    1    3    3    0    0  0.42104574348E+01  0.93441648663E+02 -0.40258165709E+03  0.41330504507E+03  0.00000000000E+00 0.  1.
</event>
<event>
 7    1  0.6988825E-006  0.1008005E+03  0.7561462E-02  0.1278622E+00
         -3   -1    0    0    0  501 -0.00000000000E+00  0.00000000000E+00  0.11717180860E+03  0.11717180860E+03  0.00000000000E+00 0.  1.
          3   -1    0    0  501    0  0.00000000000E+00 -0.00000000000E+00 -0.15003906520E+03  0.15003906520E+03  0.00000000000E+00 0. -1.
         23    2    1    2    0    0  0.18877393175E+01  0.64585994810E+02  0.15905579964E+02  0.11818559731E+03  0.97672583933E+02 0.  0.
          5    1    1    2  502    0  0.25421148773E+02 -0.93131499319E+02 -0.50953396019E+02  0.10924024870E+03  0.41800000000E+01 0. -1.
         -5    1    1    2    0  502 -0.27308888090E+02  0.28545504509E+02  0.21805594562E+01  0.39785027786E+02  0.41800000000E+01 0. -1.
        -11    1    3    3    0    0  0.52139753774E+01  0.50719547951E+02  0.55938587170E+02  0.75688728475E+02  0.00000000000E+00 0.  1.
         11    1    3    3    0    0 -0.33262360599E+01  0.13866446859E+02 -0.40033007206E+02  0.42496868835E+02  0.00000000000E+00 0. -1.
</event>
<event>
 7    1  0.6988825E-006  0.1178374E+03  0.7561462E-02  0.1246708E+00
         -1   -1    0    0    0  501 -0.00000000000E+00  0.00000000000E+00  0.57718812309E+02  0.57718812309E+02  0.00000000000E+00 0.  1.
          1   -1    0    0  501    0  0.00000000000E+00 -0.00000000000E+00 -0.25840092179E+03  0.25840092179E+03  0.00000000000E+00 0. -1.
         23    2    1    2    0    0 -0.12718620297E+02  0.51660414368E+02 -0.11641306642E+03  0.15619013997E+03  0.89514222769E+02 0.  0.
          5    1    1    2  502    0  0.59663976759E+02  0.68782952629E+01 -0.30256443339E+02  0.67379713801E+02  0.41800000000E+01 0. -1.
         -5    1    1    2    0  502 -0.46945356462E+02 -0.58538709631E+02 -0.54012599725E+02  0.92549880322E+02  0.41800000000E+01 0. -1.
        -11    1    3    3    0    0 -0.35253403791E+02  0.65132948723E+02 -0.65342880225E+02  0.98766368184E+02  0.00000000000E+00 0.  1.
         11    1    3    3    0    0  0.22534783494E+02 -0.13472534354E+02 -0.51070186191E+02  0.57423771791E+02  0.00000000000E+00 0. -1.
</event>
<event>
 7    1  0.6988825E-006  0.1037026E+03  0.7561462E-02  0.1272697E+00
          2   -1    0    0  501    0  0.00000000000E+00  0.00000000000E+00  0.31901833155E+03  0.31901833155E+03  0.00000000000E+00 0. -1.
         -2   -1    0    0    0  501 -0.00000000000E+00 -0.00000000000E+00 -0.50692910087E+02  0.50692910087E+02  0.00000000000E+00 0.  1.
         23    2    1    2    0    0 -0.58217287556E+01 -0.57782231872E+02  0.74960189124E+02  0.13218355372E+03  0.92091167188E+02 0.  0.
          5    1    1    2  502    0  0.62252881732E+02  0.19248328992E+02  0.12357846573E+03  0.13976776826E+03  0.41800000000E+01 0.  1.
         -5    1    1    2    0  502 -0.56431152976E+02  0.38533902879E+02  0.69786766604E+02  0.97759919652E+02  0.41800000000E+01 0.  1.
        -11    1    3    3    0    0  0.84701757929E+01 -0.58719794744E+02  0.36396471615E+01  0.59439088185E+02  0.00000000000E+00 0.  1.
         11    1    3    3    0    0 -0.14291904548E+02  0.93756287272E+00  0.71320541963E+02  0.72744465533E+02  0.00000000000E+00 0. -1.
</event>
<event>
 7    1  0.6988825E-006  0.1013901E+03  0.7561462E-02  0.1277400E+00
          2   -1    0    0  501    0  0.00000000000E+00  0.00000000000E+00  0.29294036397E+03  0.29294036397E+03  0.00000000000E+00 0.  1.
         -2   -1    0    0    0  501 -0.00000000000E+00 -0.00000000000E+00 -0.70113623642E+02  0.70113623642E+02  0.00000000000E+00 0. -1.
         23    2    1    2    0    0  0.66185329314E+02 -0.60617436275E+02  0.65903231779E+02  0.14322068233E+03  0.90077502692E+02 0.  0.
          5    1    1    2  502    0 -0.42171759270E+02  0.71480428910E+02  0.27265134785E+02  0.87457240820E+02  0.41800000000E+01 0. -1.
         -5    1    1    2    0  502 -0.24013570044E+02 -0.10862992635E+02  0.12965837377E+03  0.13237606446E+03  0.41800000000E+01 0. -1.
        -11    1    3    3    0    0  0.32819863665E+02 -0.14030207085E+02 -0.19272172228E+02  0.40563614043E+02  0.00000000000E+00 0. -1.
         11    1    3    3    0    0  0.33365465649E+02 -0.46587229189E+02  0.85175404007E+02  0.10265706829E+03  0.00000000000E+00 0.  1.
</event>
<event>
 7    1  0.6988825E-006  0.1660065E+03  0.7561462E-02  0.1182078E+00
          1   -1    0    0  501    0  0.00000000000E+00  0.00000000000E+00  0.59207228111E+02  0.59207228111E+02  0.00000000000E+00 0. -1.
         -1   -1    0    0    0  501 -0.00000000000E+00 -0.00000000000E+00 -0.48824328285E+03  0.48824328285E+03  0.00000000000E+00 0.  1.
         23    2    1    2    0    0 -0.87878509330E+02 -0.94705588550E+02 -0.17297964254E+03  0.23455448751E+03  0.91662805837E+02 0.  0.
          5    1    1    2  502    0  0.82708213572E+02  0.12191629724E+03 -0.23674703858E+03  0.27887428136E+03  0.41800000000E+01 0. -1.
         -5    1    1    2    0  502  0.51702957575E+01 -0.27210708689E+02 -0.19309373622E+02  0.34021742097E+02  0.41800000000E+01 0. -1.
        -11    1    3    3    0    0 -0.18189950145E+02 -0.84200650571E+02 -0.77445615524E+02  0.11583802142E+03  0.00000000000E+00 0.  1.
         11    1    3    3    0    0 -0.69688559184E+02 -0.10504937979E+02 -0.95534027011E+02  0.11871646609E+03  0.00000000000E+00 0. -1.
</event>
<event>
 7    1  0.6988825E-006  0.1087048E+03  0.7561462E-02  0.1262987E+00
          1   -1    0    0  501    0  0.00000000000E+00  0.00000000000E+00  0.92827997699E+03  0.92827997699E+03  0.00000000000E+00 0. -1.
         -1   -1    0    0    0  501 -0.00000000000E+00 -0.00000000000E+00 -0.15567017884E+02  0.15567017884E+02  0.00000000000E+00 0.  1.
         23    2    1    2    0    0  0.24069855933E+02  0.36033165104E+02  0.27282341684E+03  0.29040721561E+03  0.89587873908E+02 0.  0.
          5    1    1    2  502    0  0.16556736060E+02  0.39043600164E+02  0.29789811559E+03  0.30093070281E+03  0.41800000000E+01 0. -1.
         -5    1    1    2    0  502 -0.40626591993E+02 -0.75076765268E+02  0.34199142667E+03  0.35250907645E+03  0.41800000000E+01 0. -1.
        -11    1    3    3    0    0  0.23959131862E+02  0.60391207616E+02  0.12794985623E+03  0.14350018699E+03  0.00000000000E+00 0.  1.
         11    1    3    3    0    0  0.11072407107E+00 -0.24358042511E+02  0.14487356061E+03  0.14690702862E+03  0.00000000000E+00 0. -1.
</event>
<event>
 7    1  0.6988825E-006  0.1446275E+03  0.7561462E-02  0.1207234E+00
         -3   -1    0    0    0  501 -0.00000000000E+00  0.00000000000E+00  0.19946388722E+03  0.19946388722E+03  0.00000000000E+00 0.  1.
          3   -1    0    0  501    0  0.00000000000E+00 -0.00000000000E+00 -0.11818332517E+03  0.11818332517E+03  0.00000000000E+00 0. -1.
         23    2    1    2    0    0  0.93759392323E+02  0.49174537990E+02  0.51252682362E+02  0.15103906029E+03  0.94747039265E+02 0.  0.
          5    1    1    2  502    0  0.30357962225E+02 -0.33664505570E+01 -0.21888131600E+00  0.30829517817E+02  0.41800000000E+01 0.  1.
         -5    1    1    2    0  502 -0.12411735455E+03 -0.45808087433E+02  0.30246761008E+02  0.13577863428E+03  0.41800000000E+01 0.  1.
        -11    1    3    3    0    0  0.73026921477E+02  0.36343683606E+00  0.63314547881E+02  0.96652963328E+02  0.00000000000E+00 0.  1.
         11    1    3    3    0    0  0.20732470845E+02  0.48811101154E+02 -0.12061865519E+02  0.54386096964E+02  0.00000000000E+00 0. -1.
</event>
<event>
 7    1  0.6988825E-006  0.1892261E+03  0.7561462E-02  0.1159161E+00
         -2   -1    0    0    0  501 -0.00000000000E+00  0.00000000000E+00  0.32700393964E+02  0.32700393964E+02  0.00000000000E+00 0.  1.
          2   -1    0    0  501    0  0.00000000000E+00 -0.00000000000E+00 -0.11885942434E+04  0.11885942434E+04  0.00000000000E+00 0. -1.
         23    2    1    2    0    0  0.10674309704E+03  0.11065194017E+03 -0.40506413027E+03  0.44474378102E+03  0.10040986256E+03 0.  0.
          5    1    1    2  502    0 -0.10499987989E+03 -0.23429106117E+02 -0.34412806801E+03  0.36057661791E+03  0.41800000000E+01 0. -1.
         -5    1    1    2    0  502 -0.17432171492E+01 -0.87222834053E+02 -0.40670165120E+03  0.41597423847E+03  0.41800000000E+01 0. -1.
        -11    1    3    3    0    0 -0.17885136689E+02  0.30231806869E+02 -0.70021624227E+02  0.78338165158E+02  0.00000000000E+00 0. -1.
         11    1    3    3    0    0  0.12462823373E+03  0.80420133301E+02 -0.33504250604E+03  0.36640561587E+03  0.00000000000E+00 0.  1.
</event>
<event>
 7    1  0.6988825E-006  0.1857654E+03  0.7561462E-02  0.1162337E+00
         -1   -1    0    0    0  501 -0.00000000000E+00  0.00000000000E+00  0.22170984826E+03  0.22170984826E+03  0.00000000000E+00 0.  1.
          1   -1    0    0  501    0  0.00000000000E+00 -0.00000000000E+00 -0.22654557762E+03  0.22654557762E+03  0.00000000000E+00 0. -1.
         23    2    1    2    0    0 -0.14472482924E+03  0.60915055989E+02  0.11446613068E+03  0.21472704162E+03  0.91374433443E+02 0.  0.
          5    1    1    2  502    0  0.27717954192E+02 -0.66992887988E+02 -0.10119079013E+02  0.73322576234E+02  0.41800000000E+01 0. -1.
         -5    1    1    2    0  502  0.11700687505E+03  0.60778319990E+01 -0.10918278103E+03  0.16020580802E+03  0.41800000000E+01 0. -1.
        -11    1    3    3    0    0 -0.46957192399E+01  0.39779252469E+02  0.25722074299E+02  0.47603191200E+02  0.00000000000E+00 0. -1.
         11    1    3    3    0    0 -0.14002911000E+03  0.21135803520E+02  0.88744056384E+02  0.16712385042E+03  0.00000000000E+00 0.  1.
</event>
<event>
 7    1  0.6988825E-006  0.1519238E+03  0.7561462E-02  0.1198129E+00
         -1   -1    0    0    0  501 -0.00000000000E+00  0.00000000000E+00  0.16284230344E+03  0.16284230344E+03  0.00000000000E+00 0.  1.
          1   -1    0    0  501    0  0.00000000000E+00 -0.00000000000E+00 -0.15363021561E+03  0.15363021561E+03  0.00000000000E+00 0. -1.
         23    2    1    2    0    0  0.55973580946E+02  0.96188048618E+02  0.25859631226E+02  0.14821794264E+03  0.94417453536E+02 0.  0.
          5    1    1    2  502    0  0.29839363860E+02 -0.13504390797E+01 -0.26172878139E+02  0.39933736006E+02  0.41800000000E+01 0. -1.
         -5    1    1    2    0  502 -0.85812944806E+02 -0.94837609539E+02  0.95253347429E+01  0.12832084040E+03  0.41800000000E+01 0. -1.
        -11    1    3    3    0    0  0.81744415128E+02  0.60489948781E+02  0.14253887951E+02  0.10268571775E+03  0.00000000000E+00 0. -1.
         11    1    3    3    0    0 -0.25770834182E+02  0.35698099837E+02  0.11605743275E+02  0.45532224890E+02  0.00000000000E+00 0.  1.
</event>
<event>
 7    1  0.6988825E-006  0.2134998E+03  0.7561462E-02  0.1138824E+00
          2   -1    0    0  501    0  0.00000000000E+00  0.00000000000E+00  0.16540049316E+04  0.16540049316E+04  0.00000000000E+00 0. -1.
         -2   -1    0    0    0  501 -0.00000000000E+00 -0.00000000000E+00 -0.32696775386E+02  0.32696775386E+02  0.00000000000E+00 0.  1.
         23    2    1    2    0    0  0.13256375187E+03 -0.12868781703E+03  0.46201748387E+03  0.50613536227E+03  0.92623684740E+02 0.  0.
          5    1    1    2  502    0 -0.11203820635E+03  0.15284521126E+03  0.10358882324E+04  0.10530888474E+04  0.41800000000E+01 0.  1.
         -5    1    1    2    0  502 -0.20525545524E+02 -0.24157394235E+02  0.12340244002E+03  0.12747749730E+03  0.41800000000E+01 0.  1.
        -11    1    3    3    0    0  0.10756883119E+03 -0.42382684439E+02  0.28668214116E+03  0.30911809304E+03  0.00000000000E+00 0. -1.
         11    1    3    3    0    0  0.24994920680E+02 -0.86305132589E+02  0.17533534271E+03  0.19701726922E+03  0.00000000000E+00 0.  1.
</event>
<event>
 7    1  0.6988825E-006  0.3252167E+03  0.7561462E-02  0.1073273E+00
         -2   -1    0    0    0  501 -0.00000000000E+00  0.00000000000E+00  0.12367564768E+03  0.12367564768E+03  0.00000000000E+00 0.  1.
          2   -1    0    0  501    0  0.00000000000E+00 -0.00000000000E+00 -0.99567206175E+03  0.99567206175E+03  0.00000000000E+00 0. -1.
         23    2    1    2    0    0  0.18567393055E+03 -0.25491035750E+03 -0.25537198336E+03  0.41555418969E+03  0.89533992603E+02 0.  0.
          5    1    1    2  502    0 -0.43639501796E+02  0.11566545893E+03 -0.34935654802E+03  0.37060811452E+03  0.41800000000E+01 0. -1.
         -5    1    1    2    0  502 -0.14203442876E+03  0.13924489858E+03 -0.26726788268E+03  0.33318540521E+03  0.41800000000E+01 0. -1.
        -11    1    3    3    0    0 -0.42302171239E+01 -0.43125261034E+02 -0.31684358070E+02  0.53680363472E+02  0.00000000000E+00 0.  1.
         11    1    3    3    0    0  0.18990414768E+03 -0.21178509647E+03 -0.22368762529E+03  0.36187382622E+03  0.00000000000E+00 0. -1.
</event>
<event>
 7    1  0.6988825E-006  0.1461852E+03  0.7561462E-02  0.1205241E+00
          2   -1    0    0  501    0  0.00000000000E+00  0.00000000000E+00  0.26131870014E+03  0.26131870014E+03  0.00000000000E+00 0. -1.
         -2   -1    0    0    0  501 -0.00000000000E+00 -0.00000000000E+00 -0.11253546844E+03  0.11253546844E+03  0.00000000000E+00 0.  1.
         23    2    1    2    0    0  0.44491303236E+02  0.83850727208E+02 -0.25893285738E+02  0.13897142063E+03  0.98143634476E+02 0.  0.
          5    1    1    2  502    0  0.43237156247E+02 -0.16978404926E+02  0.52282747530E+02  0.70061944045E+02  0.41800000000E+01 0.  1.
         -5    1    1    2    0  502 -0.87728459484E+02 -0.66872322282E+02  0.12239376991E+03  0.16482080391E+03  0.41800000000E+01 0.  1.
        -11    1    3    3    0    0 -0.73855445089E+01  0.83133475806E+02 -0.24839834456E+02  0.87078920774E+02  0.00000000000E+00 0. -1.
         11    1    3    3    0    0  0.51876847745E+02  0.71725140133E+00 -0.10534512827E+01  0.51892499855E+02  0.00000000000E+00 0.  1.
</event>
<event>
 7    1  0.6988825E-006  0.2689933E+03  0.7561462E-02  0.1101857E+00
         -2   -1    0    0    0  501 -0.00000000000E+00  0.00000000000E+00  0.49111027202E+02  0.49111027202E+02  0.00000000000E+00 0.  1.
          2   -1    0    0  501    0  0.00000000000E+00 -0.00000000000E+00 -0.16697680962E+04  0.16697680962E+04  0.00000000000E+00 0. -1.
         23    2    1    2    0    0 -0.23168033227E+03  0.11931868635E+03 -0.66281634343E+03  0.71836996040E+03  0.93899784933E+02 0.  0.
          5    1    1    2  502    0  0.14747498941E+03 -0.68042690225E+02 -0.78360901397E+03  0.80027447752E+03  0.41800000000E+01 0.  1.
         -5    1    1    2    0  502  0.84205342866E+02 -0.51275996125E+02 -0.17423171162E+03  0.20023468550E+03  0.41800000000E+01 0.  1.
        -11    1    3    3    0    0 -0.86025067556E+02 -0.38180095800E+01 -0.19495926105E+03  0.21312907572E+03  0.00000000000E+00 0. -1.
         11    1    3    3    0    0 -0.14565526472E+03  0.12313669593E+03 -0.46785708238E+03  0.50524088468E+03  0.00000000000E+00 0.  1.
</event>
<event>
 7    1  0.6988825E-006  0.1125773E+03  0.7561462E-02  0.1255870E+00
         -1   -1    0    0    0  501 -0.00000000000E+00  0.00000000000E+00  0.22598465945E+02  0.22598465945E+02  0.00000000000E+00 0.  1.
          1   -1    0    0  501    0  0.00000000000E+00 -0.00000000000E+00 -0.13434586570E+04  0.13434586570E+04  0.00000000000E+00 0. -1.
         23    2    1    2    0    0  0.40971712552E+02 -0.56217409249E+02 -0.17479335539E+03  0.21108820223E+03  0.95741494145E+02 0.  0.
          5    1    1    2  502    0 -0.30513132668E+02 -0.33393620259E+02 -0.22877897350E+03  0.23324552784E+03  0.41800000000E+01 0. -1.
         -5    1    1    2    0  502 -0.10458579884E+02  0.89611029508E+02 -0.91728786220E+03  0.92172339291E+03  0.41800000000E+01 0. -1.
        -11    1    3    3    0    0  0.35144945620E+02 -0.23435299135E+01 -0.85634123416E+01  0.36249018828E+02  0.00000000000E+00 0.  1.
         11    1    3    3    0    0  0.58267669324E+01 -0.53873879335E+02 -0.16622994305E+03  0.17483918341E+03  0.00000000000E+00 0. -1.
</event>
<event>
 7    1  0.6988825E-006  0.1270135E+03  0.7561462E-02  0.1231956E+00
         -2   -1    0    0    0  501 -0.00000000000E+00  0.00000000000E+00  0.26368553006E+02  0.26368553006E+02  0.00000000000E+00 0.  1.
          2   -1    0    0  501    0  0.00000000000E+00 -0.00000000000E+00 -0.92670496385E+03  0.92670496385E+03  0.00000000000E+00 0. -1.
         23    2    1    2    0    0 -0.88327019947E+02 -0.65300266352E+02 -0.35219051970E+03  0.38020625487E+03  0.91939364974E+02 0.  0.
          5    1    1    2  502    0 -0.83034647632E+00  0.42807242102E+02 -0.36860265078E+03  0.37110448127E+03  0.41800000000E+01 0.  1.
         -5    1    1    2    0  502  0.89157366424E+02  0.22493024250E+02 -0.17954324036E+03  0.20176278073E+03  0.41800000000E+01 0.  1.
        -11    1    3    3    0    0 -0.38122315900E+02 -0.56245491756E+02 -0.88231888686E+02  0.11136306611E+03  0.00000000000E+00 0.  1.
         11    1    3    3    0    0 -0.50204704047E+02 -0.90547745957E+01 -0.26395863102E+03  0.26884318876E+03  0.00000000000E+00 0. -1.
</event>
<event>
 7    1  0.6988825E-006  0.1191421E+03  0.7561462E-02  0.1244519E+00
          2   -1    0    0  501    0  0.00000000000E+00  0.00000000000E+00  0.32061519184E+03  0.32061519184E+03  0.00000000000E+00 0. -1.
         -2   -1    0    0    0  501 -0.00000000000E+00 -0.00000000000E+00 -0.55002917515E+02  0.55002917515E+02  0.00000000000E+00 0.  1.
         23    2    1    2    0    0  0.11378669748E+02  0.68228071557E+02  0.73797332399E+02  0.13640072265E+03  0.91512660311E+02 0.  0.
          5    1    1    2  502    0  0.29116097966E+02  0.18590895831E+02  0.10223527318E+03  0.10799487049E+03  0.41800000000E+01 0.  1.
         -5    1    1    2    0  502 -0.40494767715E+02 -0.86818967387E+02  0.89579668747E+02  0.13122251622E+03  0.41800000000E+01 0.  1.
        -11    1    3    3    0    0 -0.34656660752E+02  0.16604575304E+02  0.50406236871E+02  0.63384420570E+02  0.00000000000E+00 0. -1.
         11    1    3    3    0    0  0.46035330501E+02  0.51623496253E+02  0.23391095528E+02  0.73016302081E+02  0.00000000000E+00 0.  1.
</event>
<event>
 7    1  0.6988825E-006  0.1338432E+03  0.7561462E-02  0.1221862E+00
         -2   -1    0    0    0  501 -0.00000000000E+00  0.00000000000E+00  0.22098582286E+03  0.22098582286E+03  0.00000000000E+00 0.  1.
          2   -1    0    0  501    0  0.00000000000E+00 -0.00000000000E+00 -0.12690384743E+03  0.12690384743E+03  0.00000000000E+00 0. -1.
         23    2    1    2    0    0  0.12136656675E+03 -0.24011603088E+02  0.15335988183E+02  0.15513136669E+03  0.92326311471E+02 0.  0.
          5    1    1    2  502    0 -0.22212737475E+02 -0.21127488342E+02  0.77802973356E+02  0.83729036378E+02  0.41800000000E+01 0. -1.
         -5    1    1    2    0  502 -0.99153829279E+02  0.45139091430E+02  0.94301388678E+00  0.10902926722E+03  0.41800000000E+01 0. -1.
        -11    1    3    3    0    0  0.10035903212E+03 -0.31861750292E+02  0.47830130738E+02  0.11564959086E+03  0.00000000000E+00 0.  1.
         11    1    3    3    0    0  0.21007534633E+02  0.78501472042E+01 -0.32494142554E+02  0.39481775832E+02  0.00000000000E+00 0. -1.
</event>
<event>
 7    1  0.6988825E-006  0.1765459E+03  0.7561462E-02  0.1171188E+00
          1   -1    0    0  501    0  0.00000000000E+00  0.00000000000E+00  0.14773621375E+03  0.14773621375E+03  0.00000000000E+00 0. -1.
         -1   -1    0    0    0  501 -0.00000000000E+00 -0.00000000000E+00 -0.26070072739E+03  0.26070072739E+03  0.00000000000E+00 0.  1.
         23    2    1    2    0    0 -0.95883895657E+02 -0.12956336504E+03 -0.81826668139E+02  0.20204514235E+03  0.90256572733E+02 0.  0.
          5    1    1    2  502    0 -0.38544024615E+01  0.31172663693E+02 -0.55709224972E+02  0.64090416811E+02  0.41800000000E+01 0.  1.
         -5    1    1    2    0  502  0.99738298118E+02  0.98390701352E+02  0.24571379466E+02  0.14230138198E+03  0.41800000000E+01 0.  1.
        -11    1    3    3    0    0 -0.54066399529E+02 -0.12849874117E+03 -0.45513398075E+02  0.14665118971E+03  0.00000000000E+00 0.  1.
         11    1    3    3    0    0 -0.41817496128E+02 -0.10646238772E+01 -0.36313270064E+02  0.55393952640E+02  0.00000000000E+00 0. -1.
</event>
<event>
 7    1  0.6988825E-006  0.1342011E+03  0.7561462E-02  0.1221352E+00
          3   -1    0    0  501    0  0.00000000000E+00  0.00000000000E+00  0.37484775116E+02  0.37484775116E+02  0.00000000000E+00 0. -1.
         -3   -1    0    0    0  501 -0.00000000000E+00 -0.00000000000E+00 -0.67937778754E+03  0.67937778754E+03  0.00000000000E+00 0.  1.
         23    2    1    2    0    0 -0.24149870330E+02 -0.83354317843E+02 -0.47046739981E+03  0.48759188321E+03  0.94207811478E+02 0.  0.
          5    1    1    2  502    0  0.65013951076E+02  0.81898139211E+02 -0.89869936905E+02  0.13794273087E+03  0.41800000000E+01 0. -1.
         -5    1    1    2    0  502 -0.40864080746E+02  0.14561786315E+01 -0.81555675711E+02  0.91327948582E+02  0.41800000000E+01 0. -1.
        -11    1    3    3    0    0 -0.56865155278E+02 -0.58317697212E+02 -0.23930748735E+03  0.25278978064E+03  0.00000000000E+00 0. -1.
         11    1    3    3    0    0  0.32715284948E+02 -0.25036620631E+02 -0.23115991246E+03  0.23480210257E+03  0.00000000000E+00 0.  1.
</event>
<event>
 7    1  0.6988825E-006  0.1212069E+03  0.7561462E-02  0.1241119E+00
          1   -1    0    0  501    0  0.00000000000E+00  0.00000000000E+00  0.96474648419E+03  0.96474648419E+03  0.00000000000E+00 0.  1.
         -1   -1    0    0    0  501 -0.00000000000E+00 -0.00000000000E+00 -0.21454901398E+02  0.21454901398E+02  0.00000000000E+00 0. -1.
         23    2    1    2    0    0  0.11163388272E+02  0.72156594938E+02  0.22307796242E+03  0.25156803894E+03  0.90506936011E+02 0.  0.
          5    1    1    2  502    0 -0.56856504010E+02 -0.62227479440E+02  0.29495211498E+03  0.30678843489E+03  0.41800000000E+01 0.  1.
         -5    1    1    2    0  502  0.45693115737E+02 -0.99291154974E+01  0.42526150539E+03  0.42784491177E+03  0.41800000000E+01 0.  1.
        -11    1    3    3    0    0 -0.36399072662E+02  0.37210948619E+02  0.14233023595E+03  0.15155013446E+03  0.00000000000E+00 0.  1.
         11    1    3    3    0    0  0.47562460934E+02  0.34945646318E+02  0.80747726469E+02  0.10001790448E+03  0.00000000000E+00 0. -1.
</event>
<event>
 7    1  0.6988825E-006  0.1264943E+03  0.7561462E-02  0.1232752E+00
          2   -1    0    0  501    0  0.00000000000E+00  0.00000000000E+00  0.41949836874E+03  0.41949836874E+03  0.00000000000E+00 0. -1.
         -2   -1    0    0    0  501 -0.00000000000E+00 -0.00000000000E+00 -0.17023699258E+03  0.17023699258E+03  0.00000000000E+00 0.  1.
         23    2    1    2    0    0  0.57347652853E+02 -0.38728281203E+02 -0.67645856030E+02  0.13428579192E+03  0.93102518883E+02 0.  0.
          5    1    1    2  502    0  0.47703124298E+02  0.13606025243E+02  0.34107354365E+03  0.34468731710E+03  0.41800000000E+01 0. -1.
         -5    1    1    2    0  502 -0.10505077715E+03  0.25122255960E+02 -0.24166311454E+02  0.11076225230E+03  0.41800000000E+01 0.  1.
        -11    1    3    3    0    0  0.42188633926E+02 -0.57290169985E+02 -0.80217174273E+02  0.10722331583E+03  0.00000000000E+00 0.  1.
         11    1    3    3    0    0  0.15159018927E+02  0.18561888782E+02  0.12571318243E+02  0.27062476094E+02  0.00000000000E+00 0. -1.
</event>
<event>
 7    1  0.6988825E-006  0.7912204E+02  0.7561462E-02  0.1331562E+00
          2   -1    0    0  501    0  0.00000000000E+00  0.00000000000E+00  0.20532227229E+03  0.20532227229E+03  0.00000000000E+00 0. -1.
         -2   -1    0    0    0  501 -0.00000000000E+00 -0.00000000000E+00 -0.64796513332E+02  0.64796513332E+02  0.00000000000E+00 0.  1.
         23    2    1    2    0    0 -0.14590952283E+02  0.21286578679E+02  0.24162471559E+02  0.97336125789E+02  0.90688930038E+02 0.  0.
          5    1    1    2  502    0  0.29318261095E+02  0.12600520005E+02  0.12942811738E+03  0.13336957489E+03  0.41800000000E+01 0.  1.
         -5    1    1    2    0  502 -0.14727308812E+02 -0.33887098684E+02 -0.13064829982E+02  0.39413084941E+02  0.41800000000E+01 0.  1.
        -11    1    3    3    0    0 -0.13141151490E+02 -0.32506798490E+02 -0.61126665011E+01  0.35591382416E+02  0.00000000000E+00 0.  1.
         11    1    3    3    0    0 -0.14498007926E+01  0.53793377169E+02  0.30275138061E+02  0.61744743373E+02  0.00000000000E+00 0. -1.
</event>
<event>
 7    1  0.6988825E-006  0.1568447E+03  0.7561462E-02  0.1192306E+00
         -1   -1    0    0    0  501 -0.00000000000E+00  0.00000000000E+00  0.39469948085E+03  0.39469948085E+03  0.00000000000E+00 0.  1.
          1   -1    0    0  501    0  0.00000000000E+00 -0.00000000000E+00 -0.83372155227E+02  0.83372155227E+02  0.00000000000E+00 0. -1.
         23    2    1    2    0    0  0.12450242036E+03 -0.27946455740E+02  0.25621632237E+03  0.30080620008E+03  0.92497076147E+02 0.  0.
          5    1    1    2  502    0 -0.13274082427E+03  0.36165999183E+01  0.21227526474E+02  0.13454102164E+03  0.41800000000E+01 0. -1.
         -5    1    1    2    0  502  0.82384039146E+01  0.24329855822E+02  0.33883476785E+02  0.42724414360E+02  0.41800000000E+01 0.  1.
        -11    1    3    3    0    0  0.10827299028E+03 -0.56377586120E+02  0.22265364767E+03  0.25392148286E+03  0.00000000000E+00 0.  1.
         11    1    3    3    0    0  0.16229430083E+02  0.28431130380E+02  0.33562674699E+02  0.46884717216E+02  0.00000000000E+00 0. -1.
</event>
<event>
 7    1  0.1077221E-005  0.8114791E+02  0.7561462E-02  0.1325825E+00
         -3   -1    0    0    0  501 -0.00000000000E+00  0.00000000000E+00  0.78280342858E+03  0.78280342858E+03  0.00000000000E+00 0.  1.
          3   -1    0    0  501    0  0.00000000000E+00 -0.00000000000E+00 -0.15181784570E+02  0.15181784570E+02  0.00000000000E+00 0. -1.
         23    2    1    2    0    0 -0.95751586442E+01 -0.13080325648E+02  0.39467762216E+03  0.40428805154E+03  0.86114020939E+02 0.  0.
          5    1    1    2  502    0 -0.32944322413E+02  0.14987312319E+01  0.21752425302E+02  0.39726753971E+02  0.41800000000E+01 0. -1.
         -5    1    1    2    0  502  0.42519481057E+02  0.11581594416E+02  0.35119159655E+03  0.35397040764E+03  0.41800000000E+01 0. -1.
        -11    1    3    3    0    0 -0.46292904142E+02 -0.16151906671E+01  0.26529066494E+03  0.26930424935E+03  0.00000000000E+00 0.  1.
         11    1    3    3    0    0  0.36717745498E+02 -0.11465134980E+02  0.12938695722E+03  0.13498380219E+03  0.00000000000E+00 0. -1.
</event>
<event>
 7    1  0.6988825E-006  0.2410423E+03  0.7561462E-02  0.1119100E+00
          1   -1    0    0  501    0  0.00000000000E+00  0.00000000000E+00  0.42751876454E+03  0.42751876454E+03  0.00000000000E+00 0. -1.
         -1   -1    0    0    0  501 -0.00000000000E+00 -0.00000000000E+00 -0.18838717113E+03  0.18838717113E+03  0.00000000000E+00 0.  1.
         23    2    1    2    0    0  0.14440763533E+01 -0.95519086921E+02 -0.15475203368E+02  0.13234315994E+03  0.90273189485E+02 0.  0.
          5    1    1    2  502    0  0.15346976634E+03  0.11953393948E+03  0.12332427078E+02  0.19496382492E+03  0.41800000000E+01 0. -1.
         -5    1    1    2    0  502 -0.15491384269E+03 -0.24014852564E+02  0.24227436970E+03  0.28859895082E+03  0.41800000000E+01 0.  1.
        -11    1    3    3    0    0  0.31692213686E+02 -0.95311588704E+02 -0.17790353816E+02  0.10200584316E+03  0.00000000000E+00 0. -1.
         11    1    3    3    0    0 -0.30248137333E+02 -0.20749821675E+00  0.23151504481E+01  0.30337316777E+02  0.00000000000E+00 0.  1.
</event>
<event>
 7    1  0.6988825E-006  0.1054363E+03  0.7561462E-02  0.1269262E+00
          1   -1    0    0  501    0  0.00000000000E+00  0.00000000000E+00  0.12810120750E+04  0.12810120750E+04  0.00000000000E+00 0. -1.
         -1   -1    0    0    0  501 -0.00000000000E+00 -0.00000000000E+00 -0.12806064129E+02  0.12806064129E+02  0.00000000000E+00 0.  1.
         23    2    1    2    0    0 -0.26690964467E+02  0.17933472950E+02  0.32374011110E+03  0.34056129484E+03  0.10069915078E+03 0.  0.
          5    1    1    2  502    0  0.73529722752E+02  0.88100090820E-01  0.68508827616E+03  0.68903559154E+03  0.41800000000E+01 0. -1.
         -5    1    1    2    0  502 -0.46838758285E+02 -0.18021573040E+02  0.25937762363E+03  0.26422125276E+03  0.41800000000E+01 0. -1.
        -11    1    3    3    0    0  0.27717001058E+02 -0.43752216325E+01  0.30340982619E+02  0.41327350971E+02  0.00000000000E+00 0.  1.
         11    1    3    3    0    0 -0.54407965526E+02  0.22308694582E+02  0.29339912848E+03  0.29923394386E+03  0.00000000000E+00 0. -1.
</event>
<event>
 7    1  0.6988825E-006  0.1242395E+03  0.7561462E-02  0.1236263E+00
         -2   -1    0    0    0  501 -0.00000000000E+00  0.00000000000E+00  0.13176546451E+03  0.13176546451E+03  0.00000000000E+00 0. -1.
          2   -1    0    0  501    0  0.00000000000E+00 -0.00000000000E+00 -0.14130113600E+03  0.14130113600E+03  0.00000000000E+00 0.  1.
         23    2    1    2    0    0  0.42447270700E+02  0.50456541795E+02  0.42910524893E+02  0.12225093182E+03  0.93575337485E+02 0.  0.
          5    1    1    2  502    0  0.42276035230E+02 -0.26075163280E+02 -0.36879742324E+01  0.49982505428E+02  0.41800000000E+01 0. -1.
         -5    1    1    2    0  502 -0.84723305930E+02 -0.24381378515E+02 -0.48758222147E+02  0.10083316326E+03  0.41800000000E+01 0. -1.
        -11    1    3    3    0    0  0.59475376731E+02  0.25509407871E+01  0.39192391792E+02  0.71273215941E+02  0.00000000000E+00 0. -1.
         11    1    3    3    0    0 -0.17028106031E+02  0.47905601008E+02  0.37181331015E+01  0.50977715883E+02  0.00000000000E+00 0.  1.
</event>
<event>
 7    1  0.6988825E-006  0.1229485E+03  0.7561462E-02  0.1238311E+00
         -1   -1    0    0    0  501 -0.00000000000E+00  0.00000000000E+00  0.21076597585E+02  0.21076597585E+02  0.00000000000E+00 0.  1.
          1   -1    0    0  501    0  0.00000000000E+00 -0.00000000000E+00 -0.82945094475E+03  0.82945094475E+03  0.00000000000E+00 0. -1.
         23    2    1    2    0    0  0.59493991707E+02  0.43597440218E+02 -0.31539194932E+03  0.33660122014E+03  0.91586177236E+02 0.  0.
          5    1    1    2  502    0 -0.12381413685E+02  0.35192450590E+02 -0.56223805072E+02  0.67604708713E+02  0.41800000000E+01 0. -1.
         -5    1    1    2    0  502 -0.47112578022E+02 -0.78789890808E+02 -0.43675859277E+03  0.44632161348E+03  0.41800000000E+01 0. -1.
        -11    1    3    3    0    0  0.45183551107E+02  0.71800534503E+02 -0.24914992072E+03  0.26319679527E+03  0.00000000000E+00 0. -1.
         11    1    3    3    0    0  0.14310440599E+02 -0.28203094285E+02 -0.66242028603E+02  0.73404424872E+02  0.00000000000E+00 0.  1.
</event>
<event>
 7    1  0.6988825E-006  0.1195305E+03  0.7561462E-02  0.1243874E+00
          1   -1    0    0  501    0  0.00000000000E+00  0.00000000000E+00  0.16187224188E+03  0.16187224188E+03  0.00000000000E+00 0. -1.
         -1   -1    0    0    0  501 -0.00000000000E+00 -0.00000000000E+00 -0.15036627257E+03  0.15036627257E+03  0.00000000000E+00 0.  1.
         23    2    1    2    0    0  0.43114783790E+02  0.90364960430E+02 -0.42553483692E+02  0.14313901912E+03  0.93022949677E+02 0.  0.
          5    1    1    2  502    0 -0.14149435231E+02 -0.87368947943E+02  0.87522342414E+02  0.12454385735E+03  0.41800000000E+01 0.  1.
         -5    1    1    2    0  502 -0.28965348559E+02 -0.29960124866E+01 -0.33462889411E+02  0.44555637979E+02  0.41800000000E+01 0.  1.
        -11    1    3    3    0    0 -0.11168849785E+02  0.55291054118E+02  0.13032882407E+02  0.57893867507E+02  0.00000000000E+00 0. -1.
         11    1    3    3    0    0  0.54283633575E+02  0.35073906311E+02 -0.55586366100E+02  0.85245151617E+02  0.00000000000E+00 0.  1.
</event>
<event>
 7    1  0.6988825E-006  0.1753675E+03  0.7561462E-02  0.1172363E+00
         -2   -1    0    0    0  501 -0.00000000000E+00  0.00000000000E+00  0.12566931139E+03  0.12566931139E+03  0.00000000000E+00 0.  1.
          2   -1    0    0  501    0  0.00000000000E+00 -0.00000000000E+00 -0.33289425244E+03  0.33289425244E+03  0.00000000000E+00 0. -1.
         23    2    1    2    0    0 -0.16054542224E+03  0.31567810750E+02 -0.35432931197E+02  0.19035851316E+03  0.90606355405E+02 0.  0.
          5    1    1    2  502    0  0.46595906106E+02  0.29715178736E+02 -0.11334852586E+03  0.12617262392E+03  0.41800000000E+01 0. -1.
         -5    1    1    2    0  502  0.11394951613E+03 -0.61282989485E+02 -0.58443484000E+02  0.14203242675E+03  0.41800000000E+01 0. -1.
        -11    1    3    3    0    0 -0.51633809373E+02 -0.26485367588E+01  0.28990642180E+02  0.59274972386E+02  0.00000000000E+00 0.  1.
         11    1    3    3    0    0 -0.10891161287E+03  0.34216347509E+02 -0.64423573377E+02  0.13108354077E+03  0.00000000000E+00 0. -1.
</event>
<event>
 7    1  0.6988825E-006  0.1221325E+03  0.7561462E-02  0.1239620E+00
          3   -1    0    0  501    0  0.00000000000E+00  0.00000000000E+00  0.32695369779E+03  0.32695369779E+03  0.00000000000E+00 0. -1.
         -3   -1    0    0    0  501 -0.00000000000E+00 -0.00000000000E+00 -0.68784945529E+02  0.68784945529E+02  0.00000000000E+00 0.  1.
         23    2    1    2    0    0  0.23193256901E+02 -0.78511355107E+02  0.38055533956E+02  0.12965762971E+03  0.93064049078E+02 0.  0.
          5    1    1    2  502    0 -0.23810448023E+02 -0.29963532381E+02  0.80470481951E+02  0.89206062424E+02  0.41800000000E+01 0. -1.
         -5    1    1    2    0  502  0.61719112135E+00  0.10847488749E+03  0.13964273635E+03  0.17687495118E+03  0.41800000000E+01 0. -1.
        -11    1    3    3    0    0  0.39737768581E+02 -0.63265520623E+02 -0.11164243767E+02  0.75539768933E+02  0.00000000000E+00 0.  1.
         11    1    3    3    0    0 -0.16544511680E+02 -0.15245834483E+02  0.49219777723E+02  0.54117860776E+02  0.00000000000E+00 0. -1.
</event>
<event>
 7    1  0.6988825E-006  0.1575813E+03  0.7561462E-02  0.1191455E+00
         -3   -1    0    0    0  501 -0.00000000000E+00  0.00000000000E+00  0.14916802430E+03  0.14916802430E+03  0.00000000000E+00 0.  1.
          3   -1    0    0  501    0  0.00000000000E+00 -0.00000000000E+00 -0.22566179818E+03  0.22566179818E+03  0.00000000000E+00 0. -1.
         23    2    1    2    0    0  0.11125513225E+02 -0.12027457627E+03  0.50544305788E+02  0.15947959010E+03  0.91045384674E+02 0.  0.
          5    1    1    2  502    0  0.30086067718E+02  0.12780756277E+03 -0.89643672949E+02  0.15903900487E+03  0.41800000000E+01 0.  1.
         -5    1    1    2    0  502 -0.41211580944E+02 -0.75329865005E+01 -0.37394406715E+02  0.56311227505E+02  0.41800000000E+01 0.  1.
        -11    1    3    3    0    0  0.42987999778E+02 -0.66376943538E+02  0.10934729812E+00  0.79081468848E+02  0.00000000000E+00 0. -1.
         11    1    3    3    0    0 -0.31862486552E+02 -0.53897632729E+02  0.50434958489E+02  0.80398121253E+02  0.00000000000E+00 0.  1.
</event>
<event>
 7    1  0.6988825E-006  0.1251869E+03  0.7561462E-02  0.1234777E+00
         -1   -1    0    0    0  501 -0.00000000000E+00  0.00000000000E+00  0.14710425114E+02  0.14710425114E+02  0.00000000000E+00 0.  1.
          1   -1    0    0  501    0  0.00000000000E+00 -0.00000000000E+00 -0.18519317524E+04  0.18519317524E+04  0.00000000000E+00 0. -1.
         23    2    1    2    0    0 -0.40768183022E+02 -0.25726400271E+02 -0.23928826946E+03  0.26084755181E+03  0.91971065925E+02 0.  0.
          5    1    1    2  502    0  0.20809347489E+02  0.83295417198E+02 -0.61655800132E+03  0.62252100114E+03  0.41800000000E+01 0. -1.
         -5    1    1    2    0  502  0.19958835534E+02 -0.57569016927E+02 -0.98137505652E+03  0.98327362458E+03  0.41800000000E+01 0.  1.
        -11    1    3    3    0    0 -0.61892493699E+02  0.91526716963E+01 -0.15708147863E+03  0.16908294741E+03  0.00000000000E+00 0. -1.
         11    1    3    3    0    0  0.21124310677E+02 -0.34879071967E+02 -0.82206790827E+02  0.91764604402E+02  0.00000000000E+00 0.  1.
</event>
<event>
 7    1  0.6988825E-006  0.1243731E+03  0.7561462E-02  0.1236052E+00
          1   -1    0    0  501    0  0.00000000000E+00  0.00000000000E+00  0.15182152570E+03  0.15182152570E+03  0.00000000000E+00 0. -1.
         -1   -1    0    0    0  501 -0.00000000000E+00 -0.00000000000E+00 -0.19811235027E+03  0.19811235027E+03  0.00000000000E+00 0.  1.
         23    2    1    2    0    0  0.10294849102E+03  0.51127493323E+02 -0.97338650103E+02  0.17254778232E+03  0.84175483377E+02 0.  0.
          5    1    1    2  502    0 -0.38113151756E+02 -0.52663708157E+02 -0.31473207630E+02  0.72347174735E+02  0.41800000000E+01 0.  1.
         -5    1    1    2    0  502 -0.64835339263E+02  0.15362148337E+01  0.82521033168E+02  0.10503891892E+03  0.41800000000E+01 0.  1.
        -11    1    3    3    0    0  0.44291501873E+02  0.61867005815E+01 -0.87149939823E+02  0.97954705928E+02  0.00000000000E+00 0.  1.
         11    1    3    3    0    0  0.58656989146E+02  0.44940792742E+02 -0.10188710280E+02  0.74593076389E+02  0.00000000000E+00 0. -1.
</event>
<event>
 7    1  0.6988825E-006  0.1068360E+03  0.7561462E-02  0.1266544E+00
         -1   -1    0    0    0  501 -0.00000000000E+00  0.00000000000E+00  0.59012586731E+02  0.59012586731E+02  0.00000000000E+00 0.  1.
          1   -1    0    0  501    0  0.00000000000E+00 -0.00000000000E+00 -0.33749767410E+03  0.33749767410E+03  0.00000000000E+00 0. -1.
         23    2    1    2    0    0 -0.48211118489E+02  0.65799323564E+02 -0.13029251832E+03  0.18612931637E+03  0.10494817366E+03 0.  0.
          5    1    1    2  502    0  0.54612489981E+02 -0.89559770594E+02 -0.64883778469E+02  0.12341334482E+03  0.41800000000E+01 0. -1.
         -5    1    1    2    0  502 -0.64013714925E+01  0.23760447030E+02 -0.83308790580E+02  0.86967599644E+02  0.41800000000E+01 0. -1.
        -11    1    3    3    0    0 -0.30388268943E+02  0.25512382997E+02 -0.13603495439E+03  0.14170334291E+03  0.00000000000E+00 0. -1.
         11    1    3    3    0    0 -0.17822849546E+02  0.40286940567E+02  0.57424360664E+01  0.44425973463E+02  0.00000000000E+00 0.  1.
</event>
<event>
 7    1  0.6988825E-006  0.1438102E+03  0.7561462E-02  0.1208292E+00
         -2   -1    0    0    0  501 -0.00000000000E+00  0.00000000000E+00  0.23033030084E+02  0.23033030084E+02  0.00000000000E+00 0.  1.
          2   -1    0    0  501    0  0.00000000000E+00 -0.00000000000E+00 -0.11914105380E+04  0.11914105380E+04  0.00000000000E+00 0. -1.
         23    2    1    2    0    0 -0.98999238524E+02 -0.50274377882E+02 -0.34242317033E+03  0.37172552768E+03  0.92724743468E+02 0.  0.
          5    1    1    2  502    0  0.74699726067E+02 -0.12602357690E+02 -0.21406519947E+03  0.22711285855E+03  0.41800000000E+01 0. -1.
         -5    1    1    2    0  502  0.24299512457E+02  0.62876735572E+02 -0.61188913809E+03  0.61560518183E+03  0.41800000000E+01 0. -1.
        -11    1    3    3    0    0 -0.96273107518E+02 -0.73314601064E+02 -0.27585199526E+03  0.30122726512E+03  0.00000000000E+00 0. -1.
         11    1    3    3    0    0 -0.27261310064E+01  0.23040223182E+02 -0.66571175068E+02  0.70498262563E+02  0.00000000000E+00 0.  1.
</event>
<event>
 7    1  0.6988825E-006  0.9895753E+02  0.7561462E-02  0.1282504E+00
          2   -1    0    0  501    0  0.00000000000E+00  0.00000000000E+00  0.32065964774E+03  0.32065964774E+03  0.00000000000E+00 0. -1.
         -2   -1    0    0    0  501 -0.00000000000E+00 -0.00000000000E+00 -0.70419283348E+02  0.70419283348E+02  0.00000000000E+00 0.  1.
         23    2    1    2    0    0 -0.43277334809E+02 -0.73047780752E+02  0.41535315353E+02  0.13336968818E+03  0.94092429674E+02 0.  0.
          5    1    1    2  502    0  0.34559197185E+01  0.21636237965E+02 -0.13549629938E+02  0.26098564057E+02  0.41800000000E+01 0.  1.
         -5    1    1    2    0  502  0.39821415090E+02  0.51411542787E+02  0.22225467898E+03  0.23161067886E+03  0.41800000000E+01 0.  1.
        -11    1    3    3    0    0 -0.63057737330E+02 -0.55525368934E+02 -0.14309153689E+00  0.84020029205E+02  0.00000000000E+00 0.  1.
         11    1    3    3    0    0  0.19780402521E+02 -0.17522411819E+02  0.41678406890E+02  0.49349658972E+02  0.00000000000E+00 0. -1.
</event>
<event>
 7    1  0.6988825E-006  0.1129437E+03  0.7561462E-02  0.1255214E+00
          3   -1    0    0  501    0  0.00000000000E+00  0.00000000000E+00  0.65887035326E+03  0.65887035326E+03  0.00000000000E+00 0. -1.
         -3   -1    0    0    0  501 -0.00000000000E+00 -0.00000000000E+00 -0.30645693281E+02  0.30645693281E+02  0.00000000000E+00 0.  1.
         23    2    1    2    0    0  0.39593367525E+02  0.55692606778E+02  0.13672865293E+03  0.17776951665E+03  0.90763292777E+02 0.  0.
          5    1    1    2  502    0  0.42792594687E+02 -0.24154813436E+00  0.13815238045E+03  0.14468869040E+03  0.41800000000E+01 0.  1.
         -5    1    1    2    0  502 -0.82385962213E+02 -0.55451058644E+02  0.35334362660E+03  0.36705783949E+03  0.41800000000E+01 0.  1.
        -11    1    3    3    0    0  0.46324775566E+02  0.26154294594E+02  0.13753316824E+03  0.14746323041E+03  0.00000000000E+00 0. -1.
         11    1    3    3    0    0 -0.67314080410E+01  0.29538312184E+02 -0.80451530636E+00  0.30306286241E+02  0.00000000000E+00 0.  1.
</event>
<event>
 7    1  0.6988825E-006  0.6037005E+02  0.7561462E-02  0.1396285E+00
         -1   -1    0    0    0  501 -0.00000000000E+00  0.00000000000E+00  0.33898661654E+03  0.33898661654E+03  0.00000000000E+00 0.  1.
          1   -1    0    0  501    0  0.00000000000E+00 -0.00000000000E+00 -0.40102774105E+02  0.40102774105E+02  0.00000000000E+00 0. -1.
         23    2    1    2    0    0  0.25754882262E+02 -0.35976541662E+02  0.13518630100E+03  0.16837352494E+03  0.90092632396E+02 0.  0.
          5    1    1    2  502    0 -0.18457254630E+02  0.28832728445E+02 -0.10591108209E+02  0.36078254547E+02  0.41800000000E+01 0.  1.
         -5    1    1    2    0  502 -0.72976276327E+01  0.71438132168E+01  0.17428864964E+03  0.17463761115E+03  0.41800000000E+01 0.  1.
        -11    1    3    3    0    0  0.39120167351E+02 -0.44588613686E+02  0.13976190367E+03  0.15182859309E+03  0.00000000000E+00 0.  1.
         11    1    3    3    0    0 -0.13365285089E+02  0.86120720241E+01 -0.45756026660E+01  0.16544931847E+02  0.00000000000E+00 0. -1.
</event>
<event>
 7    1  0.6988825E-006  0.1380032E+03  0.7561462E-02  0.1216041E+00
         -1   -1    0    0    0  501 -0.00000000000E+00  0.00000000000E+00  0.10128931896E+03  0.10128931896E+03  0.00000000000E+00 0.  1.
          1   -1    0    0  501    0  0.00000000000E+00 -0.00000000000E+00 -0.26121032370E+03  0.26121032370E+03  0.00000000000E+00 0. -1.
         23    2    1    2    0    0 -0.11723138232E+03  0.32785124145E+02 -0.88781255203E+02  0.17401270245E+03  0.87064619527E+02 0.  0.
          5    1    1    2  502    0  0.45966859342E+02  0.11070952694E+02  0.30763986884E+02  0.56563357753E+02  0.41800000000E+01 0. -1.
         -5    1    1    2    0  502  0.71264522976E+02 -0.43856076839E+02 -0.10190373643E+03  0.13192358246E+03  0.41800000000E+01 0. -1.
        -11    1    3    3    0    0 -0.62274003265E+02 -0.23060423972E+02 -0.18948131502E+02  0.69056978821E+02  0.00000000000E+00 0.  1.
         11    1    3    3    0    0 -0.54957379052E+02  0.55845548117E+02 -0.69833123701E+02  0.10495572363E+03  0.00000000000E+00 0. -1.
</event>
<event>
 7    1  0.6988825E-006  0.1492476E+03  0.7561462E-02  0.1201401E+00
          1   -1    0    0  501    0  0.00000000000E+00  0.00000000000E+00  0.18846981322E+02  0.18846981322E+02  0.00000000000E+00 0. -1.
         -1   -1    0    0    0  501 -0.00000000000E+00 -0.00000000000E+00 -0.12520955517E+04  0.12520955517E+04  0.00000000000E+00 0.  1.
         23    2    1    2    0    0 -0.10265522223E+03  0.34104236367E+02 -0.57289187755E+03  0.59019543098E+03  0.91784256797E+02 0.  0.
          5    1    1    2  502    0  0.10095116235E+03  0.19920625330E+02 -0.52370493605E+03  0.53373429807E+03  0.41800000000E+01 0.  1.
         -5    1    1    2    0  502  0.17040598861E+01 -0.54024861697E+02 -0.13665175678E+03  0.14701280397E+03  0.41800000000E+01 0.  1.
        -11    1    3    3    0    0 -0.98891508194E+02 -0.78259277098E+01 -0.37719665236E+03  0.39002319174E+03  0.00000000000E+00 0. -1.
         11    1    3    3    0    0 -0.37637140390E+01  0.41930164077E+02 -0.19569522519E+03  0.20017223925E+03  0.00000000000E+00 0.  1.
</event>
<event>
 7    1  0.6988825E-006  0.1291898E+03  0.7561462E-02  0.1228663E+00
         -1   -1    0    0    0  501 -0.00000000000E+00  0.00000000000E+00  0.49714338783E+02  0.49714338783E+02  0.00000000000E+00 0.  1.
          1   -1    0    0  501    0  0.00000000000E+00 -0.00000000000E+00 -0.52898400356E+03  0.52898400356E+03  0.00000000000E+00 0. -1.
         23    2    1    2    0    0 -0.10068690406E+03  0.14539564184E+02 -0.10725371521E+03  0.17324526918E+03  0.90339981693E+02 0.  0.
          5    1    1    2  502    0  0.33305598495E+02 -0.64249222118E+02 -0.22282355337E+03  0.23431823184E+03  0.41800000000E+01 0.  1.
         -5    1    1    2    0  502  0.67381305566E+02  0.49709657934E+02 -0.14919239619E+03  0.17113484132E+03  0.41800000000E+01 0.  1.
        -11    1    3    3    0    0 -0.82766089204E+02  0.15055803203E+02 -0.23149426048E+02  0.87251353333E+02  0.00000000000E+00 0.  1.
         11    1    3    3    0    0 -0.17920814857E+02 -0.51623901805E+00 -0.84104289161E+02  0.85993915850E+02  0.00000000000E+00 0. -1.
</event>
<event>
 7    1  0.6988825E-006  0.8017756E+02  0.7561462E-02  0.1328548E+00
         -1   -1    0    0    0  501 -0.00000000000E+00  0.00000000000E+00  0.93927030038E+02  0.93927030038E+02  0.00000000000E+00 0.  1.
          1   -1    0    0  501    0  0.00000000000E+00 -0.00000000000E+00 -0.18417761213E+03  0.18417761213E+03  0.00000000000E+00 0. -1.
         23    2    1    2    0    0  0.53751372995E+02  0.22120569895E+02  0.96228900604E+01  0.10780861922E+03  0.90286037972E+02 0.  0.
          5    1    1    2  502    0 -0.62154384590E+02 -0.36809913192E+02 -0.35891298805E+01  0.72446473250E+02  0.41800000000E+01 0.  1.
         -5    1    1    2    0  502  0.84030115952E+01  0.14689343297E+02 -0.96284342267E+02  0.97849549699E+02  0.41800000000E+01 0.  1.
        -11    1    3    3    0    0  0.50372853516E+01 -0.10700526390E+02  0.39977239655E+02  0.41689989196E+02  0.00000000000E+00 0.  1.
         11    1    3    3    0    0  0.48714087644E+02  0.32821096285E+02 -0.30354349595E+02  0.66118630019E+02  0.00000000000E+00 0. -1.
</event>
<event>
 7    1  0.6988825E-006  0.1843093E+03  0.7561462E-02  0.1163696E+00
          2   -1    0    0  501    0  0.00000000000E+00  0.00000000000E+00  0.75493460770E+03  0.75493460770E+03  0.00000000000E+00 0. -1.
         -2   -1    0    0    0  501 -0.00000000000E+00 -0.00000000000E+00 -0.51741208041E+02  0.51741208041E+02  0.00000000000E+00 0.  1.
         23    2    1    2    0    0 -0.16389392389E+03 -0.10779570136E+02  0.35242213077E+03  0.39965660273E+03  0.92447955246E+02 0.  0.
          5    1    1    2  502    0  0.38912454666E+02  0.58572913295E+02  0.14986246341E+03  0.16559346497E+03  0.41800000000E+01 0.  1.
         -5    1    1    2    0  502  0.12498146922E+03 -0.47793343159E+02  0.20090880548E+03  0.24142574804E+03  0.41800000000E+01 0.  1.
        -11    1    3    3    0    0 -0.81567519333E+02 -0.74514982693E+01  0.27372990875E+03  0.28572162673E+03  0.00000000000E+00 0. -1.
         11    1    3    3    0    0 -0.82326404557E+02 -0.33280718669E+01  0.78692222015E+02  0.11393497600E+03  0.00000000000E+00 0.  1.
</event>
<event>
 7    1  0.6988825E-006  0.9563151E+02  0.7561462E-02  0.1289760E+00
          1   -1    0    0  501    0  0.00000000000E+00  0.00000000000E+00  0.96011147720E+02  0.96011147720E+02  0.00000000000E+00 0. -1.
         -1   -1    0    0    0  501 -0.00000000000E+00 -0.00000000000E+00 -0.15005194261E+03  0.15005194261E+03  0.00000000000E+00 0.  1.
         23    2    1    2    0    0 -0.36956487197E+02  0.41324859377E+02 -0.23194613493E+02  0.10580250833E+03  0.87078440066E+02 0.  0.
          5    1    1    2  502    0  0.34190536565E+02  0.26769135034E+02 -0.52846047356E+02  0.68525590127E+02  0.41800000000E+01 0.  1.
         -5    1    1    2    0  502  0.27659506322E+01 -0.68093994410E+02  0.21999865958E+02  0.71734991879E+02  0.41800000000E+01 0.  1.
        -11    1    3    3    0    0  0.14963634747E+02  0.14844947027E+02  0.23173112817E+02  0.31325324814E+02  0.00000000000E+00 0. -1.
         11    1    3    3    0    0 -0.51920121944E+02  0.26479912349E+02 -0.46367726310E+02  0.74477183512E+02  0.00000000000E+00 0.  1.
</event>
<event>
 7    1  0.6988825E-006  0.2026525E+03  0.7561462E-02  0.1147520E+00
          1   -1    0    0  501    0  0.00000000000E+00  0.00000000000E+00  0.16467232339E+03  0.16467232339E+03  0.00000000000E+00 0. -1.
         -1   -1    0    0    0  501 -0.00000000000E+00 -0.00000000000E+00 -0.31156201369E+03  0.31156201369E+03  0.00000000000E+00 0.  1.
         23    2    1    2    0    0 -0.98195775678E+02 -0.14656668489E+03 -0.16661982016E+03  0.25906724937E+03  0.90716435908E+02 0.  0.
          5    1    1    2  502    0  0.57580785662E+02  0.30242020276E+01 -0.22555294881E+02  0.62055671800E+02  0.41800000000E+01 0. -1.
         -5    1    1    2    0  502  0.40614990015E+02  0.14354248286E+03  0.42285424749E+02  0.15511141591E+03  0.41800000000E+01 0. -1.
        -11    1    3    3    0    0 -0.88336155752E+02 -0.15929976576E+03 -0.15053053512E+03  0.23630305497E+03  0.00000000000E+00 0.  1.
         11    1    3    3    0    0 -0.98596199257E+01  0.12733080869E+02 -0.16089285045E+02  0.22764194402E+02  0.00000000000E+00 0. -1.
</event>
<event>
 7    1  0.6988825E-006  0.6552327E+02  0.7561462E-02  0.1376014E+00
          2   -1    0    0  501    0  0.00000000000E+00  0.00000000000E+00  0.50995110762E+03  0.50995110762E+03  0.00000000000E+00 0. -1.
         -2   -1    0    0    0  501 -0.00000000000E+00 -0.00000000000E+00 -0.30788345128E+02  0.30788345128E+02  0.00000000000E+00 0.  1.
         23    2    1    2    0    0  0.40828170621E+02  0.51944460581E+01  0.10670966517E+03  0.14569038738E+03  0.90248626305E+02 0.  0.
          5    1    1    2  502    0 -0.58796010845E+02 -0.91657272369E+01  0.37138856583E+03  0.37614880125E+03  0.41800000000E+01 0. -1.
         -5    1    1    2    0  502  0.17967840224E+02  0.39712811789E+01  0.10645314940E+01  0.18900264120E+02  0.41800000000E+01 0. -1.
        -11    1    3    3    0    0  0.19580594094E+02 -0.13855127996E+02  0.11378810777E+03  0.11628885461E+03  0.00000000000E+00 0. -1.
         11    1    3    3    0    0  0.21247576527E+02  0.19049574054E+02 -0.70784426004E+01  0.29401532775E+02  0.00000000000E+00 0.  1.
</event>
<event>
 7    1  0.6988825E-006  0.1342919E+03  0.7561462E-02  0.1221223E+00
         -2   -1    0    0    0  501 -0.00000000000E+00  0.00000000000E+00  0.56945529478E+02  0.56945529478E+02  0.00000000000E+00 0. -1.
          2   -1    0    0  501    0  0.00000000000E+00 -0.00000000000E+00 -0.36203743105E+03  0.36203743105E+03  0.00000000000E+00 0.  1.
         23    2    1    2    0    0  0.32323392543E+02 -0.89183957519E+02 -0.12447092762E+03  0.17967216781E+03  0.88263786894E+02 0.  0.
          5    1    1    2  502    0 -0.73393857895E+02  0.68617548542E+02 -0.15956612802E+03  0.18861030713E+03  0.41800000000E+01 0.  1.
         -5    1    1    2    0  502  0.41070465352E+02  0.20566408977E+02 -0.21054845937E+02  0.50700485598E+02  0.41800000000E+01 0.  1.
        -11    1    3    3    0    0  0.32241951711E+02 -0.10307992612E+03 -0.83827908629E+02  0.13671917526E+03  0.00000000000E+00 0.  1.
         11    1    3    3    0    0  0.81440832033E-01  0.13895968598E+02 -0.40643018992E+02  0.42952992546E+02  0.00000000000E+00 0. -1.
</event>
<event>
 7    1  0.6988825E-006  0.1291690E+03  0.7561462E-02  0.1228694E+00
          2   -1    0    0  501    0  0.00000000000E+00  0.00000000000E+00  0.80876932335E+03  0.80876932335E+03  0.00000000000E+00 0. -1.
         -2   -1    0    0    0  501 -0.00000000000E+00 -0.00000000000E+00 -0.36626313715E+02  0.36626313715E+02  0.00000000000E+00 0.  1.
         23    2    1    2    0    0 -0.61740771373E+02  0.79569032419E+02  0.15075930255E+03  0.20359420214E+03  0.92623312776E+02 0.  0.
          5    1    1    2  502    0  0.37529405691E+02 -0.11077602326E+03  0.51785527616E+03  0.53091557056E+03  0.41800000000E+01 0.  1.
         -5    1    1    2    0  502  0.24211365682E+02  0.31206990841E+02  0.10352843092E+03  0.11088586436E+03  0.41800000000E+01 0.  1.
        -11    1    3    3    0    0 -0.20122831042E+02  0.36585732395E+02  0.13558679717E+03  0.14187044693E+03  0.00000000000E+00 0. -1.
         11    1    3    3    0    0 -0.41617940331E+02  0.42983300024E+02  0.15172505382E+02  0.61723755216E+02  0.00000000000E+00 0.  1.
</event>
<event>
 7    1  0.6988825E-006  0.9328917E+02  0.7561462E-02  0.1295076E+00
         -4   -1    0    0    0  501 -0.00000000000E+00  0.00000000000E+00  0.50914664747E+03  0.50914664747E+03  0.00000000000E+00 0.  1.
          4   -1    0    0  501    0  0.00000000000E+00 -0.00000000000E+00 -0.33846324383E+02  0.33846324383E+02  0.00000000000E+00 0. -1.
         23    2    1    2    0    0 -0.69298954016E+02  0.17106645252E+02  0.30665693569E+03  0.32810117927E+03  0.92287189214E+02 0.  0.
          5    1    1    2  502    0  0.54747662348E+02 -0.52956064925E+02  0.53030282920E+02  0.92904976462E+02  0.41800000000E+01 0. -1.
         -5    1    1    2    0  502  0.14551291668E+02  0.35849419673E+02  0.11561310448E+03  0.12198681612E+03  0.41800000000E+01 0.  1.
        -11    1    3    3    0    0 -0.10637679426E+02  0.27526139599E+01 -0.39509027942E+01  0.11676760684E+02  0.00000000000E+00 0. -1.
         11    1    3    3    0    0 -0.58661274590E+02  0.14354031292E+02  0.31060783848E+03  0.31642441858E+03  0.00000000000E+00 0.  1.
</event>
<event>
 7    1  0.6988825E-006  0.3146958E+03  0.7561462E-02  0.1078117E+00
         -1   -1    0    0    0  501 -0.00000000000E+00  0.00000000000E+00  0.92953654913E+02  0.92953654913E+02  0.00000000000E+00 0.  1.
          1   -1    0    0  501    0  0.00000000000E+00 -0.00000000000E+00 -0.12500740063E+04  0.12500740063E+04  0.00000000000E+00 0. -1.
         23    2    1    2    0    0 -0.97500298554E+02  0.28555360701E+03 -0.34243462117E+03  0.46529890280E+03  0.90523082548E+02 0.  0.
          5    1    1    2  502    0  0.61249897037E+02 -0.29785402418E+02 -0.17636581024E+03  0.18910603244E+03  0.41800000000E+01 0.  1.
         -5    1    1    2    0  502  0.36250401517E+02 -0.25576820459E+03 -0.63831991997E+03  0.68862272597E+03  0.41800000000E+01 0.  1.
        -11    1    3    3    0    0 -0.33422557348E+02  0.64522378016E+02 -0.33357866832E+02  0.79955937141E+02  0.00000000000E+00 0.  1.
         11    1    3    3    0    0 -0.64077741207E+02  0.22103122899E+03 -0.30907675434E+03  0.38534296566E+03  0.00000000000E+00 0. -1.
</event>
<event>
 7    1  0.6988825E-006  0.1146850E+03  0.7561462E-02  0.1252132E+00
         -2   -1    0    0    0  501 -0.00000000000E+00  0.00000000000E+00  0.64258077109E+02  0.64258077109E+02  0.00000000000E+00 0.  1.
          2   -1    0    0  501    0  0.00000000000E+00 -0.00000000000E+00 -0.23595497583E+03  0.23595497583E+03  0.00000000000E+00 0. -1.
         23    2    1    2    0    0  0.45855319760E+02 -0.24865154530E+02 -0.45983376832E+02  0.11537405189E+03  0.92063644532E+02 0.  0.
          5    1    1    2  502    0  0.40024060260E+02  0.71968723795E+01 -0.14987764835E+02  0.43541082514E+02  0.41800000000E+01 0. -1.
         -5    1    1    2    0  502 -0.85879380020E+02  0.17668282151E+02 -0.11072575705E+03  0.14129791853E+03  0.41800000000E+01 0. -1.
        -11    1    3    3    0    0  0.75337558928E+01 -0.52771441656E+02 -0.65424597634E+01  0.53706482961E+02  0.00000000000E+00 0.  1.
         11    1    3    3    0    0  0.38321563867E+02  0.27906287126E+02 -0.39440917068E+02  0.61667568928E+02  0.00000000000E+00 0. -1.
</event>
<event>
 7    1  0.6988825E-006  0.1339417E+03  0.7561462E-02  0.1221721E+00
          1   -1    0    0  501    0  0.00000000000E+00  0.00000000000E+00  0.11002304044E+04  0.11002304044E+04  0.00000000000E+00 0. -1.
         -1   -1    0    0    0  501 -0.00000000000E+00 -0.00000000000E+00 -0.23617210674E+02  0.23617210674E+02  0.00000000000E+00 0.  1.
         23    2    1    2    0    0 -0.79299025679E+02  0.62959196542E+01  0.23235812964E+03  0.26667710600E+03  0.10391537123E+03 0.  0.
          5    1    1    2  502    0 -0.14487109255E+02  0.35164522711E+02  0.36799287747E+03  0.36997655366E+03  0.41800000000E+01 0. -1.
         -5    1    1    2    0  502  0.93786134934E+02 -0.41460442366E+02  0.47626218665E+03  0.48719395544E+03  0.41800000000E+01 0. -1.
        -11    1    3    3    0    0 -0.24714216397E+02 -0.45479851789E+02  0.12763035950E+03  0.13772696932E+03  0.00000000000E+00 0. -1.
         11    1    3    3    0    0 -0.54584809282E+02  0.51775771443E+02  0.10472777014E+03  0.12895013668E+03  0.00000000000E+00 0.  1.
</event>
<event>
 7    1  0.6988825E-006  0.1169676E+03  0.7561462E-02  0.1248185E+00
          1   -1    0    0  501    0  0.00000000000E+00  0.00000000000E+00  0.11280115666E+03  0.11280115666E+03  0.00000000000E+00 0. -1.
         -1   -1    0    0    0  501 -0.00000000000E+00 -0.00000000000E+00 -0.18451009917E+03  0.18451009917E+03  0.00000000000E+00 0.  1.
         23    2    1    2    0    0 -0.21528670517E+02 -0.58213977630E+02 -0.11816426711E+03  0.16135618647E+03  0.90667932828E+02 0.  0.
          5    1    1    2  502    0  0.65430967994E+02  0.34324160437E+02  0.43204505531E+02  0.85693997809E+02  0.41800000000E+01 0. -1.
         -5    1    1    2    0  502 -0.43902297476E+02  0.23889817193E+02  0.32508190691E+01  0.50261071555E+02  0.41800000000E+01 0.  1.
        -11    1    3    3    0    0 -0.51385451114E+02 -0.61033266320E+02 -0.88952614658E+02  0.11949096969E+03  0.00000000000E+00 0.  1.
         11    1    3    3    0    0  0.29856780597E+02  0.28192886900E+01 -0.29211652454E+02  0.41865216773E+02  0.00000000000E+00 0. -1.
</event>
<event>
 7    1  0.6988825E-006  0.2839313E+03  0.7561462E-02  0.1093561E+00
         -1   -1    0    0    0  501 -0.00000000000E+00  0.00000000000E+00  0.24511753204E+03  0.24511753204E+03  0.00000000000E+00 0.  1.
          1   -1    0    0  501    0  0.00000000000E+00 -0.00000000000E+00 -0.47140077345E+03  0.47140077345E+03  0.00000000000E+00 0. -1.
         23    2    1    2    0    0 -0.23710797975E+01  0.52190655463E+02  0.57101716703E+01  0.10553402670E+03  0.91516873821E+02 0.  0.
          5    1    1    2  502    0  0.20420984461E+03 -0.15658394745E+03 -0.27827456832E+03  0.37904406209E+03  0.41800000000E+01 0. -1.
         -5    1    1    2    0  502 -0.20183876481E+03  0.10439329199E+03  0.46281155239E+02  0.23194021670E+03  0.41800000000E+01 0.  1.
        -11    1    3    3    0    0 -0.33477926862E+02  0.30589271059E+02  0.35304518156E+02  0.57470723792E+02  0.00000000000E+00 0.  1.
         11    1    3    3    0    0  0.31106847065E+02  0.21601384404E+02 -0.29594346486E+02  0.48063302908E+02  0.00000000000E+00 0. -1.
</event>
<event>
 7    1  0.6988825E-006  0.1274544E+03  0.7561462E-02  0.1231283E+00
         -2   -1    0    0    0  501 -0.00000000000E+00  0.00000000000E+00  0.10487952334E+02  0.10487952334E+02  0.00000000000E+00 0.  1.
          2   -1    0    0  501    0  0.00000000000E+00 -0.00000000000E+00 -0.17667425290E+04  0.17667425290E+04  0.00000000000E+00 0. -1.
         23    2    1    2    0    0  0.64199419165E+02  0.37083477999E+02 -0.49887803882E+03  0.51147310490E+03  0.85021701073E+02 0.  0.
          5    1    1    2  502    0 -0.72601687386E+02 -0.76081287081E+02 -0.89407362663E+03  0.90024690474E+03  0.41800000000E+01 0. -1.
         -5    1    1    2    0  502  0.84022682202E+01  0.38997809082E+02 -0.36330291118E+03  0.36551047166E+03  0.41800000000E+01 0. -1.
        -11    1    3    3    0    0  0.60658753317E+02 -0.10735441904E+02 -0.33930386406E+03  0.34485046938E+03  0.00000000000E+00 0. -1.
         11    1    3    3    0    0  0.35406658487E+01  0.47818919903E+02 -0.15957417476E+03  0.16662263551E+03  0.00000000000E+00 0.  1.
</event>
<event>
 7    1  0.6988825E-006  0.1151697E+03  0.7561462E-02  0.1251285E+00
         -2   -1    0    0    0  501 -0.00000000000E+00  0.00000000000E+00  0.37797463768E+02  0.37797463768E+02  0.00000000000E+00 0.  1.
          2   -1    0    0  501    0  0.00000000000E+00 -0.00000000000E+00 -0.56770624352E+03  0.56770624352E+03  0.00000000000E+00 0. -1.
         23    2    1    2    0    0 -0.26758598838E+02  0.76799761730E+02 -0.12806041001E+03  0.17684818714E+03  0.90893270757E+02 0.  0.
          5    1    1    2  502    0  0.31721066778E+02 -0.93284669570E+02 -0.17309744445E+03  0.19921961080E+03  0.41800000000E+01 0.  1.
         -5    1    1    2    0  502 -0.49624679396E+01  0.16484907840E+02 -0.22875092529E+03  0.22943590934E+03  0.41800000000E+01 0.  1.
        -11    1    3    3    0    0  0.23154061769E+02  0.54737509471E+02 -0.35016300077E+02  0.68981496001E+02  0.00000000000E+00 0.  1.
         11    1    3    3    0    0 -0.49912660607E+02  0.22062252259E+02 -0.93044109938E+02  0.10786669114E+03  0.00000000000E+00 0. -1.
</event>
<event>
 7    1  0.6988825E-006  0.8935288E+02  0.7561462E-02  0.1304426E+00
         -1   -1    0    0    0  501 -0.00000000000E+00  0.00000000000E+00  0.48311650199E+02  0.48311650199E+02  0.00000000000E+00 0.  1.
          1   -1    0    0  501    0  0.00000000000E+00 -0.00000000000E+00 -0.36257531212E+03  0.36257531212E+03  0.00000000000E+00 0. -1.
         23    2    1    2    0    0 -0.74578269031E+01 -0.66884004742E+02 -0.90033809781E+02  0.14544823643E+03  0.92303918151E+02 0.  0.
          5    1    1    2  502    0 -0.72927166546E+00  0.89483607631E+01 -0.20271581551E+03  0.20295757994E+03  0.41800000000E+01 0. -1.
         -5    1    1    2    0  502  0.81870985685E+01  0.57935643979E+02 -0.21514036628E+02  0.62481145942E+02  0.41800000000E+01 0. -1.
        -11    1    3    3    0    0  0.38953288461E+02 -0.42734395880E+02 -0.27843855780E+02  0.64178404295E+02  0.00000000000E+00 0. -1.
         11    1    3    3    0    0 -0.46411115364E+02 -0.24149608862E+02 -0.62189954000E+02  0.81269832140E+02  0.00000000000E+00 0.  1.
</event>
<event>
 7    1  0.6988825E-006  0.9538196E+02  0.7561462E-02  0.1290318E+00
         -3   -1    0    0    0  501 -0.00000000000E+00  0.00000000000E+00  0.43354347137E+02  0.43354347137E+02  0.00000000000E+00 0.  1.
          3   -1    0    0  501    0  0.00000000000E+00 -0.00000000000E+00 -0.53024978152E+03  0.53024978152E+03  0.00000000000E+00 0. -1.
         23    2    1    2    0    0 -0.49263102704E+01 -0.34983247026E+02 -0.35244352733E+02  0.10407497982E+03  0.91330941748E+02 0.  0.
          5    1    1    2  502    0 -0.60996072905E+01 -0.28330886685E+02 -0.33502794296E+03  0.33630497962E+03  0.41800000000E+01 0. -1.
         -5    1    1    2    0  502  0.11025917561E+02  0.63314133711E+02 -0.11662313869E+03  0.13322416922E+03  0.41800000000E+01 0.  1.
        -11    1    3    3    0    0  0.42489803575E+02 -0.10736851200E+02 -0.22727615055E+02  0.49368085517E+02  0.00000000000E+00 0.  1.
         11    1    3    3    0    0 -0.47416113845E+02 -0.24246395826E+02 -0.12516737678E+02  0.54706894308E+02  0.00000000000E+00 0. -1.
</event>
<event>
 7    1  0.6988825E-006  0.1228066E+03  0.7561462E-02  0.1238538E+00
         -2   -1    0    0    0  501 -0.00000000000E+00  0.00000000000E+00  0.19044932157E+02  0.19044932157E+02  0.00000000000E+00 0.  1.
          2   -1    0    0  501    0  0.00000000000E+00 -0.00000000000E+00 -0.10630367032E+04  0.10630367032E+04  0.00000000000E+00 0. -1.
         23    2    1    2    0    0  0.52716939456E+02  0.47116793925E+02 -0.24398875979E+03  0.26927753574E+03  0.89335370238E+02 0.  0.
          5    1    1    2  502    0  0.35336757682E+02 -0.28655483076E+02 -0.15661493605E+03  0.16314267911E+03  0.41800000000E+01 0.  1.
         -5    1    1    2    0  502 -0.88053697138E+02 -0.18461310850E+02 -0.64338807522E+03  0.64966142052E+03  0.41800000000E+01 0.  1.
        -11    1    3    3    0    0 -0.10956087045E+02 -0.16530754750E+02 -0.77596914197E+02  0.80091090571E+02  0.00000000000E+00 0.  1.
         11    1    3    3    0    0  0.63673026501E+02  0.63647548676E+02 -0.16639184560E+03  0.18918644517E+03  0.00000000000E+00 0. -1.
</event>
<event>
 7    1  0.6988825E-006  0.6189374E+02  0.7561462E-02  0.1390052E+00
          2   -1    0    0  501    0  0.00000000000E+00  0.00000000000E+00  0.33939695225E+03  0.33939695225E+03  0.00000000000E+00 0. -1.
         -2   -1    0    0    0  501 -0.00000000000E+00 -0.00000000000E+00 -0.33579129345E+02  0.33579129345E+02  0.00000000000E+00 0.  1.
         23    2    1    2    0    0  0.43877405376E+01  0.50619489733E+01  0.13445492982E+03  0.16070749546E+03  0.87771836888E+02 0.  0.
          5    1    1    2  502    0  0.15736100405E+02 -0.35766832275E+02  0.17085478129E+03  0.17531605698E+03  0.41800000000E+01 0. -1.
         -5    1    1    2    0  502 -0.20123840942E+02  0.30704883301E+02  0.50811179640E+00  0.36952529148E+02  0.41800000000E+01 0. -1.
        -11    1    3    3    0    0 -0.49054131573E+01  0.25034886476E+02  0.13623841111E+03  0.13860632482E+03  0.00000000000E+00 0. -1.
         11    1    3    3    0    0  0.92931536949E+01 -0.19972937503E+02 -0.17834812918E+01  0.22101170639E+02  0.00000000000E+00 0.  1.
</event>
<event>
 7    1  0.6988825E-006  0.1191384E+03  0.7561462E-02  0.1244525E+00
          2   -1    0    0  501    0  0.00000000000E+00  0.00000000000E+00  0.26041833247E+03  0.26041833247E+03  0.00000000000E+00 0. -1.
         -2   -1    0    0    0  501 -0.00000000000E+00 -0.00000000000E+00 -0.64706431182E+02  0.64706431182E+02  0.00000000000E+00 0.  1.
         23    2    1    2    0    0  0.70986452785E+02 -0.81272518575E+01  0.76412390826E+02  0.13807902000E+03  0.90121216096E+02 0.  0.
          5    1    1    2  502    0 -0.73496281005E+02 -0.42555775514E+02  0.42915077955E+02  0.95246384011E+02  0.41800000000E+01 0.  1.
         -5    1    1    2    0  502  0.25098282203E+01  0.50683027372E+02  0.76384432505E+02  0.91799359640E+02  0.41800000000E+01 0.  1.
        -11    1    3    3    0    0  0.86374671079E+02 -0.94204093448E+01  0.84018181466E+02  0.12086514275E+03  0.00000000000E+00 0. -1.
         11    1    3    3    0    0 -0.15388218295E+02  0.12931574874E+01 -0.76057906392E+01  0.17213877245E+02  0.00000000000E+00 0.  1.
</event>
<event>
 7    1  0.6988825E-006  0.1365040E+03  0.7561462E-02  0.1218112E+00
          2   -1    0    0  501    0  0.00000000000E+00  0.00000000000E+00  0.10076002540E+03  0.10076002540E+03  0.00000000000E+00 0. -1.
         -2   -1    0    0    0  501 -0.00000000000E+00 -0.00000000000E+00 -0.26016865415E+03  0.26016865415E+03  0.00000000000E+00 0.  1.
         23    2    1    2    0    0 -0.72465510576E+02  0.57327616248E+02 -0.16304647200E+03  0.20536685362E+03  0.83986229393E+02 0.  0.
          5    1    1    2  502    0 -0.16284369498E+02  0.24667801453E+02  0.16276506890E+02  0.34001149908E+02  0.41800000000E+01 0.  1.
         -5    1    1    2    0  502  0.88749880074E+02 -0.81995417702E+02 -0.12638663639E+02  0.12156067603E+03  0.41800000000E+01 0.  1.
        -11    1    3    3    0    0  0.11970028605E+02 -0.89227365610E+01 -0.84088804129E+01  0.17134937477E+02  0.00000000000E+00 0. -1.
         11    1    3    3    0    0 -0.84435539181E+02  0.66250352809E+02 -0.15463759159E+03  0.18823191615E+03  0.00000000000E+00 0.  1.
</event>
<event>
 7    1  0.6988825E-006  0.1081090E+03  0.7561462E-02  0.1264112E+00
          2   -1    0    0  501    0  0.00000000000E+00  0.00000000000E+00  0.96588016372E+03  0.96588016372E+03  0.00000000000E+00 0. -1.
         -2   -1    0    0    0  501 -0.00000000000E+00 -0.00000000000E+00 -0.12883886148E+02  0.12883886148E+02  0.00000000000E+00 0.  1.
         23    2    1    2    0    0 -0.25553832017E+02 -0.16715291541E+01  0.39470352839E+03  0.40606423881E+03  0.91877627188E+02 0.  0.
          5    1    1    2  502    0  0.49165941313E+02  0.49148245544E+02  0.23650982080E+03  0.24655061865E+03  0.41800000000E+01 0. -1.
         -5    1    1    2    0  502 -0.23612109295E+02 -0.47476716390E+02  0.32178292839E+03  0.32614919241E+03  0.41800000000E+01 0. -1.
        -11    1    3    3    0    0  0.33357053101E+02 -0.74895504563E+01  0.10682506780E+03  0.11216229968E+03  0.00000000000E+00 0.  1.
         11    1    3    3    0    0 -0.58910885119E+02  0.58180213022E+01  0.28787846058E+03  0.29390193913E+03  0.00000000000E+00 0. -1.
</event>
<event>
 7    1  0.6988825E-006  0.3154099E+03  0.7561462E-02  0.1077781E+00
          1   -1    0    0  501    0  0.00000000000E+00  0.00000000000E+00  0.30067720237E+03  0.30067720237E+03  0.00000000000E+00 0. -1.
         -1   -1    0    0    0  501 -0.00000000000E+00 -0.00000000000E+00 -0.37739802501E+03  0.37739802501E+03  0.00000000000E+00 0.  1.
         23    2    1    2    0    0 -0.30934618503E+03 -0.31090407215E+02 -0.10758243729E+03  0.34153272438E+03  0.91700302054E+02 0.  0.
          5    1    1    2  502    0  0.14271462667E+03  0.61370376789E+01  0.76276127154E+02  0.16198965360E+03  0.41800000000E+01 0.  1.
         -5    1    1    2    0  502  0.16663155835E+03  0.24953369536E+02 -0.45414512502E+02  0.17455284941E+03  0.41800000000E+01 0.  1.
        -11    1    3    3    0    0 -0.48398966259E+02 -0.32714526361E+02  0.21253319368E+01  0.58456968839E+02  0.00000000000E+00 0. -1.
         11    1    3    3    0    0 -0.26094721877E+03  0.16241191463E+01 -0.10970776923E+03  0.28307575554E+03  0.00000000000E+00 0.  1.
</event>
<event>
 7    1  0.6988825E-006  0.1262885E+03  0.7561462E-02  0.1233069E+00
         -1   -1    0    0    0  501 -0.00000000000E+00  0.00000000000E+00  0.56455909989E+02  0.56455909989E+02  0.00000000000E+00 0.  1.
          1   -1    0    0  501    0  0.00000000000E+00 -0.00000000000E+00 -0.30861612809E+03  0.30861612809E+03  0.00000000000E+00 0. -1.
         23    2    1    2    0    0  0.63704445435E+02 -0.41770013966E+02 -0.12570089471E+03  0.17157190394E+03  0.88505439688E+02 0.  0.
          5    1    1    2  502    0 -0.55601349345E+02 -0.35206530579E+02 -0.77762771284E+02  0.10195847607E+03  0.41800000000E+01 0. -1.
         -5    1    1    2    0  502 -0.81030960901E+01  0.76976544545E+02 -0.48696552110E+02  0.91541658078E+02  0.41800000000E+01 0. -1.
        -11    1    3    3    0    0  0.15766100218E+02  0.23400690558E+02 -0.90899281955E+01  0.29644376015E+02  0.00000000000E+00 0.  1.
         11    1    3    3    0    0  0.47938345217E+02 -0.65170704524E+02 -0.11661096652E+03  0.14192752792E+03  0.00000000000E+00 0. -1.
</event>
<event>
 7    1  0.6988825E-006  0.1645756E+03  0.7561462E-02  0.1183626E+00
          2   -1    0    0  501    0  0.00000000000E+00  0.00000000000E+00  0.18640609111E+03  0.18640609111E+03  0.00000000000E+00 0. -1.
         -2   -1    0    0    0  501 -0.00000000000E+00 -0.00000000000E+00 -0.17237914496E+03  0.17237914496E+03  0.00000000000E+00 0.  1.
         23    2    1    2    0    0  0.13812772440E+03 -0.22068014738E+02 -0.20030453165E+02  0.16806570101E+03  0.90986786294E+02 0.  0.
          5    1    1    2  502    0  0.44416040113E+01  0.41713421468E+02  0.18038075375E+02  0.45853919570E+02  0.41800000000E+01 0. -1.
         -5    1    1    2    0  502 -0.14256932841E+03 -0.19645406729E+02  0.16019323939E+02  0.14486561548E+03  0.41800000000E+01 0. -1.
        -11    1    3    3    0    0  0.11362259308E+02 -0.10925523746E+02  0.27932100409E+02  0.32072889470E+02  0.00000000000E+00 0. -1.
         11    1    3    3    0    0  0.12676546509E+03 -0.11142490992E+02 -0.47962553574E+02  0.13599281154E+03  0.00000000000E+00 0.  1.
</event>
<event>
 7    1  0.6988825E-006  0.8955065E+02  0.7561462E-02  0.1303944E+00
          1   -1    0    0  501    0  0.00000000000E+00  0.00000000000E+00  0.27635447316E+03  0.27635447316E+03  0.00000000000E+00 0. -1.
         -1   -1    0    0    0  501 -0.00000000000E+00 -0.00000000000E+00 -0.50075331257E+02  0.50075331257E+02  0.00000000000E+00 0.  1.
         23    2    1    2    0    0 -0.39858421737E+02  0.11155846202E+02  0.67067041082E+02  0.11976763951E+03  0.90183994076E+02 0.  0.
          5    1    1    2  502    0  0.70294200909E+02  0.10376578775E+02  0.15284980377E+03  0.16861044742E+03  0.41800000000E+01 0.  1.
         -5    1    1    2    0  502 -0.30435779172E+02 -0.21532424977E+02  0.63622970513E+01  0.38051717477E+02  0.41800000000E+01 0.  1.
        -11    1    3    3    0    0  0.11986735107E+02  0.14064829226E+02 -0.14215174954E+02  0.23314640006E+02  0.00000000000E+00 0.  1.
         11    1    3    3    0    0 -0.51845156844E+02 -0.29089830236E+01  0.81282216035E+02  0.96452999507E+02  0.00000000000E+00 0. -1.
</event>
<event>
 7    1  0.6988825E-006  0.1672297E+03  0.7561462E-02  0.1180768E+00
         -2   -1    0    0    0  501 -0.00000000000E+00  0.00000000000E+00  0.29702283728E+03  0.29702283728E+03  0.00000000000E+00 0.  1.
          2   -1    0    0  501    0  0.00000000000E+00 -0.00000000000E+00 -0.65396603009E+03  0.65396603009E+03  0.00000000000E+00 0. -1.
         23    2    1    2    0    0  0.21909809811E+02  0.14275163030E+03  0.21771217208E+03  0.27709836409E+03  0.92340921529E+02 0.  0.
          5    1    1    2  502    0  0.44985067583E+02 -0.32745642800E+02 -0.53670822226E+03  0.53960089109E+03  0.41800000000E+01 0. -1.
         -5    1    1    2    0  502 -0.66894877394E+02 -0.11000598750E+03 -0.37947142626E+02  0.13428961219E+03  0.41800000000E+01 0.  1.
        -11    1    3    3    0    0  0.27564021423E+02  0.51450138358E+02  0.15650122161E+03  0.16703150714E+03  0.00000000000E+00 0.  1.
         11    1    3    3    0    0 -0.56542116123E+01  0.91301491945E+02  0.61210950478E+02  0.11006685695E+03  0.00000000000E+00 0. -1.
</event>
<event>
 7    1  0.7640310E-006  0.3351024E+03  0.7561462E-02  0.1068901E+00
          2   -1    0    0  501    0  0.00000000000E+00  0.00000000000E+00  0.57318780290E+03  0.57318780290E+03  0.00000000000E+00 0. -1.
         -2   -1    0    0    0  501 -0.00000000000E+00 -0.00000000000E+00 -0.20337495966E+03  0.20337495966E+03  0.00000000000E+00 0.  1.
         23    2    1    2    0    0 -0.16780193456E+03  0.27601830739E+03  0.16721979705E+03  0.37527075204E+03  0.92315120941E+02 0.  0.
          5    1    1    2  502    0  0.16894812730E+03 -0.19627205444E+03  0.18815299962E+03  0.32013311722E+03  0.41800000000E+01 0.  1.
         -5    1    1    2    0  502 -0.11461927372E+01 -0.79746252945E+02  0.14440046574E+02  0.81158893300E+02  0.41800000000E+01 0.  1.
        -11    1    3    3    0    0 -0.76261727422E+02  0.61048008835E+02  0.21882915538E+02  0.10010780411E+03  0.00000000000E+00 0.  1.
         11    1    3    3    0    0 -0.91540207141E+02  0.21497029855E+03  0.14533688151E+03  0.27516294793E+03  0.00000000000E+00 0. -1.
</event>
<event>
 7    1  0.6988825E-006  0.1494930E+03  0.7561462E-02  0.1201097E+00
          1   -1    0    0  501    0  0.00000000000E+00  0.00000000000E+00  0.13017448086E+04  0.13017448086E+04  0.00000000000E+00 0. -1.
         -1   -1    0    0    0  501 -0.00000000000E+00 -0.00000000000E+00 -0.30990669825E+02  0.30990669825E+02  0.00000000000E+00 0.  1.
         23    2    1    2    0    0 -0.14598857055E+02 -0.11548545804E+03  0.20310981569E+03  0.25150507067E+03  0.91930330655E+02 0.  0.
          5    1    1    2  502    0 -0.38220180346E+02 -0.47299508023E+01  0.28828639698E+03  0.29087742041E+03  0.41800000000E+01 0.  1.
         -5    1    1    2    0  502  0.52819037401E+02  0.12021540884E+03  0.77935792605E+03  0.79035298730E+03  0.41800000000E+01 0.  1.
        -11    1    3    3    0    0  0.14197929271E+02 -0.55738083619E+01  0.89635929404E+02  0.90924410228E+02  0.00000000000E+00 0. -1.
         11    1    3    3    0    0 -0.28796786326E+02 -0.10991164968E+03  0.11347388629E+03  0.16058066044E+03  0.00000000000E+00 0.  1.
</event>
<event>
 7    1  0.6988825E-006  0.8759915E+02  0.7561462E-02  0.1308772E+00
         -2   -1    0    0    0  501 -0.00000000000E+00  0.00000000000E+00  0.77900622003E+02  0.77900622003E+02  0.00000000000E+00 0. -1.
          2   -1    0    0  501    0  0.00000000000E+00 -0.00000000000E+00 -0.28243294963E+03  0.28243294963E+03  0.00000000000E+00 0.  1.
         23    2    1    2    0    0  0.84203135003E+02  0.22425168552E+02 -0.17670968968E+02  0.11917199295E+03  0.79351399681E+02 0.  0.
          5    1    1    2  502    0 -0.63047231379E+02 -0.19513130454E+02 -0.20336729523E+03  0.21384911694E+03  0.41800000000E+01 0. -1.
         -5    1    1    2    0  502 -0.21155903624E+02 -0.29120380982E+01  0.16505936576E+02  0.27312461740E+02  0.41800000000E+01 0. -1.
        -11    1    3    3    0    0  0.35087962450E+02  0.12126069987E+02  0.31668247853E+02  0.48796358515E+02  0.00000000000E+00 0. -1.
         11    1    3    3    0    0  0.49115172553E+02  0.10299098566E+02 -0.49339216821E+02  0.70375634439E+02  0.00000000000E+00 0.  1.
</event>
<event>
 7    1  0.6988825E-006  0.1333962E+03  0.7561462E-02  0.1222502E+00
          2   -1    0    0  501    0  0.00000000000E+00  0.00000000000E+00  0.36177878740E+03  0.36177878740E+03  0.00000000000E+00 0. -1.
         -2   -1    0    0    0  501 -0.00000000000E+00 -0.00000000000E+00 -0.61532836385E+02  0.61532836385E+02  0.00000000000E+00 0.  1.
         23    2    1    2    0    0  0.81017843000E+02  0.15130765229E+02  0.52231925409E+02  0.13356803628E+03  0.91210829093E+02 0.  0.
          5    1    1    2  502    0 -0.76245852766E+02 -0.61092673156E+02  0.12806051519E+03  0.16112949056E+03  0.41800000000E+01 0.  1.
         -5    1    1    2    0  502 -0.47719902338E+01  0.45961907927E+02  0.11995351042E+03  0.12861409694E+03  0.41800000000E+01 0.  1.
        -11    1    3    3    0    0  0.88220100932E+02  0.39888661603E+02  0.45150207390E+02  0.10682898839E+03  0.00000000000E+00 0. -1.
         11    1    3    3    0    0 -0.72022579317E+01 -0.24757896374E+02  0.70817180196E+01  0.26739047894E+02  0.00000000000E+00 0.  1.
</event>
<event>
 7    1  0.6988825E-006  0.2735363E+03  0.7561462E-02  0.1099273E+00
         -4   -1    0    0    0  501 -0.00000000000E+00  0.00000000000E+00  0.79547805648E+03  0.79547805648E+03  0.00000000000E+00 0.  1.
          4   -1    0    0  501    0  0.00000000000E+00 -0.00000000000E+00 -0.99198776424E+02  0.99198776424E+02  0.00000000000E+00 0. -1.
         23    2    1    2    0    0  0.26251612579E+02 -0.25493205258E+03  0.28229580524E+03  0.39197463728E+03  0.90959859380E+02 0.  0.
          5    1    1    2  502    0  0.37235551736E+02  0.52579033943E+02  0.15519002527E+03  0.16808467350E+03  0.41800000000E+01 0.  1.
         -5    1    1    2    0  502 -0.63487164314E+02  0.20235301864E+03  0.25879344955E+03  0.33461752212E+03  0.41800000000E+01 0.  1.
        -11    1    3    3    0    0  0.58142881126E+02 -0.16985115614E+03  0.16712207099E+03  0.24527494059E+03  0.00000000000E+00 0.  1.
         11    1    3    3    0    0 -0.31891268547E+02 -0.85080896436E+02  0.11517373425E+03  0.14669969669E+03  0.00000000000E+00 0. -1.
</event>
<event>
 7    1  0.6988825E-006  0.9268728E+02  0.7561462E-02  0.1296472E+00
         -1   -1    0    0    0  501 -0.00000000000E+00  0.00000000000E+00  0.24558345871E+03  0.24558345871E+03  0.00000000000E+00 0.  1.
          1   -1    0    0  501    0  0.00000000000E+00 -0.00000000000E+00 -0.10586454187E+04  0.10586454187E+04  0.00000000000E+00 0. -1.
         23    2    1    2    0    0  0.88326838428E+01  0.43339358729E+02  0.22309572639E+03  0.24520287518E+03  0.91632038872E+02 0.  0.
          5    1    1    2  502    0 -0.14862458231E+02  0.22673935108E+02 -0.94923650478E+03  0.94963277872E+03  0.41800000000E+01 0. -1.
         -5    1    1    2    0  502  0.60297743877E+01 -0.66013293837E+02 -0.86921181632E+02  0.10939322355E+03  0.41800000000E+01 0.  1.
        -11    1    3    3    0    0 -0.23994622640E+02 -0.12268416575E+02  0.12421221807E+03  0.12710204986E+03  0.00000000000E+00 0.  1.
         11    1    3    3    0    0  0.32827306483E+02  0.55607775305E+02  0.98883508318E+02  0.11810082533E+03  0.00000000000E+00 0. -1.
</event>
<event>
 7    1  0.6988825E-006  0.8733915E+02  0.7561462E-02  0.1309426E+00
          1   -1    0    0  501    0  0.00000000000E+00  0.00000000000E+00  0.36077512412E+02  0.36077512412E+02  0.00000000000E+00 0. -1.
         -1   -1    0    0    0  501 -0.00000000000E+00 -0.00000000000E+00 -0.41686525519E+03  0.41686525519E+03  0.00000000000E+00 0.  1.
         23    2    1    2    0    0  0.37346931440E+02 -0.36627797722E+01 -0.24641387812E+03  0.26556269825E+03  0.91627169142E+02 0.  0.
          5    1    1    2  502    0 -0.38244816914E+02 -0.29744922208E+02  0.22561834971E+00  0.48630748726E+02  0.41800000000E+01 0. -1.
         -5    1    1    2    0  502  0.89788547387E+00  0.33407701981E+02 -0.13459948301E+03  0.13874932063E+03  0.41800000000E+01 0. -1.
        -11    1    3    3    0    0  0.15676727607E+01 -0.40782040760E+02 -0.15827991876E+03  0.16345692132E+03  0.00000000000E+00 0.  1.
         11    1    3    3    0    0  0.35779258680E+02  0.37119260987E+02 -0.88133959365E+02  0.10210577692E+03  0.00000000000E+00 0. -1.
</event>
<event>
 7    1  0.6988825E-006  0.9507774E+02  0.7561462E-02  0.1291001E+00
         -2   -1    0    0    0  501 -0.00000000000E+00  0.00000000000E+00  0.18344402330E+02  0.18344402330E+02  0.00000000000E+00 0.  1.
          2   -1    0    0  501    0  0.00000000000E+00 -0.00000000000E+00 -0.84429177159E+03  0.84429177159E+03  0.00000000000E+00 0. -1.
         23    2    1    2    0    0  0.98665312712E+01 -0.54782780388E+02 -0.27260620337E+03  0.29260790570E+03  0.90591075157E+02 0.  0.
          5    1    1    2  502    0  0.17428639348E+02  0.55494666685E+02 -0.99376715301E+02  0.11522421379E+03  0.41800000000E+01 0.  1.
         -5    1    1    2    0  502 -0.27295170619E+02 -0.71188629703E+00 -0.45396445060E+03  0.45480405443E+03  0.41800000000E+01 0.  1.
        -11    1    3    3    0    0  0.48886729796E+02 -0.23699383296E+02 -0.11290426073E+03  0.12529543172E+03  0.00000000000E+00 0.  1.
         11    1    3    3    0    0 -0.39020198525E+02 -0.31083397092E+02 -0.15970194264E+03  0.16731247398E+03  0.00000000000E+00 0. -1.
</event>
<event>
 7    1  0.6988825E-006  0.7126785E+02  0.7561462E-02  0.1355834E+00
         -1   -1    0    0    0  501 -0.00000000000E+00  0.00000000000E+00  0.35577683044E+02  0.35577683044E+02  0.00000000000E+00 0.  1.
          1   -1    0    0  501    0  0.00000000000E+00 -0.00000000000E+00 -0.43235401131E+03  0.43235401131E+03  0.00000000000E+00 0. -1.
         23    2    1    2    0    0  0.31092128484E+02  0.34081662319E+02 -0.12024617634E+03  0.16093875048E+03  0.96508332909E+02 0.  0.
          5    1    1    2  502    0 -0.95700958317E+01 -0.10208953877E+02  0.10595945817E+02  0.18043168825E+02  0.41800000000E+01 0.  1.
         -5    1    1    2    0  502 -0.21522032653E+02 -0.23872708442E+02 -0.28712609774E+03  0.28894977505E+03  0.41800000000E+01 0.  1.
        -11    1    3    3    0    0  0.59966081541E+02  0.18762436966E+02 -0.40501244673E+02  0.74755005159E+02  0.00000000000E+00 0.  1.
         11    1    3    3    0    0 -0.28873953056E+02  0.15319225353E+02 -0.79744931669E+02  0.86183745320E+02  0.00000000000E+00 0. -1.
</event>
<event>
 7    1  0.6988825E-006  0.9366556E+02  0.7561462E-02  0.1294210E+00
          1   -1    0    0  501    0  0.00000000000E+00  0.00000000000E+00  0.98056464786E+02  0.98056464786E+02  0.00000000000E+00 0. -1.
         -1   -1    0    0    0  501 -0.00000000000E+00 -0.00000000000E+00 -0.16071404741E+03  0.16071404741E+03  0.00000000000E+00 0.  1.
         23    2    1    2    0    0  0.25815483903E+02  0.57972421504E+02 -0.27553811450E+02  0.11417457088E+03  0.90826093424E+02 0.  0.
          5    1    1    2  502    0 -0.56636492555E+02 -0.52128385264E+02 -0.65169713902E+02  0.10094367167E+03  0.41800000000E+01 0.  1.
         -5    1    1    2    0  502  0.30821008653E+02 -0.58440362402E+01  0.30065942723E+02  0.43652269652E+02  0.41800000000E+01 0.  1.
        -11    1    3    3    0    0  0.22935979574E+02  0.25259381017E+01 -0.49389484441E+02  0.54513857831E+02  0.00000000000E+00 0.  1.
         11    1    3    3    0    0  0.28795043290E+01  0.55446483403E+02  0.21835672991E+02  0.59660713052E+02  0.00000000000E+00 0. -1.
</event>
<event>
 7    1  0.6988825E-006  0.7765496E+02  0.7561462E-02  0.1335841E+00
         -2   -1    0    0    0  501 -0.00000000000E+00  0.00000000000E+00  0.32957485756E+02  0.32957485756E+02  0.00000000000E+00 0.  1.
          2   -1    0    0  501    0  0.00000000000E+00 -0.00000000000E+00 -0.36987982155E+03  0.36987982155E+03  0.00000000000E+00 0. -1.
         23    2    1    2    0    0  0.20035682954E+02 -0.18378829887E+02 -0.13315531942E+03  0.16219745734E+03  0.88535112236E+02 0.  0.
          5    1    1    2  502    0 -0.76738005194E+01  0.51323318884E+02 -0.23846991201E+02  0.57263615543E+02  0.41800000000E+01 0.  1.
         -5    1    1    2    0  502 -0.12361882434E+02 -0.32944488997E+02 -0.17992002517E+03  0.18337623442E+03  0.41800000000E+01 0.  1.
        -11    1    3    3    0    0  0.56452041322E+01  0.23167404289E+02 -0.10990225695E+03  0.11245933947E+03  0.00000000000E+00 0. -1.
         11    1    3    3    0    0  0.14390478822E+02 -0.41546234176E+02 -0.23253062465E+02  0.49738117867E+02  0.00000000000E+00 0.  1.
</event>
<event>
 7    1  0.6988825E-006  0.1485855E+03  0.7561462E-02  0.1202222E+00
          1   -1    0    0  501    0  0.00000000000E+00  0.00000000000E+00  0.13570020868E+04  0.13570020868E+04  0.00000000000E+00 0. -1.
         -1   -1    0    0    0  501 -0.00000000000E+00 -0.00000000000E+00 -0.23063737042E+02  0.23063737042E+02  0.00000000000E+00 0.  1.
         23    2    1    2    0    0 -0.11946004393E+03  0.25925147842E+02  0.36095605758E+03  0.39148896169E+03  0.89618727015E+02 0.  0.
          5    1    1    2  502    0  0.13107901617E+03  0.47070398348E+01  0.88352183448E+03  0.89321451461E+03  0.41800000000E+01 0. -1.
         -5    1    1    2    0  502 -0.11618972235E+02 -0.30632187677E+02  0.89460457657E+02  0.95362347506E+02  0.41800000000E+01 0. -1.
        -11    1    3    3    0    0 -0.39423875084E+02  0.34541207985E+02  0.58694048788E+02  0.78691348564E+02  0.00000000000E+00 0.  1.
         11    1    3    3    0    0 -0.80036168849E+02 -0.86160601423E+01  0.30226200879E+03  0.31279761312E+03  0.00000000000E+00 0. -1.
</event>
<event>
 7    1  0.6988825E-006  0.7789940E+02  0.7561462E-02  0.1335121E+00
          1   -1    0    0  501    0  0.00000000000E+00  0.00000000000E+00  0.11314204750E+04  0.11314204750E+04  0.00000000000E+00 0. -1.
         -1   -1    0    0    0  501 -0.00000000000E+00 -0.00000000000E+00 -0.12946362686E+02  0.12946362686E+02  0.00000000000E+00 0.  1.
         23    2    1    2    0    0 -0.22960472782E+01 -0.49125334161E+00  0.22182753910E+03  0.24058645295E+03  0.93106772442E+02 0.  0.
          5    1    1    2  502    0 -0.30895993665E+02 -0.49590955269E+00  0.81423646746E+03  0.81483329933E+03  0.41800000000E+01 0. -1.
         -5    1    1    2    0  502  0.33192040943E+02  0.98716289429E+00  0.82410105718E+02  0.88947085377E+02  0.41800000000E+01 0.  1.
        -11    1    3    3    0    0 -0.46542457218E+02  0.37845971364E+01  0.13824140588E+03  0.14591507735E+03  0.00000000000E+00 0. -1.
         11    1    3    3    0    0  0.44246409939E+02 -0.42758504780E+01  0.83586133224E+02  0.94671375596E+02  0.00000000000E+00 0.  1.
</event>
<event>
 7    1  0.6988825E-006  0.1143516E+03  0.7561462E-02  0.1252717E+00
          1   -1    0    0  501    0  0.00000000000E+00  0.00000000000E+00  0.80810247178E+02  0.80810247178E+02  0.00000000000E+00 0. -1.
         -1   -1    0    0    0  501 -0.00000000000E+00 -0.00000000000E+00 -0.30457487944E+03  0.30457487944E+03  0.00000000000E+00 0.  1.
         23    2    1    2    0    0  0.10443535377E+03 -0.72399551244E+01 -0.15553749393E+03  0.20857555878E+03  0.91393061207E+02 0.  0.
          5    1    1    2  502    0 -0.34256089311E+02 -0.77571933238E+01 -0.94007023746E+02  0.10044125953E+03  0.41800000000E+01 0. -1.
         -5    1    1    2    0  502 -0.70179264456E+02  0.14997148448E+02  0.25779885413E+02  0.76368308303E+02  0.41800000000E+01 0. -1.
        -11    1    3    3    0    0  0.21832161024E+02  0.24625788416E+02 -0.97016132157E+02  0.10244609611E+03  0.00000000000E+00 0.  1.
         11    1    3    3    0    0  0.82603192742E+02 -0.31865743541E+02 -0.58521361771E+02  0.10612946267E+03  0.00000000000E+00 0. -1.
</event>
<event>
 7    1  0.6988825E-006  0.1199253E+03  0.7561462E-02  0.1243220E+00
          1   -1    0    0  501    0  0.00000000000E+00  0.00000000000E+00  0.29520178185E+03  0.29520178185E+03  0.00000000000E+00 0. -1.
         -1   -1    0    0    0  501 -0.00000000000E+00 -0.00000000000E+00 -0.77672868133E+02  0.77672868133E+02  0.00000000000E+00 0.  1.
         23    2    1    2    0    0  0.66299194485E+01 -0.96340747591E+02  0.44969528722E+02  0.13888754097E+03  0.89117871636E+02 0.  0.
          5    1    1    2  502    0 -0.33991934095E+02  0.11502345773E+02  0.13035862364E+03  0.13527231313E+03  0.41800000000E+01 0. -1.
         -5    1    1    2    0  502  0.27362014647E+02  0.84838401818E+02  0.42200761363E+02  0.98714795893E+02  0.41800000000E+01 0. -1.
        -11    1    3    3    0    0 -0.26848273381E+02 -0.55667712087E+02 -0.10162486156E+02  0.62633857277E+02  0.00000000000E+00 0.  1.
         11    1    3    3    0    0  0.33478192829E+02 -0.40673035504E+02  0.55132014878E+02  0.76253683693E+02  0.00000000000E+00 0. -1.
</event>
<event>
 7    1  0.6988825E-006  0.1790568E+03  0.7561462E-02  0.1168719E+00
          1   -1    0    0  501    0  0.00000000000E+00  0.00000000000E+00  0.12343553345E+04  0.12343553345E+04  0.00000000000E+00 0. -1.
         -1   -1    0    0    0  501 -0.00000000000E+00 -0.00000000000E+00 -0.44270576799E+02  0.44270576799E+02  0.00000000000E+00 0.  1.
         23    2    1    2    0    0  0.10276699659E+03  0.10607196565E+03  0.18298305129E+03  0.25309482976E+03  0.93604905366E+02 0.  0.
          5    1    1    2  502    0 -0.12851333233E+03 -0.75572613972E+02  0.86941455667E+03  0.88211452789E+03  0.41800000000E+01 0. -1.
         -5    1    1    2    0  502  0.25746335736E+02 -0.30499351673E+02  0.13768714974E+03  0.14341655365E+03  0.41800000000E+01 0. -1.
        -11    1    3    3    0    0  0.16279137348E+01  0.55923316114E+02  0.31601024389E+02  0.64254899663E+02  0.00000000000E+00 0.  1.
         11    1    3    3    0    0  0.10113908286E+03  0.50148649531E+02  0.15138202690E+03  0.18883993010E+03  0.00000000000E+00 0. -1.
</event>
<event>
 7    1  0.6988825E-006  0.1275309E+03  0.7561462E-02  0.1231166E+00
         -1   -1    0    0    0  501 -0.00000000000E+00  0.00000000000E+00  0.11040704364E+03  0.11040704364E+03  0.00000000000E+00 0.  1.
          1   -1    0    0  501    0  0.00000000000E+00 -0.00000000000E+00 -0.23523300358E+03  0.23523300358E+03  0.00000000000E+00 0. -1.
         23    2    1    2    0    0  0.58539852177E+02 -0.58602298239E+02  0.34035952921E+02  0.12713506202E+03  0.90242640989E+02 0.  0.
          5    1    1    2  502    0  0.23053004440E+02  0.61928562695E+02 -0.53428507071E+02  0.85080348254E+02  0.41800000000E+01 0. -1.
         -5    1    1    2    0  502 -0.81592856617E+02 -0.33262644557E+01 -0.10543340579E+03  0.13342463694E+03  0.41800000000E+01 0. -1.
        -11    1    3    3    0    0  0.51237290591E+02 -0.33473191839E+01 -0.14363933834E+02  0.53317793353E+02  0.00000000000E+00 0. -1.
         11    1    3    3    0    0  0.73025615858E+01 -0.55254979055E+02  0.48399886755E+02  0.73817268671E+02  0.00000000000E+00 0.  1.
</event>
<event>
 7    1  0.6988825E-006  0.6058308E+02  0.7561462E-02  0.1395401E+00
          1   -1    0    0  501    0  0.00000000000E+00  0.00000000000E+00  0.28202757171E+03  0.28202757171E+03  0.00000000000E+00 0. -1.
         -1   -1    0    0    0  501 -0.00000000000E+00 -0.00000000000E+00 -0.56867892615E+02  0.56867892615E+02  0.00000000000E+00 0.  1.
         23    2    1    2    0    0  0.44068431524E+01  0.41293583115E+02  0.32363313127E+02  0.10535245031E+03  0.91253353230E+02 0.  0.
          5    1    1    2  502    0  0.15407437766E+02 -0.13141452796E+02 -0.13276318739E+02  0.24572748307E+02  0.41800000000E+01 0. -1.
         -5    1    1    2    0  502 -0.19814280918E+02 -0.28152130319E+02  0.20607268470E+03  0.20897026571E+03  0.41800000000E+01 0. -1.
        -11    1    3    3    0    0  0.16156206611E+02  0.49109145103E+02 -0.16677375677E+02  0.54321874086E+02  0.00000000000E+00 0.  1.
         11    1    3    3    0    0 -0.11749363459E+02 -0.78155619876E+01  0.49040688804E+02  0.51030576219E+02  0.00000000000E+00 0. -1.
</event>
<event>
 7    1  0.6988825E-006  0.6447569E+02  0.7561462E-02  0.1379955E+00
         -1   -1    0    0    0  501 -0.00000000000E+00  0.00000000000E+00  0.24391788761E+03  0.24391788761E+03  0.00000000000E+00 0.  1.
          1   -1    0    0  501    0  0.00000000000E+00 -0.00000000000E+00 -0.68064401847E+02  0.68064401847E+02  0.00000000000E+00 0. -1.
         23    2    1    2    0    0 -0.15438150410E+02  0.13682030064E+02  0.15399233926E+03  0.18332704450E+03  0.97312025266E+02 0.  0.
          5    1    1    2  502    0 -0.12459020268E+02 -0.60998364661E+01 -0.49484423073E+02  0.51561766046E+02  0.41800000000E+01 0. -1.
         -5    1    1    2    0  502  0.27897170678E+02 -0.75821935979E+01  0.71345569580E+02  0.77093478909E+02  0.41800000000E+01 0. -1.
        -11    1    3    3    0    0  0.34255533897E+02  0.27081390226E+01  0.11260499597E+03  0.11773130737E+03  0.00000000000E+00 0.  1.
         11    1    3    3    0    0 -0.49693684307E+02  0.10973891041E+02  0.41387343290E+02  0.65595737127E+02  0.00000000000E+00 0. -1.
</event>
<event>
 7    1  0.6988825E-006  0.1188574E+03  0.7561462E-02  0.1244994E+00
          3   -1    0    0  501    0  0.00000000000E+00  0.00000000000E+00  0.71084996281E+02  0.71084996281E+02  0.00000000000E+00 0. -1.
         -3   -1    0    0    0  501 -0.00000000000E+00 -0.00000000000E+00 -0.46062000037E+03  0.46062000037E+03  0.00000000000E+00 0.  1.
         23    2    1    2    0    0 -0.11004591297E+03 -0.86761353974E+01 -0.31974308033E+03  0.35086766521E+03  0.93204628556E+02 0.  0.
          5    1    1    2  502    0  0.61182777171E+02 -0.12232754299E+01  0.30691467115E+02  0.68587660543E+02  0.41800000000E+01 0. -1.
         -5    1    1    2    0  502  0.48863135800E+02  0.98994108273E+01 -0.10048339087E+03  0.11224967090E+03  0.41800000000E+01 0. -1.
        -11    1    3    3    0    0 -0.90689886998E+02 -0.31879233599E+02 -0.14794945541E+03  0.17643690797E+03  0.00000000000E+00 0. -1.
         11    1    3    3    0    0 -0.19356025973E+02  0.23203098202E+02 -0.17179362492E+03  0.17443075724E+03  0.00000000000E+00 0.  1.
</event>
<event>
 7    1  0.6988825E-006  0.1060569E+03  0.7561462E-02  0.1268051E+00
          1   -1    0    0  501    0  0.00000000000E+00  0.00000000000E+00  0.47305767135E+03  0.47305767135E+03  0.00000000000E+00 0. -1.
         -1   -1    0    0    0  501 -0.00000000000E+00 -0.00000000000E+00 -0.36945839690E+02  0.36945839690E+02  0.00000000000E+00 0.  1.
         23    2    1    2    0    0  0.26010850001E+01  0.73523102583E+02  0.14865000238E+03  0.19098416805E+03  0.94687470033E+02 0.  0.
          5    1    1    2  502    0 -0.19365271780E+02 -0.95507740390E+02  0.26731763612E+03  0.28455743394E+03  0.41800000000E+01 0. -1.
         -5    1    1    2    0  502  0.16764186780E+02  0.21984637806E+02  0.20144193162E+02  0.34461909059E+02  0.41800000000E+01 0.  1.
        -11    1    3    3    0    0  0.23359332903E+02  0.27224626687E+02  0.21392571541E+01  0.35936265152E+02  0.00000000000E+00 0.  1.
         11    1    3    3    0    0 -0.20758247903E+02  0.46298475897E+02  0.14651074522E+03  0.15504790289E+03  0.00000000000E+00 0. -1.
</event>
<event>
 7    1  0.6988825E-006  0.1363332E+03  0.7561462E-02  0.1218350E+00
         -1   -1    0    0    0  501 -0.00000000000E+00  0.00000000000E+00  0.56836603926E+03  0.56836603926E+03  0.00000000000E+00 0.  1.
          1   -1    0    0  501    0  0.00000000000E+00 -0.00000000000E+00 -0.43084816244E+02  0.43084816244E+02  0.00000000000E+00 0. -1.
         23    2    1    2    0    0 -0.10201065464E+03  0.11747486100E+02  0.32000517708E+03  0.35005082487E+03  0.97918790583E+02 0.  0.
          5    1    1    2  502    0  0.75741122710E+02  0.45111258634E+02  0.71342207744E+02  0.11348535734E+03  0.41800000000E+01 0. -1.
         -5    1    1    2    0  502  0.26269531932E+02 -0.56858744733E+02  0.13393383820E+03  0.14791467329E+03  0.41800000000E+01 0. -1.
        -11    1    3    3    0    0 -0.87575328911E+02  0.34965113862E+02  0.30418131926E+03  0.31846235635E+03  0.00000000000E+00 0.  1.
         11    1    3    3    0    0 -0.14435325731E+02 -0.23217627762E+02  0.15823857814E+02  0.31588468528E+02  0.00000000000E+00 0. -1.
</event>
<event>
 7    1  0.6988825E-006  0.1225457E+03  0.7561462E-02  0.1238956E+00
          2   -1    0    0  501    0  0.00000000000E+00  0.00000000000E+00  0.23757271413E+04  0.23757271413E+04  0.00000000000E+00 0.  1.
         -2   -1    0    0    0  501 -0.00000000000E+00 -0.00000000000E+00 -0.97084750874E+01  0.97084750874E+01  0.00000000000E+00 0. -1.
         23    2    1    2    0    0 -0.80099883337E+02 -0.15539182068E+02  0.57051449228E+03  0.58373109970E+03  0.92724071103E+02 0.  0.
          5    1    1    2  502    0 -0.17210429451E+01  0.39916030111E+02  0.20463541631E+03  0.20854106900E+03  0.41800000000E+01 0. -1.
         -5    1    1    2    0  502  0.81820926282E+02 -0.24376848044E+02  0.15908687577E+04  0.15931634477E+04  0.41800000000E+01 0. -1.
        -11    1    3    3    0    0 -0.93898891908E+02 -0.30844899375E+02  0.51747231050E+03  0.52682634886E+03  0.00000000000E+00 0.  1.
         11    1    3    3    0    0  0.13799008571E+02  0.15305717307E+02  0.53042181782E+02  0.56904750839E+02  0.00000000000E+00 0. -1.
</event>
<event>
 7    1  0.6988825E-006  0.1010624E+03  0.7561462E-02  0.1278078E+00
          1   -1    0    0  501    0  0.00000000000E+00  0.00000000000E+00  0.19388613766E+03  0.19388613766E+03  0.00000000000E+00 0. -1.
         -1   -1    0    0    0  501 -0.00000000000E+00 -0.00000000000E+00 -0.92271359093E+02  0.92271359093E+02  0.00000000000E+00 0.  1.
         23    2    1    2    0    0  0.40432785353E+02  0.48001283849E+02 -0.12225865219E+01  0.11245804566E+03  0.93308005729E+02 0.  0.
          5    1    1    2  502    0 -0.60422035520E+02 -0.21096180325E+02  0.11981087112E+03  0.13589697730E+03  0.41800000000E+01 0.  1.
         -5    1    1    2    0  502  0.19989250167E+02 -0.26905103524E+02 -0.16973506032E+02  0.37802473793E+02  0.41800000000E+01 0.  1.
        -11    1    3    3    0    0 -0.24645192259E+02  0.24306208957E+01  0.18125253963E+02  0.30689057507E+02  0.00000000000E+00 0. -1.
         11    1    3    3    0    0  0.65077977612E+02  0.45570662953E+02 -0.19347840485E+02  0.81768988152E+02  0.00000000000E+00 0.  1.
</event>
<event>
 7    1  0.6988825E-006  0.3705302E+03  0.7561462E-02  0.1054490E+00
         -2   -1    0    0    0  501 -0.00000000000E+00  0.00000000000E+00  0.13977401279E+03  0.13977401279E+03  0.00000000000E+00 0.  1.
          2   -1    0    0  501    0  0.00000000000E+00 -0.00000000000E+00 -0.11396668908E+04  0.11396668908E+04  0.00000000000E+00 0. -1.
         23    2    1    2    0    0  0.27844020973E+03  0.22790158647E+03 -0.27971700161E+03  0.46472836428E+03  0.90899769348E+02 0.  0.
          5    1    1    2  502    0 -0.10022664082E+03 -0.25735786904E+02 -0.13247018230E+03  0.16814735161E+03  0.41800000000E+01 0.  1.
         -5    1    1    2    0  502 -0.17821356891E+03 -0.20216579956E+03 -0.58770569406E+03  0.64656518765E+03  0.41800000000E+01 0.  1.
        -11    1    3    3    0    0  0.10727201879E+03  0.41834498194E+02 -0.60327454327E+02  0.12998774173E+03  0.00000000000E+00 0.  1.
         11    1    3    3    0    0  0.17116819094E+03  0.18606708827E+03 -0.21938954728E+03  0.33474062255E+03  0.00000000000E+00 0. -1.
</event>
<event>
 7    1  0.6988825E-006  0.1585529E+03  0.7561462E-02  0.1190340E+00
         -1   -1    0    0    0  501 -0.00000000000E+00  0.00000000000E+00  0.49690197624E+02  0.49690197624E+02  0.00000000000E+00 0.  1.
          1   -1    0    0  501    0  0.00000000000E+00 -0.00000000000E+00 -0.53218563066E+03  0.53218563066E+03  0.00000000000E+00 0. -1.
         23    2    1    2    0    0 -0.14242656129E+02  0.11871073149E+03 -0.24987314929E+03  0.29194885091E+03  0.92208729436E+02 0.  0.
          5    1    1    2  502    0 -0.22236521636E+02 -0.13197268130E+03 -0.18429707954E+03  0.22780284773E+03  0.41800000000E+01 0. -1.
         -5    1    1    2    0  502  0.36479177764E+02  0.13261949812E+02 -0.48325204200E+02  0.62124129645E+02  0.41800000000E+01 0. -1.
        -11    1    3    3    0    0  0.24957454487E+02  0.95290382095E+02 -0.12605041392E+03  0.15997449266E+03  0.00000000000E+00 0. -1.
         11    1    3    3    0    0 -0.39200110616E+02  0.23420349398E+02 -0.12382273538E+03  0.13197435825E+03  0.00000000000E+00 0.  1.
</event>
<event>
 7    1  0.6988825E-006  0.5785038E+02  0.7561462E-02  0.1407081E+00
          2   -1    0    0  501    0  0.00000000000E+00  0.00000000000E+00  0.24295649417E+03  0.24295649417E+03  0.00000000000E+00 0. -1.
         -2   -1    0    0    0  501 -0.00000000000E+00 -0.00000000000E+00 -0.53234124547E+02  0.53234124547E+02  0.00000000000E+00 0.  1.
         23    2    1    2    0    0 -0.12746204740E+02 -0.41859804337E+01  0.38929810095E+02  0.99810009261E+02  0.90920402920E+02 0.  0.
          5    1    1    2  502    0  0.45689416103E+01  0.24382010101E+02  0.16701335052E+03  0.16889727439E+03  0.41800000000E+01 0.  1.
         -5    1    1    2    0  502  0.81772631296E+01 -0.20196029667E+02 -0.16220790986E+02  0.27483335074E+02  0.41800000000E+01 0.  1.
        -11    1    3    3    0    0  0.12987138350E+02 -0.29518093228E+02 -0.14470643582E+02  0.35346613926E+02  0.00000000000E+00 0.  1.
         11    1    3    3    0    0 -0.25733343090E+02  0.25332112794E+02  0.53400453677E+02  0.64463395335E+02  0.00000000000E+00 0. -1.
</event>
<event>
 7    1  0.6988825E-006  0.2361772E+03  0.7561462E-02  0.1122366E+00
         -2   -1    0    0    0  501 -0.00000000000E+00  0.00000000000E+00  0.75457014777E+02  0.75457014777E+02  0.00000000000E+00 0. -1.
          2   -1    0    0  501    0  0.00000000000E+00 -0.00000000000E+00 -0.84106888702E+03  0.84106888702E+03  0.00000000000E+00 0.  1.
         23    2    1    2    0    0 -0.15493910196E+03  0.16565109463E+03 -0.36098937253E+03  0.43609616523E+03  0.91761254246E+02 0.  0.
          5    1    1    2  502    0  0.85659820723E+02 -0.61981125938E+02 -0.29830114357E+03  0.31651273199E+03  0.41800000000E+01 0. -1.
         -5    1    1    2    0  502  0.69279281241E+02 -0.10366996869E+03 -0.10632135615E+03  0.16391700458E+03  0.41800000000E+01 0. -1.
        -11    1    3    3    0    0 -0.75449532190E+02  0.23690537748E+02 -0.88112235844E+02  0.11839611308E+03  0.00000000000E+00 0.  1.
         11    1    3    3    0    0 -0.79489569774E+02  0.14196055688E+03 -0.27287713668E+03  0.31770005215E+03  0.00000000000E+00 0. -1.
</event>
<event>
 7    1  0.6988825E-006  0.2114246E+03  0.7561462E-02  0.1140443E+00
          2   -1    0    0  501    0  0.00000000000E+00  0.00000000000E+00  0.28807339409E+03  0.28807339409E+03  0.00000000000E+00 0. -1.
         -2   -1    0    0    0  501 -0.00000000000E+00 -0.00000000000E+00 -0.21800131455E+03  0.21800131455E+03  0.00000000000E+00 0.  1.
         23    2    1    2    0    0  0.19140614996E+03  0.66170300293E+02 -0.66197295918E+02  0.23179208475E+03  0.91272480422E+02 0.  0.
          5    1    1    2  502    0 -0.32617326002E+02  0.21069413989E+02  0.72164276467E+02  0.82054648616E+02  0.41800000000E+01 0. -1.
         -5    1    1    2    0  502 -0.15878882396E+03 -0.87239714283E+02  0.64105098985E+02  0.19222797527E+03  0.41800000000E+01 0. -1.
        -11    1    3    3    0    0  0.15100109499E+03  0.50263306292E+02 -0.89421197232E+02  0.18254829816E+03  0.00000000000E+00 0.  1.
         11    1    3    3    0    0  0.40405054969E+02  0.15906994001E+02  0.23223901313E+02  0.49243786587E+02  0.00000000000E+00 0. -1.
</event>
<event>
 7    1  0.6988825E-006  0.1375754E+03  0.7561462E-02  0.1216629E+00
          2   -1    0    0  501    0  0.00000000000E+00  0.00000000000E+00  0.13142092878E+03  0.13142092878E+03  0.00000000000E+00 0. -1.
         -2   -1    0    0    0  501 -0.00000000000E+00 -0.00000000000E+00 -0.17991063139E+03  0.17991063139E+03  0.00000000000E+00 0.  1.
         23    2    1    2    0    0 -0.10454220141E+03  0.10542318869E+02 -0.33886756254E+02  0.14731236979E+03  0.97531582996E+02 0.  0.
          5    1    1    2  502    0  0.10063493262E+03  0.18580086809E+02 -0.53133630983E+02  0.11538312022E+03  0.41800000000E+01 0.  1.
         -5    1    1    2    0  502  0.39072687879E+01 -0.29122405677E+02  0.38530684635E+02  0.48636070157E+02  0.41800000000E+01 0.  1.
        -11    1    3    3    0    0 -0.22822700622E+02  0.48004407076E+02 -0.79214089552E+01  0.53740557145E+02  0.00000000000E+00 0. -1.
         11    1    3    3    0    0 -0.81719500789E+02 -0.37462088207E+02 -0.25965347299E+02  0.93571812649E+02  0.00000000000E+00 0.  1.
</event>
<event>
 7    1  0.6988825E-006  0.1021673E+03  0.7561462E-02  0.1275803E+00
         -2   -1    0    0    0  501 -0.00000000000E+00  0.00000000000E+00  0.14631594941E+03  0.14631594941E+03  0.00000000000E+00 0.  1.
          2   -1    0    0  501    0  0.00000000000E+00 -0.00000000000E+00 -0.10461019925E+03  0.10461019925E+03  0.00000000000E+00 0. -1.
         23    2    1    2    0    0  0.61444796525E+02 -0.23855031887E+01  0.33852290056E+02  0.11131718946E+03  0.86396675173E+02 0.  0.
          5    1    1    2  502    0 -0.82203767353E+01  0.49404930239E+02  0.37327082078E+02  0.62603555666E+02  0.41800000000E+01 0.  1.
         -5    1    1    2    0  502 -0.53224419790E+02 -0.47019427051E+02 -0.29473621967E+02  0.77005403538E+02  0.41800000000E+01 0.  1.
        -11    1    3    3    0    0  0.45814484176E+02  0.24411491946E+02 -0.14472408801E+02  0.53891915125E+02  0.00000000000E+00 0. -1.
         11    1    3    3    0    0  0.15630312349E+02 -0.26796995135E+02  0.48324698857E+02  0.57425274331E+02  0.00000000000E+00 0.  1.
</event>
<event>
 7    1  0.1044392E-005  0.2118382E+03  0.7561462E-02  0.1140119E+00
         -2   -1    0    0    0  501 -0.00000000000E+00  0.00000000000E+00  0.10407935414E+03  0.10407935414E+03  0.00000000000E+00 0.  1.
          2   -1    0    0  501    0  0.00000000000E+00 -0.00000000000E+00 -0.52675934446E+03  0.52675934446E+03  0.00000000000E+00 0. -1.
         23    2    1    2    0    0  0.14202957791E+03  0.14906125753E+03 -0.17461554556E+03  0.28504248471E+03  0.91471142114E+02 0.  0.
          5    1    1    2  502    0 -0.14062948133E+03 -0.12796796161E+03 -0.25924109580E+03  0.32152117873E+03  0.41800000000E+01 0.  1.
         -5    1    1    2    0  502 -0.14000965785E+01 -0.21093295925E+02  0.11176651041E+02  0.24275035157E+02  0.41800000000E+01 0.  1.
        -11    1    3    3    0    0  0.93672280936E+02  0.61932397389E+02 -0.14017860973E+03  0.17961113743E+03  0.00000000000E+00 0.  1.
         11    1    3    3    0    0  0.48357296976E+02  0.87128860141E+02 -0.34436935830E+02  0.10543134728E+03  0.00000000000E+00 0. -1.
</event>
<event>
 7    1  0.6988825E-006  0.2076362E+03  0.7561462E-02  0.1143452E+00
          3   -1    0    0  501    0  0.00000000000E+00  0.00000000000E+00  0.10477838702E+04  0.10477838702E+04  0.00000000000E+00 0. -1.
         -3   -1    0    0    0  501 -0.00000000000E+00 -0.00000000000E+00 -0.52945839528E+02  0.52945839528E+02  0.00000000000E+00 0.  1.
         23    2    1    2    0    0 -0.17129466456E+03  0.80465415264E+02  0.27448215678E+03  0.34559214912E+03  0.90977656503E+02 0.  0.
          5    1    1    2  502    0 -0.45524340463E+01 -0.17633575947E+02  0.22438258173E+03  0.22515923929E+03  0.41800000000E+01 0.  1.
         -5    1    1    2    0  502  0.17584709861E+03 -0.62831839316E+02  0.49597329214E+03  0.52997832129E+03  0.41800000000E+01 0.  1.
        -11    1    3    3    0    0 -0.13852172131E+03  0.10072915079E+03  0.21839205658E+03  0.27754228411E+03  0.00000000000E+00 0.  1.
         11    1    3    3    0    0 -0.32772943250E+02 -0.20263735530E+02  0.56090100200E+02  0.68049865006E+02  0.00000000000E+00 0. -1.
</event>
<event>
 7    1  0.6988825E-006  0.1946279E+03  0.7561462E-02  0.1154352E+00
         -2   -1    0    0    0  501 -0.00000000000E+00  0.00000000000E+00  0.13074360425E+03  0.13074360425E+03  0.00000000000E+00 0.  1.
          2   -1    0    0  501    0  0.00000000000E+00 -0.00000000000E+00 -0.35603068490E+03  0.35603068490E+03  0.00000000000E+00 0. -1.
         23    2    1    2    0    0  0.18636279181E+03 -0.10718751337E+02 -0.13875381573E+03  0.24596456718E+03  0.79999782066E+02 0.  0.
          5    1    1    2  502    0 -0.38806980671E+02  0.14465744020E+02 -0.83288927179E+02  0.93111531453E+02  0.41800000000E+01 0. -1.
         -5    1    1    2    0  502 -0.14755581114E+03 -0.37469926828E+01 -0.32443377455E+01  0.14769819051E+03  0.41800000000E+01 0. -1.
        -11    1    3    3    0    0  0.24257635395E+02 -0.27880672237E+02 -0.10131439038E+02  0.38319848856E+02  0.00000000000E+00 0.  1.
         11    1    3    3    0    0  0.16210515641E+03  0.17161920900E+02 -0.12862237669E+03  0.20764471833E+03  0.00000000000E+00 0. -1.
</event>
<event>
 7    1  0.6988825E-006  0.1159405E+03  0.7561462E-02  0.1249948E+00
          2   -1    0    0  501    0  0.00000000000E+00  0.00000000000E+00  0.54628635298E+03  0.54628635298E+03  0.00000000000E+00 0. -1.
         -2   -1    0    0    0  501 -0.00000000000E+00 -0.00000000000E+00 -0.31946945152E+02  0.31946945152E+02  0.00000000000E+00 0.  1.
         23    2    1    2    0    0  0.17473723957E+02  0.68877872975E+02  0.17468553277E+03  0.20936701682E+03  0.90939650101E+02 0.  0.
          5    1    1    2  502    0 -0.44579241132E+02 -0.95593440019E+02  0.24654097483E+03  0.26818899900E+03  0.41800000000E+01 0.  1.
         -5    1    1    2    0  502  0.27105517175E+02  0.26715567044E+02  0.93112900233E+02  0.10067728231E+03  0.41800000000E+01 0.  1.
        -11    1    3    3    0    0  0.36111090407E+02  0.47610263860E+02  0.40387758215E+02  0.72124330769E+02  0.00000000000E+00 0.  1.
         11    1    3    3    0    0 -0.18637366450E+02  0.21267609115E+02  0.13429777455E+03  0.13724268605E+03  0.00000000000E+00 0. -1.
</event>
<event>
 7    1  0.6988825E-006  0.1490503E+03  0.7561462E-02  0.1201645E+00
         -1   -1    0    0    0  501 -0.00000000000E+00  0.00000000000E+00  0.59432077067E+02  0.59432077067E+02  0.00000000000E+00 0.  1.
          1   -1    0    0  501    0  0.00000000000E+00 -0.00000000000E+00 -0.59824943835E+03  0.59824943835E+03  0.00000000000E+00 0. -1.
         23    2    1    2    0    0  0.83465042503E+02 -0.93102242730E+02 -0.99788733639E+02  0.18436578440E+03  0.91643385881E+02 0.  0.
          5    1    1    2  502    0 -0.52846138467E+02 -0.14476165083E+02 -0.22700324142E+03  0.23355988037E+03  0.41800000000E+01 0.  1.
         -5    1    1    2    0  502 -0.30618904036E+02  0.10757840781E+03 -0.21202538623E+03  0.23975585064E+03  0.41800000000E+01 0.  1.
        -11    1    3    3    0    0  0.45675742277E+02 -0.21997782442E+02 -0.89938577098E+02  0.10324303132E+03  0.00000000000E+00 0. -1.
         11    1    3    3    0    0  0.37789300226E+02 -0.71104460289E+02 -0.98501565408E+01  0.81122753087E+02  0.00000000000E+00 0.  1.
</event>
<event>
 7    1  0.6988825E-006  0.1808984E+03  0.7561462E-02  0.1166936E+00
          1   -1    0    0  501    0  0.00000000000E+00  0.00000000000E+00  0.79122835171E+03  0.79122835171E+03  0.00000000000E+00 0. -1.
         -1   -1    0    0    0  501 -0.00000000000E+00 -0.00000000000E+00 -0.57076551827E+02  0.57076551827E+02  0.00000000000E+00 0.  1.
         23    2    1    2    0    0 -0.16862498221E+03 -0.60142933421E+02  0.28281027863E+03  0.34689794884E+03  0.91131641846E+02 0.  0.
          5    1    1    2  502    0  0.11488060581E+03  0.54370097427E+02  0.41990224479E+03  0.43873571620E+03  0.41800000000E+01 0.  1.
         -5    1    1    2    0  502  0.53744376406E+02  0.57728359939E+01  0.31439276464E+02  0.62671238501E+02  0.41800000000E+01 0.  1.
        -11    1    3    3    0    0 -0.25075924448E+02 -0.81200996241E+00  0.99143138573E+00  0.25108649571E+02  0.00000000000E+00 0. -1.
         11    1    3    3    0    0 -0.14354905777E+03 -0.59330923458E+02  0.28181884724E+03  0.32178929927E+03  0.00000000000E+00 0.  1.
</event>
<event>
 7    1  0.6988825E-006  0.1033235E+03  0.7561462E-02  0.1273458E+00
         -1   -1    0    0    0  501 -0.00000000000E+00  0.00000000000E+00  0.95059607120E+02  0.95059607120E+02  0.00000000000E+00 0.  1.
          1   -1    0    0  501    0  0.00000000000E+00 -0.00000000000E+00 -0.12403895567E+03  0.12403895567E+03  0.00000000000E+00 0. -1.
         23    2    1    2    0    0  0.14316654272E+01 -0.22535065631E+01 -0.84747660685E+01  0.92298304069E+02  0.91869621292E+02 0.  0.
          5    1    1    2  502    0  0.15714732240E+02 -0.59071893925E+02 -0.11796123844E+02  0.62394409998E+02  0.41800000000E+01 0. -1.
         -5    1    1    2    0  502 -0.17146397667E+02  0.61325400488E+02 -0.87084586360E+01  0.64405848723E+02  0.41800000000E+01 0. -1.
        -11    1    3    3    0    0 -0.24725159377E+02 -0.32975032085E+02  0.16997132661E+02  0.44582381788E+02  0.00000000000E+00 0.  1.
         11    1    3    3    0    0  0.26156824804E+02  0.30721525522E+02 -0.25471898729E+02  0.47715922281E+02  0.00000000000E+00 0. -1.
</event>
<event>
 7    1  0.6988825E-006  0.2371121E+03  0.7561462E-02  0.1121732E+00
          1   -1    0    0  501    0  0.00000000000E+00  0.00000000000E+00  0.17595612099E+03  0.17595612099E+03  0.00000000000E+00 0. -1.
         -1   -1    0    0    0  501 -0.00000000000E+00 -0.00000000000E+00 -0.37684479327E+03  0.37684479327E+03  0.00000000000E+00 0.  1.
         23    2    1    2    0    0  0.18315494306E+03 -0.12755436905E+03 -0.17078855152E+03  0.29518063769E+03  0.90260895770E+02 0.  0.
          5    1    1    2  502    0  0.82163411569E+01  0.63666842677E+01  0.22415131794E+02  0.25058999659E+02  0.41800000000E+01 0.  1.
         -5    1    1    2    0  502 -0.19137128422E+03  0.12118768478E+03 -0.52515252558E+02  0.23256127691E+03  0.41800000000E+01 0.  1.
        -11    1    3    3    0    0  0.13752393475E+03 -0.49707549667E+02 -0.77930010905E+02  0.16570081388E+03  0.00000000000E+00 0. -1.
         11    1    3    3    0    0  0.45631008314E+02 -0.77846819383E+02 -0.92858540611E+02  0.12947982380E+03  0.00000000000E+00 0.  1.
</event>
<event>
 7    1  0.6988825E-006  0.1185896E+03  0.7561462E-02  0.1245442E+00
          1   -1    0    0  501    0  0.00000000000E+00  0.00000000000E+00  0.90622299944E+02  0.90622299944E+02  0.00000000000E+00 0. -1.
         -1   -1    0    0    0  501 -0.00000000000E+00 -0.00000000000E+00 -0.20180503009E+03  0.20180503009E+03  0.00000000000E+00 0.  1.
         23    2    1    2    0    0 -0.60397810379E+02 -0.53711754457E+02 -0.37392191416E+02  0.12621519320E+03  0.89438531690E+02 0.  0.
          5    1    1    2  502    0 -0.22094139019E+02 -0.49067734136E+01  0.18235915700E+02  0.29364066914E+02  0.41800000000E+01 0.  1.
         -5    1    1    2    0  502  0.82491949398E+02  0.58618527870E+02 -0.92026454428E+02  0.13684806992E+03  0.41800000000E+01 0.  1.
        -11    1    3    3    0    0 -0.78926990296E+02 -0.34342850184E+02 -0.80154209966E+01  0.86447372023E+02  0.00000000000E+00 0. -1.
         11    1    3    3    0    0  0.18529179916E+02 -0.19368904272E+02 -0.29376770420E+02  0.39767821180E+02  0.00000000000E+00 0.  1.
</event>
<event>
 7    1  0.6988825E-006  0.9544725E+02  0.7561462E-02  0.1290172E+00
         -1   -1    0    0    0  501 -0.00000000000E+00  0.00000000000E+00  0.71270931082E+02  0.71270931082E+02  0.00000000000E+00 0.  1.
          1   -1    0    0  501    0  0.00000000000E+00 -0.00000000000E+00 -0.28317396645E+03  0.28317396645E+03  0.00000000000E+00 0. -1.
         23    2    1    2    0    0  0.88558106423E+02  0.24423217807E+02 -0.85500274846E+02  0.15421178042E+03  0.89621116048E+02 0.  0.
          5    1    1    2  502    0 -0.11182617411E+02 -0.16734841846E+01 -0.11847429609E+03  0.11908603073E+03  0.41800000000E+01 0. -1.
         -5    1    1    2    0  502 -0.77375489013E+02 -0.22749733623E+02 -0.79284644382E+01  0.81147086381E+02  0.41800000000E+01 0. -1.
        -11    1    3    3    0    0  0.47897829668E+02 -0.46094280276E+01 -0.92005051552E+02  0.10382860119E+03  0.00000000000E+00 0. -1.
         11    1    3    3    0    0  0.40660276755E+02  0.29032645835E+02  0.65047767060E+01  0.50383179237E+02  0.00000000000E+00 0.  1.
</event>
<event>
 7    1  0.6988825E-006  0.1280606E+03  0.7561462E-02  0.1230362E+00
          1   -1    0    0  501    0  0.00000000000E+00  0.00000000000E+00  0.12700873905E+04  0.12700873905E+04  0.00000000000E+00 0. -1.
         -1   -1    0    0    0  501 -0.00000000000E+00 -0.00000000000E+00 -0.14684370720E+02  0.14684370720E+02  0.00000000000E+00 0.  1.
         23    2    1    2    0    0  0.17323649556E+02 -0.76937529772E+02  0.45587811252E+03  0.47168667195E+03  0.91891080618E+02 0.  0.
          5    1    1    2  502    0 -0.65536279770E+02  0.69843030111E+02  0.44554856832E+03  0.45574560004E+03  0.41800000000E+01 0. -1.
         -5    1    1    2    0  502  0.48212630215E+02  0.70944996602E+01  0.35397633891E+03  0.35733948921E+03  0.41800000000E+01 0. -1.
        -11    1    3    3    0    0 -0.18946165310E+02 -0.72343882358E+02  0.38207188702E+03  0.38932187370E+03  0.00000000000E+00 0. -1.
         11    1    3    3    0    0  0.36269814866E+02 -0.45936474133E+01  0.73806225502E+02  0.82364798244E+02  0.00000000000E+00 0.  1.
</event>
<event>
 7    1  0.6988825E-006  0.1050727E+03  0.7561462E-02  0.1269976E+00
          2   -1    0    0  501    0  0.00000000000E+00  0.00000000000E+00  0.88974063842E+03  0.88974063842E+03  0.00000000000E+00 0. -1.
         -2   -1    0    0    0  501 -0.00000000000E+00 -0.00000000000E+00 -0.14236820704E+02  0.14236820704E+02  0.00000000000E+00 0.  1.
         23    2    1    2    0    0  0.18612590668E+02  0.88170339077E+01  0.23574608741E+03  0.25177929163E+03  0.85979214630E+02 0.  0.
          5    1    1    2  502    0 -0.51056461980E+02 -0.51411541000E+02  0.39575402500E+03  0.40235386112E+03  0.41800000000E+01 0.  1.
         -5    1    1    2    0  502  0.32443871312E+02  0.42594507092E+02  0.24400370530E+03  0.24984430636E+03  0.41800000000E+01 0.  1.
        -11    1    3    3    0    0  0.18575632694E+02  0.44478128192E+02  0.17319044195E+03  0.17977287671E+03  0.00000000000E+00 0. -1.
         11    1    3    3    0    0  0.36957973477E-01 -0.35661094284E+02  0.62555645463E+02  0.72006414928E+02  0.00000000000E+00 0.  1.
</event>
<event>
 7    1  0.6988825E-006  0.1085074E+03  0.7561462E-02  0.1263359E+00
          1   -1    0    0  501    0  0.00000000000E+00  0.00000000000E+00  0.45063149909E+03  0.45063149909E+03  0.00000000000E+00 0. -1.
         -1   -1    0    0    0  501 -0.00000000000E+00 -0.00000000000E+00 -0.32233945366E+02  0.32233945366E+02  0.00000000000E+00 0.  1.
         23    2    1    2    0    0 -0.47558232729E+02 -0.19145035064E+02  0.18658844897E+03  0.21451557129E+03  0.92592457404E+02 0.  0.
          5    1    1    2  502    0  0.16831872107E+02 -0.44826466144E+02  0.16095923460E+03  0.16798235499E+03  0.41800000000E+01 0. -1.
         -5    1    1    2    0  502  0.30726360622E+02  0.63971501208E+02  0.70849870149E+02  0.10036751817E+03  0.41800000000E+01 0. -1.
        -11    1    3    3    0    0 -0.13933406173E+02 -0.50193846557E+02  0.57666760468E+02  0.77711114409E+02  0.00000000000E+00 0.  1.
         11    1    3    3    0    0 -0.33624826556E+02  0.31048811492E+02  0.12892168850E+03  0.13680445688E+03  0.00000000000E+00 0. -1.
</event>
<event>
 7    1  0.6988825E-006  0.8094883E+02  0.7561462E-02  0.1326380E+00
          1   -1    0    0  501    0  0.00000000000E+00  0.00000000000E+00  0.15509001320E+03  0.15509001320E+03  0.00000000000E+00 0. -1.
         -1   -1    0    0    0  501 -0.00000000000E+00 -0.00000000000E+00 -0.89382961360E+02  0.89382961360E+02  0.00000000000E+00 0.  1.
         23    2    1    2    0    0 -0.37140382615E+02 -0.22336841151E+02  0.32698918917E+02  0.10804998536E+03  0.93419684990E+02 0.  0.
          5    1    1    2  502    0  0.17634145027E+02  0.33178595751E+02 -0.42906433586E+02  0.57185808815E+02  0.41800000000E+01 0. -1.
         -5    1    1    2    0  502  0.19506237588E+02 -0.10841754600E+02  0.75914566509E+02  0.79237180388E+02  0.41800000000E+01 0. -1.
        -11    1    3    3    0    0  0.16237851905E+01 -0.52342042663E+02  0.74030355981E+01  0.52887910192E+02  0.00000000000E+00 0.  1.
         11    1    3    3    0    0 -0.38764167806E+02  0.30005201512E+02  0.25295883318E+02  0.55162075163E+02  0.00000000000E+00 0. -1.
</event>
<event>
 7    1  0.7748350E-006  0.2196461E+03  0.7561462E-02  0.1134147E+00
         -1   -1    0    0    0  501 -0.00000000000E+00  0.00000000000E+00  0.11222448521E+03  0.11222448521E+03  0.00000000000E+00 0.  1.
          1   -1    0    0  501    0  0.00000000000E+00 -0.00000000000E+00 -0.52951670214E+03  0.52951670214E+03  0.00000000000E+00 0. -1.
         23    2    1    2    0    0 -0.97364693198E+02  0.19238533523E+03 -0.16958777295E+03  0.29031956864E+03  0.95044402815E+02 0.  0.
          5    1    1    2  502    0  0.67781103322E+02 -0.15002555712E+03 -0.25019221121E+03  0.29952555936E+03  0.41800000000E+01 0.  1.
         -5    1    1    2    0  502  0.29583589875E+02 -0.42359778102E+02  0.24877672423E+01  0.51896059355E+02  0.41800000000E+01 0.  1.
        -11    1    3    3    0    0 -0.58482007885E+02  0.56050482032E+02 -0.10982395873E+03  0.13646649294E+03  0.00000000000E+00 0.  1.
         11    1    3    3    0    0 -0.38882685312E+02  0.13633485319E+03 -0.59763814220E+02  0.15385307570E+03  0.00000000000E+00 0. -1.
</event>
<event>
 7    1  0.6988825E-006  0.1054789E+03  0.7561462E-02  0.1269179E+00
          2   -1    0    0  501    0  0.00000000000E+00  0.00000000000E+00  0.20822384972E+03  0.20822384972E+03  0.00000000000E+00 0. -1.
         -2   -1    0    0    0  501 -0.00000000000E+00 -0.00000000000E+00 -0.68150913929E+02  0.68150913929E+02  0.00000000000E+00 0.  1.
         23    2    1    2    0    0  0.10489810575E+02  0.48876235328E+02  0.43517779937E+02  0.11063496115E+03  0.88585410492E+02 0.  0.
          5    1    1    2  502    0  0.12904717907E+02  0.34343875818E+02  0.62783337939E+02  0.72837170959E+02  0.41800000000E+01 0.  1.
         -5    1    1    2    0  502 -0.23394528481E+02 -0.83220111146E+02  0.33771817914E+02  0.92902631541E+02  0.41800000000E+01 0.  1.
        -11    1    3    3    0    0  0.46285249591E+01  0.67654932470E+02  0.55475528570E+02  0.87613625658E+02  0.00000000000E+00 0.  1.
         11    1    3    3    0    0  0.58612856155E+01 -0.18778697142E+02 -0.11957748633E+02  0.23021335491E+02  0.00000000000E+00 0. -1.
</event>
<event>
 7    1  0.6988825E-006  0.1784130E+03  0.7561462E-02  0.1169348E+00
          4   -1    0    0  501    0  0.00000000000E+00  0.00000000000E+00  0.82048309404E+03  0.82048309404E+03  0.00000000000E+00 0. -1.
         -4   -1    0    0    0  501 -0.00000000000E+00 -0.00000000000E+00 -0.64119767615E+02  0.64119767615E+02  0.00000000000E+00 0.  1.
         23    2    1    2    0    0 -0.86144212768E+02 -0.54859185309E+02  0.21452096114E+03  0.25531634621E+03  0.93471055767E+02 0.  0.
          5    1    1    2  502    0  0.81377673558E+02 -0.61946309136E+02  0.49131326228E+03  0.50186239654E+03  0.41800000000E+01 0. -1.
         -5    1    1    2    0  502  0.47665392106E+01  0.11680549444E+03  0.50529103003E+02  0.12742411891E+03  0.41800000000E+01 0.  1.
        -11    1    3    3    0    0 -0.10601813536E+03 -0.43464626889E+02  0.18901095838E+03  0.22102977447E+03  0.00000000000E+00 0. -1.
         11    1    3    3    0    0  0.19873922588E+02 -0.11394558420E+02  0.25510002763E+02  0.34286571739E+02  0.00000000000E+00 0.  1.
</event>
<event>
 7    1  0.6988825E-006  0.9886820E+02  0.7561462E-02  0.1282694E+00
         -2   -1    0    0    0  501 -0.00000000000E+00  0.00000000000E+00  0.22681215898E+02  0.22681215898E+02  0.00000000000E+00 0. -1.
          2   -1    0    0  501    0  0.00000000000E+00 -0.00000000000E+00 -0.61812211485E+03  0.61812211485E+03  0.00000000000E+00 0.  1.
         23    2    1    2    0    0 -0.15468942738E+02 -0.23208965061E+02 -0.15882098583E+03  0.18576188015E+03  0.92224868264E+02 0.  0.
          5    1    1    2  502    0 -0.58644640514E+01  0.60050526616E+02 -0.10912476299E+03  0.12476435382E+03  0.41800000000E+01 0. -1.
         -5    1    1    2    0  502  0.21333406790E+02 -0.36841561555E+02 -0.32749515013E+03  0.33027709679E+03  0.41800000000E+01 0. -1.
        -11    1    3    3    0    0 -0.51590345075E+02 -0.87061463264E-01 -0.10458843110E+03  0.11662037217E+03  0.00000000000E+00 0.  1.
         11    1    3    3    0    0  0.36121402337E+02 -0.23121903598E+02 -0.54232554733E+02  0.69141507979E+02  0.00000000000E+00 0. -1.
</event>
<event>
 7    1  0.6988825E-006  0.1203632E+03  0.7561462E-02  0.1242499E+00
          1   -1    0    0  501    0  0.00000000000E+00  0.00000000000E+00  0.41211730452E+03  0.41211730452E+03  0.00000000000E+00 0. -1.
         -1   -1    0    0    0  501 -0.00000000000E+00 -0.00000000000E+00 -0.40813750550E+02  0.40813750550E+02  0.00000000000E+00 0.  1.
         23    2    1    2    0    0  0.62750703540E+02  0.29981585443E+02  0.12027844287E+03  0.16397434708E+03  0.87086947468E+02 0.  0.
          5    1    1    2  502    0 -0.12106316739E+02  0.46883394335E+02  0.11290728862E+03  0.12292332486E+03  0.41800000000E+01 0.  1.
         -5    1    1    2    0  502 -0.50644386801E+02 -0.76864979778E+02  0.13811782248E+03  0.16603338314E+03  0.41800000000E+01 0.  1.
        -11    1    3    3    0    0 -0.97309756019E+01 -0.12597338203E+02  0.55813490089E+02  0.58039042824E+02  0.00000000000E+00 0. -1.
         11    1    3    3    0    0  0.72481679142E+02  0.42578923646E+02  0.64464952784E+02  0.10593530425E+03  0.00000000000E+00 0.  1.
</event>
<event>
 7    1  0.6988825E-006  0.7474350E+02  0.7561462E-02  0.1344667E+00
         -2   -1    0    0    0  501 -0.00000000000E+00  0.00000000000E+00  0.77075025136E+02  0.77075025136E+02  0.00000000000E+00 0. -1.
          2   -1    0    0  501    0  0.00000000000E+00 -0.00000000000E+00 -0.20028633717E+03  0.20028633717E+03  0.00000000000E+00 0.  1.
         23    2    1    2    0    0  0.37484228361E+01  0.52769774030E+02 -0.23364897605E+02  0.10879225611E+03  0.92147364722E+02 0.  0.
          5    1    1    2  502    0  0.19249689176E+02  0.14758108310E+02  0.18177356379E+02  0.30598055154E+02  0.41800000000E+01 0.  1.
         -5    1    1    2    0  502 -0.22998112012E+02 -0.67527882340E+02 -0.11802377081E+03  0.13797105104E+03  0.41800000000E+01 0.  1.
        -11    1    3    3    0    0  0.56551248284E+01  0.27650093776E+02  0.35154033913E+02  0.45081195891E+02  0.00000000000E+00 0. -1.
         11    1    3    3    0    0 -0.19067019923E+01  0.25119680254E+02 -0.58518931519E+02  0.63711060222E+02  0.00000000000E+00 0.  1.
</event>
<event>
 7    1  0.6988825E-006  0.3530598E+03  0.7561462E-02  0.1061366E+00
         -1   -1    0    0    0  501 -0.00000000000E+00  0.00000000000E+00  0.14168909229E+03  0.14168909229E+03  0.00000000000E+00 0.  1.
          1   -1    0    0  501    0  0.00000000000E+00 -0.00000000000E+00 -0.11005612614E+04  0.11005612614E+04  0.00000000000E+00 0. -1.
         23    2    1    2    0    0 -0.59061250021E+02 -0.41908728799E+01 -0.13971541140E+03  0.17757349397E+03  0.92228818210E+02 0.  0.
          5    1    1    2  502    0  0.11199718788E+03  0.28745924412E+03 -0.16508292972E+03  0.34992289609E+03  0.41800000000E+01 0. -1.
         -5    1    1    2    0  502 -0.52935937859E+02 -0.28326837124E+03 -0.65407382797E+03  0.71475396361E+03  0.41800000000E+01 0.  1.
        -11    1    3    3    0    0  0.24253002175E+02  0.71856415950E+01 -0.27749828795E+02  0.37548562659E+02  0.00000000000E+00 0.  1.
         11    1    3    3    0    0 -0.83314252196E+02 -0.11376514475E+02 -0.11196558261E+03  0.14002493131E+03  0.00000000000E+00 0. -1.
</event>
<event>
 7    1  0.6988825E-006  0.8615410E+02  0.7561462E-02  0.1312442E+00
         -2   -1    0    0    0  501 -0.00000000000E+00  0.00000000000E+00  0.16618554302E+03  0.16618554302E+03  0.00000000000E+00 0.  1.
          2   -1    0    0  501    0  0.00000000000E+00 -0.00000000000E+00 -0.91459403132E+02  0.91459403132E+02  0.00000000000E+00 0. -1.
         23    2    1    2    0    0 -0.24926120664E+02 -0.47162442751E+02  0.61972987144E+02  0.12105912833E+03  0.89269557630E+02 0.  0.
          5    1    1    2  502    0  0.14493309427E+02  0.56941362149E+02  0.61770347154E+02  0.85354688969E+02  0.41800000000E+01 0.  1.
         -5    1    1    2    0  502  0.10432811237E+02 -0.97789193975E+01 -0.49017194413E+02  0.51231128848E+02  0.41800000000E+01 0.  1.
        -11    1    3    3    0    0 -0.45115207977E+02  0.22048310843E+01  0.48025928144E+02  0.65929758418E+02  0.00000000000E+00 0.  1.
         11    1    3    3    0    0  0.20189087313E+02 -0.49367273836E+02  0.13947059000E+02  0.55129369915E+02  0.00000000000E+00 0. -1.
</event>
<event>
 7    1  0.6988825E-006  0.8603896E+02  0.7561462E-02  0.1312738E+00
          2   -1    0    0  501    0  0.00000000000E+00  0.00000000000E+00  0.70167543143E+03  0.70167543143E+03  0.00000000000E+00 0. -1.
         -2   -1    0    0    0  501 -0.00000000000E+00 -0.00000000000E+00 -0.21984535861E+02  0.21984535861E+02  0.00000000000E+00 0.  1.
         23    2    1    2    0    0  0.24937862548E+02  0.28880852943E+02  0.17597114682E+03  0.20323933089E+03  0.94256991533E+02 0.  0.
          5    1    1    2  502    0  0.10713193084E+02 -0.49246374025E+02  0.44922222539E+03  0.45205979476E+03  0.41800000000E+01 0. -1.
         -5    1    1    2    0  502 -0.35651055632E+02  0.20365521081E+02  0.54497523362E+02  0.68360841636E+02  0.41800000000E+01 0. -1.
        -11    1    3    3    0    0  0.47730521367E+02  0.62864237813E+01  0.37296961066E+02  0.60899795555E+02  0.00000000000E+00 0.  1.
         11    1    3    3    0    0 -0.22792658819E+02  0.22594429162E+02  0.13867418575E+03  0.14233953534E+03  0.00000000000E+00 0. -1.
</event>
<event>
 7    1  0.6988825E-006  0.1449412E+03  0.7561462E-02  0.1206831E+00
         -2   -1    0    0    0  501 -0.00000000000E+00  0.00000000000E+00  0.33351548243E+02  0.33351548243E+02  0.00000000000E+00 0.  1.
          2   -1    0    0  501    0  0.00000000000E+00 -0.00000000000E+00 -0.87261228414E+03  0.87261228414E+03  0.00000000000E+00 0. -1.
         23    2    1    2    0    0 -0.58803731259E+02  0.11682497631E+03 -0.41930959742E+03  0.44867577446E+03  0.91561226465E+02 0.  0.
          5    1    1    2  502    0  0.21665937928E+02 -0.67281371299E+01 -0.16478678204E+01  0.23127225598E+02  0.41800000000E+01 0.  1.
         -5    1    1    2    0  502  0.37137793331E+02 -0.11009683918E+03 -0.41830327066E+03  0.43416083233E+03  0.41800000000E+01 0.  1.
        -11    1    3    3    0    0 -0.12787363559E+02  0.10111869104E+03 -0.20525626011E+03  0.22916945403E+03  0.00000000000E+00 0.  1.
         11    1    3    3    0    0 -0.46016367700E+02  0.15706285269E+02 -0.21405333731E+03  0.21950632043E+03  0.00000000000E+00 0. -1.
</event>
<event>
 7    1  0.6988825E-006  0.1622326E+03  0.7561462E-02  0.1186199E+00
          2   -1    0    0  501    0  0.00000000000E+00  0.00000000000E+00  0.79756150827E+02  0.79756150827E+02  0.00000000000E+00 0. -1.
         -2   -1    0    0    0  501 -0.00000000000E+00 -0.00000000000E+00 -0.54940667947E+03  0.54940667947E+03  0.00000000000E+00 0.  1.
         23    2    1    2    0    0 -0.12341409170E+03  0.36016683218E+02 -0.41091062252E+03  0.44044223502E+03  0.92809391695E+02 0.  0.
          5    1    1    2  502    0  0.12481729653E+03  0.16754525353E+02 -0.35663104202E+02  0.13095572165E+03  0.41800000000E+01 0. -1.
         -5    1    1    2    0  502 -0.14032048250E+01 -0.52771208571E+02 -0.23076801918E+02  0.57764873622E+02  0.41800000000E+01 0. -1.
        -11    1    3    3    0    0 -0.88988529615E+02  0.56534141467E+02 -0.20342605059E+03  0.22912273046E+03  0.00000000000E+00 0. -1.
         11    1    3    3    0    0 -0.34425562089E+02 -0.20517458249E+02 -0.20748457192E+03  0.21131950455E+03  0.00000000000E+00 0.  1.
</event>
<event>
 7    1  0.6988825E-006  0.8026055E+02  0.7561462E-02  0.1328314E+00
         -1   -1    0    0    0  501 -0.00000000000E+00  0.00000000000E+00  0.26893527831E+02  0.26893527831E+02  0.00000000000E+00 0.  1.
          1   -1    0    0  501    0  0.00000000000E+00 -0.00000000000E+00 -0.69703288981E+03  0.69703288981E+03  0.00000000000E+00 0. -1.
         23    2    1    2    0    0 -0.25369751867E+02 -0.69890458848E+02 -0.19931384324E+03  0.23112591386E+03  0.90359722232E+02 0.  0.
          5    1    1    2  502    0  0.19577938617E+02  0.43876887987E+02 -0.46186314772E+03  0.46437432811E+03  0.41800000000E+01 0.  1.
         -5    1    1    2    0  502  0.57918132498E+01  0.26013570861E+02 -0.89623710246E+01  0.28426175684E+02  0.41800000000E+01 0.  1.
        -11    1    3    3    0    0 -0.22594643246E+02 -0.89335801820E+01 -0.17571127145E+01  0.24360094486E+02  0.00000000000E+00 0.  1.
         11    1    3    3    0    0 -0.27751086208E+01 -0.60956878666E+02 -0.19755673052E+03  0.20676581937E+03  0.00000000000E+00 0. -1.
</event>
<event>
 7    1  0.6988825E-006  0.1021253E+03  0.7561462E-02  0.1275889E+00
         -2   -1    0    0    0  501 -0.00000000000E+00  0.00000000000E+00  0.44169114808E+02  0.44169114808E+02  0.00000000000E+00 0.  1.
          2   -1    0    0  501    0  0.00000000000E+00 -0.00000000000E+00 -0.31133331154E+03  0.31133331154E+03  0.00000000000E+00 0. -1.
         23    2    1    2    0    0 -0.59445999025E+01  0.55399412403E+02 -0.10617904176E+03  0.14415112204E+03  0.80007024155E+02 0.  0.
          5    1    1    2  502    0  0.41983667985E+02 -0.67013227537E+02 -0.15321978301E+03  0.17247369465E+03  0.41800000000E+01 0. -1.
         -5    1    1    2    0  502 -0.36039068083E+02  0.11613815135E+02 -0.77653719595E+01  0.38877609648E+02  0.41800000000E+01 0. -1.
        -11    1    3    3    0    0 -0.22940939717E+02  0.63950896509E+02 -0.48665976642E+02  0.83572610118E+02  0.00000000000E+00 0. -1.
         11    1    3    3    0    0  0.16996339815E+02 -0.85514841062E+01 -0.57513065120E+02  0.60578511925E+02  0.00000000000E+00 0.  1.
</event>
<event>
 7    1  0.6988825E-006  0.1340540E+03  0.7561462E-02  0.1221561E+00
          2   -1    0    0  501    0  0.00000000000E+00  0.00000000000E+00  0.15814078712E+04  0.15814078712E+04  0.00000000000E+00 0. -1.
         -2   -1    0    0    0  501 -0.00000000000E+00 -0.00000000000E+00 -0.19284889602E+02  0.19284889602E+02  0.00000000000E+00 0.  1.
         23    2    1    2    0    0  0.10913929148E+03  0.36562264312E+02  0.39508374406E+03  0.42142469893E+03  0.90881394862E+02 0.  0.
          5    1    1    2  502    0 -0.33309629516E+02  0.91085435264E+01  0.83137955836E+03  0.83210692789E+03  0.41800000000E+01 0. -1.
         -5    1    1    2    0  502 -0.75829661963E+02 -0.45670807839E+02  0.33565967920E+03  0.34716113400E+03  0.41800000000E+01 0.  1.
        -11    1    3    3    0    0  0.38629075236E+02 -0.29092990895E+02  0.16613514426E+03  0.17303032605E+03  0.00000000000E+00 0.  1.
         11    1    3    3    0    0  0.70510216243E+02  0.65655255207E+02  0.22894859980E+03  0.24839437288E+03  0.00000000000E+00 0. -1.
</event>
<event>
 7    1  0.6988825E-006  0.1056922E+03  0.7561462E-02  0.1268762E+00
         -1   -1    0    0    0  501 -0.00000000000E+00  0.00000000000E+00  0.25966322574E+02  0.25966322574E+02  0.00000000000E+00 0.  1.
          1   -1    0    0  501    0  0.00000000000E+00 -0.00000000000E+00 -0.70134030596E+03  0.70134030596E+03  0.00000000000E+00 0. -1.
         23    2    1    2    0    0 -0.29521133074E+02 -0.54021320793E+02 -0.16722233423E+03  0.20037635136E+03  0.91638271057E+02 0.  0.
          5    1    1    2  502    0  0.49324789248E+02  0.67981464820E+01 -0.43312736434E+03  0.43599992634E+03  0.41800000000E+01 0. -1.
         -5    1    1    2    0  502 -0.19803656174E+02  0.47223174311E+02 -0.75024284818E+02  0.90930350831E+02  0.41800000000E+01 0. -1.
        -11    1    3    3    0    0 -0.19602605675E+01 -0.75235067652E+02 -0.10669004632E+03  0.13056386946E+03  0.00000000000E+00 0.  1.
         11    1    3    3    0    0 -0.27560872506E+02  0.21213746859E+02 -0.60532287913E+02  0.69812481901E+02  0.00000000000E+00 0. -1.
</event>
<event>
 7    1  0.6988825E-006  0.1314989E+03  0.7561462E-02  0.1225248E+00
          2   -1    0    0  501    0  0.00000000000E+00  0.00000000000E+00  0.12431525491E+04  0.12431525491E+04  0.00000000000E+00 0.  1.
         -2   -1    0    0    0  501 -0.00000000000E+00 -0.00000000000E+00 -0.15717332410E+02  0.15717332410E+02  0.00000000000E+00 0. -1.
         23    2    1    2    0    0  0.41201835816E+02 -0.77407836624E+02  0.55642466102E+03  0.57068939847E+03  0.91588327264E+02 0.  0.
          5    1    1    2  502    0 -0.64874508015E+02  0.95067824960E+02  0.60324505188E+03  0.61414058500E+03  0.41800000000E+01 0. -1.
         -5    1    1    2    0  502  0.23672672199E+02 -0.17659988336E+02  0.67765503810E+02  0.74039898053E+02  0.41800000000E+01 0. -1.
        -11    1    3    3    0    0  0.12472181354E+02 -0.86863048072E+02  0.48872130373E+03  0.49653726663E+03  0.00000000000E+00 0.  1.
         11    1    3    3    0    0  0.28729654461E+02  0.94552114479E+01  0.67703357289E+02  0.74152131846E+02  0.00000000000E+00 0. -1.
</event>
<event>
 7    1  0.6988825E-006  0.1255487E+03  0.7561462E-02  0.1234214E+00
          2   -1    0    0  501    0  0.00000000000E+00  0.00000000000E+00  0.37255406041E+04  0.37255406041E+04  0.00000000000E+00 0. -1.
         -2   -1    0    0    0  501 -0.00000000000E+00 -0.00000000000E+00 -0.17529293724E+02  0.17529293724E+02  0.00000000000E+00 0.  1.
         23    2    1    2    0    0  0.72188060331E+01 -0.70387943354E+02  0.19245449466E+03  0.22457671968E+03  0.91593650328E+02 0.  0.
          5    1    1    2  502    0  0.28675627569E+02  0.90108916157E+02  0.29097728687E+04  0.29113119944E+04  0.41800000000E+01 0.  1.
         -5    1    1    2    0  502 -0.35894433603E+02 -0.19720972803E+02  0.60578394698E+03  0.60718118379E+03  0.41800000000E+01 0.  1.
        -11    1    3    3    0    0 -0.99202395708E+00  0.22251172078E+02  0.29696626526E+02  0.37121266107E+02  0.00000000000E+00 0.  1.
         11    1    3    3    0    0  0.82108299902E+01 -0.92639115432E+02  0.16275786813E+03  0.18745545358E+03  0.00000000000E+00 0. -1.
</event>
<event>
 7    1  0.6988825E-006  0.1119944E+03  0.7561462E-02  0.1256921E+00
         -2   -1    0    0    0  501 -0.00000000000E+00  0.00000000000E+00  0.11351773626E+03  0.11351773626E+03  0.00000000000E+00 0.  1.
          2   -1    0    0  501    0  0.00000000000E+00 -0.00000000000E+00 -0.17269450644E+03  0.17269450644E+03  0.00000000000E+00 0. -1.
         23    2    1    2    0    0  0.28913194926E+02  0.42536145491E+02  0.45916969676E+02  0.11492644549E+03  0.91947937746E+02 0.  0.
          5    1    1    2  502    0 -0.77256360883E+02 -0.36598517580E+02 -0.57876344577E+02  0.10332057127E+03  0.41800000000E+01 0. -1.
         -5    1    1    2    0  502  0.48343165957E+02 -0.59376279108E+01 -0.47217395280E+02  0.67965225939E+02  0.41800000000E+01 0. -1.
        -11    1    3    3    0    0 -0.18795959494E+02 -0.76288011340E+01  0.40731603110E+02  0.45503298693E+02  0.00000000000E+00 0.  1.
         11    1    3    3    0    0  0.47709154420E+02  0.50164946625E+02  0.51853665664E+01  0.69423146802E+02  0.00000000000E+00 0. -1.
</event>
<event>
 7    1  0.6988825E-006  0.1067602E+03  0.7561462E-02  0.1266690E+00
         -2   -1    0    0    0  501 -0.00000000000E+00  0.00000000000E+00  0.45357733942E+02  0.45357733942E+02  0.00000000000E+00 0.  1.
          2   -1    0    0  501    0  0.00000000000E+00 -0.00000000000E+00 -0.33658980882E+03  0.33658980882E+03  0.00000000000E+00 0. -1.
         23    2    1    2    0    0 -0.15027743615E+02  0.56719640340E+02 -0.11126891380E+03  0.15505916210E+03  0.90662130428E+02 0.  0.
          5    1    1    2  502    0 -0.53474087744E+01  0.39314738705E+02 -0.53494680312E+02  0.66733774670E+02  0.41800000000E+01 0.  1.
         -5    1    1    2    0  502  0.20375152389E+02 -0.96034379045E+02 -0.12646848076E+03  0.16015460599E+03  0.41800000000E+01 0.  1.
        -11    1    3    3    0    0 -0.29869412238E+02  0.51676900620E+02 -0.20748575494E+02  0.63191670576E+02  0.00000000000E+00 0.  1.
         11    1    3    3    0    0  0.14841668623E+02  0.50427397205E+01 -0.90520338309E+02  0.91867491524E+02  0.00000000000E+00 0. -1.
</event>
<event>
 7    1  0.6988825E-006  0.1215138E+03  0.7561462E-02  0.1240620E+00
         -1   -1    0    0    0  501 -0.00000000000E+00  0.00000000000E+00  0.79211666256E+02  0.79211666256E+02  0.00000000000E+00 0.  1.
          1   -1    0    0  501    0  0.00000000000E+00 -0.00000000000E+00 -0.21240223782E+03  0.21240223782E+03  0.00000000000E+00 0. -1.
         23    2    1    2    0    0 -0.69563238509E+02  0.69184190630E+01 -0.71672062790E+02  0.13566922615E+03  0.91555150954E+02 0.  0.
          5    1    1    2  502    0  0.50670523143E+02 -0.64706658286E+02 -0.33031261711E+02  0.88673503327E+02  0.41800000000E+01 0.  1.
         -5    1    1    2    0  502  0.18892715366E+02  0.57788239223E+02 -0.28487247066E+02  0.67271174598E+02  0.41800000000E+01 0.  1.
        -11    1    3    3    0    0 -0.84371983399E+02  0.27786099655E+01 -0.27321743763E+02  0.88728968992E+02  0.00000000000E+00 0.  1.
         11    1    3    3    0    0  0.14808744890E+02  0.41398090975E+01 -0.44350319027E+02  0.46940257161E+02  0.00000000000E+00 0. -1.
</event>
<event>
 7    1  0.6988825E-006  0.1390463E+03  0.7561462E-02  0.1214618E+00
          1   -1    0    0  501    0  0.00000000000E+00  0.00000000000E+00  0.36644899742E+03  0.36644899742E+03  0.00000000000E+00 0. -1.
         -1   -1    0    0    0  501 -0.00000000000E+00 -0.00000000000E+00 -0.75788409315E+02  0.75788409315E+02  0.00000000000E+00 0.  1.
         23    2    1    2    0    0 -0.39282429911E+02  0.73070229457E+02  0.16813231459E+02  0.12198983665E+03  0.87843427538E+02 0.  0.
          5    1    1    2  502    0  0.84642437472E+02 -0.70903403439E+01  0.15672465196E+03  0.17831069536E+03  0.41800000000E+01 0. -1.
         -5    1    1    2    0  502 -0.45360007561E+02 -0.65979889114E+02  0.11712270469E+03  0.14193687472E+03  0.41800000000E+01 0.  1.
        -11    1    3    3    0    0  0.53072369834E+01  0.67761787606E+02  0.31267440539E+02  0.74816304786E+02  0.00000000000E+00 0. -1.
         11    1    3    3    0    0 -0.44589666895E+02  0.53084418518E+01 -0.14454209080E+02  0.47173531867E+02  0.00000000000E+00 0.  1.
</event>
<event>
 7    1  0.6988825E-006  0.2564098E+03  0.7561462E-02  0.1109320E+00
         -1   -1    0    0    0  501 -0.00000000000E+00  0.00000000000E+00  0.69413673455E+02  0.69413673455E+02  0.00000000000E+00 0.  1.
          1   -1    0    0  501    0  0.00000000000E+00 -0.00000000000E+00 -0.12117830790E+04  0.12117830790E+04  0.00000000000E+00 0. -1.
         23    2    1    2    0    0 -0.20730355635E+03  0.13831137364E+03 -0.34403507439E+03  0.43556710978E+03  0.96196539204E+02 0.  0.
          5    1    1    2  502    0  0.16627569189E+03 -0.67791448677E+02 -0.39235818620E+03  0.43151559057E+03  0.41800000000E+01 0. -1.
         -5    1    1    2    0  502  0.41027864456E+02 -0.70519924963E+02 -0.40597614490E+03  0.41411405206E+03  0.41800000000E+01 0. -1.
        -11    1    3    3    0    0 -0.42212979859E+02  0.12741047924E+02 -0.13105434920E+03  0.13827332503E+03  0.00000000000E+00 0. -1.
         11    1    3    3    0    0 -0.16509057649E+03  0.12557032572E+03 -0.21298072520E+03  0.29729378475E+03  0.00000000000E+00 0.  1.
</event>
<event>
 7    1  0.6988825E-006  0.1492623E+03  0.7561462E-02  0.1201382E+00
          2   -1    0    0  501    0  0.00000000000E+00  0.00000000000E+00  0.33487444647E+03  0.33487444647E+03  0.00000000000E+00 0. -1.
         -2   -1    0    0    0  501 -0.00000000000E+00 -0.00000000000E+00 -0.84320043216E+02  0.84320043216E+02  0.00000000000E+00 0.  1.
         23    2    1    2    0    0 -0.11089617203E+03  0.49827170717E+02  0.65844210446E+02  0.16514567680E+03  0.90315705197E+02 0.  0.
          5    1    1    2  502    0  0.12508533463E+03 -0.68795152131E+02  0.12543994142E+03  0.19008357425E+03  0.41800000000E+01 0. -1.
         -5    1    1    2    0  502 -0.14189162600E+02  0.18967981414E+02  0.59270251385E+02  0.63965238634E+02  0.41800000000E+01 0. -1.
        -11    1    3    3    0    0 -0.29676863408E+02  0.40052095818E+02 -0.13014838333E+02  0.51519633325E+02  0.00000000000E+00 0. -1.
         11    1    3    3    0    0 -0.81219308619E+02  0.97750748983E+01  0.78859048778E+02  0.11362604348E+03  0.00000000000E+00 0.  1.
</event>
<event>
 7    1  0.6988825E-006  0.9489030E+02  0.7561462E-02  0.1291423E+00
         -1   -1    0    0    0  501 -0.00000000000E+00  0.00000000000E+00  0.20118057404E+02  0.20118057404E+02  0.00000000000E+00 0.  1.
          1   -1    0    0  501    0  0.00000000000E+00 -0.00000000000E+00 -0.72594197936E+03  0.72594197936E+03  0.00000000000E+00 0. -1.
         23    2    1    2    0    0 -0.34143465164E+02  0.30404991684E+02 -0.26371099097E+03  0.28365162962E+03  0.93938918963E+02 0.  0.
          5    1    1    2  502    0 -0.99608231874E+01  0.17670118593E+02 -0.34331669255E+03  0.34394080141E+03  0.41800000000E+01 0. -1.
         -5    1    1    2    0  502  0.44104288351E+02 -0.48075110278E+02 -0.98796238437E+02  0.11846760573E+03  0.41800000000E+01 0.  1.
        -11    1    3    3    0    0 -0.49766586777E+02 -0.17930055401E+02 -0.11720914312E+03  0.12859309187E+03  0.00000000000E+00 0.  1.
         11    1    3    3    0    0  0.15623121614E+02  0.48335047086E+02 -0.14650184785E+03  0.15505853775E+03  0.00000000000E+00 0. -1.
</event>
<event>
 7    1  0.6988825E-006  0.1051155E+03  0.7561462E-02  0.1269892E+00
         -1   -1    0    0    0  501 -0.00000000000E+00  0.00000000000E+00  0.45575018622E+02  0.45575018622E+02  0.00000000000E+00 0.  1.
          1   -1    0    0  501    0  0.00000000000E+00 -0.00000000000E+00 -0.30694852288E+03  0.30694852288E+03  0.00000000000E+00 0. -1.
         23    2    1    2    0    0  0.39390190290E+02  0.16719044508E+02 -0.67890976341E+02  0.11819076715E+03  0.86768423004E+02 0.  0.
          5    1    1    2  502    0 -0.17209628562E+02 -0.64036052273E+02 -0.15695333043E+03  0.17043652085E+03  0.41800000000E+01 0.  1.
         -5    1    1    2    0  502 -0.22180561727E+02  0.47317007765E+02 -0.36529197480E+02  0.63896253496E+02  0.41800000000E+01 0.  1.
        -11    1    3    3    0    0  0.53437943452E+02 -0.15981194718E+02 -0.59638870524E+02  0.81656642488E+02  0.00000000000E+00 0. -1.
         11    1    3    3    0    0 -0.14047753162E+02  0.32700239227E+02 -0.82521058163E+01  0.36534124662E+02  0.00000000000E+00 0.  1.
</event>
<event>
 7    1  0.6988825E-006  0.1436767E+03  0.7561462E-02  0.1208466E+00
          1   -1    0    0  501    0  0.00000000000E+00  0.00000000000E+00  0.30757189939E+03  0.30757189939E+03  0.00000000000E+00 0. -1.
         -1   -1    0    0    0  501 -0.00000000000E+00 -0.00000000000E+00 -0.88983043809E+02  0.88983043809E+02  0.00000000000E+00 0.  1.
         23    2    1    2    0    0 -0.24262580082E+02 -0.97245180559E+02  0.51622386391E+02  0.14330090198E+03  0.88458915873E+02 0.  0.
          5    1    1    2  502    0 -0.94959263216E+01  0.12398059442E+03  0.16909867929E+03  0.20993617160E+03  0.41800000000E+01 0. -1.
         -5    1    1    2    0  502  0.33758506403E+02 -0.26735413859E+02 -0.21322100953E+01  0.43317869623E+02  0.41800000000E+01 0.  1.
        -11    1    3    3    0    0 -0.41842434472E+01  0.98558796274E+01 -0.12821135144E+02  0.16704124127E+02  0.00000000000E+00 0. -1.
         11    1    3    3    0    0 -0.20078336635E+02 -0.10710106019E+03  0.64443521535E+02  0.12659677785E+03  0.00000000000E+00 0.  1.
</event>
<event>
 7    1  0.6988825E-006  0.1513935E+03  0.7561462E-02  0.1198771E+00
          1   -1    0    0  501    0  0.00000000000E+00  0.00000000000E+00  0.23235424207E+03  0.23235424207E+03  0.00000000000E+00 0. -1.
         -1   -1    0    0    0  501 -0.00000000000E+00 -0.00000000000E+00 -0.17682972252E+03  0.17682972252E+03  0.00000000000E+00 0.  1.
         23    2    1    2    0    0 -0.11133221268E+03  0.56683187402E+02 -0.91055709508E+02  0.17953120949E+03  0.91282351158E+02 0.  0.
          5    1    1    2  502    0  0.75007611126E+02 -0.95822241015E+02  0.11495345667E+03  0.16745092774E+03  0.41800000000E+01 0. -1.
         -5    1    1    2    0  502  0.36324601552E+02  0.39139053613E+02  0.31626772382E+02  0.62201827360E+02  0.41800000000E+01 0. -1.
        -11    1    3    3    0    0 -0.78129922948E+02  0.26238243868E+02 -0.10396493180E+03  0.13267040870E+03  0.00000000000E+00 0.  1.
         11    1    3    3    0    0 -0.33202289730E+02  0.30444943534E+02  0.12909222293E+02  0.46860800786E+02  0.00000000000E+00 0. -1.
</event>
<event>
 7    1  0.6988825E-006  0.1043757E+03  0.7561462E-02  0.1271355E+00
          2   -1    0    0  501    0  0.00000000000E+00  0.00000000000E+00  0.85775392474E+03  0.85775392474E+03  0.00000000000E+00 0. -1.
         -2   -1    0    0    0  501 -0.00000000000E+00 -0.00000000000E+00 -0.27229205866E+02  0.27229205866E+02  0.00000000000E+00 0.  1.
         23    2    1    2    0    0 -0.64677386962E+02 -0.76001913878E+02  0.26822821300E+03  0.30035956713E+03  0.91159420897E+02 0.  0.
          5    1    1    2  502    0  0.29415976551E+02  0.15223265965E+02  0.22504544966E+02  0.40261326943E+02  0.41800000000E+01 0.  1.
         -5    1    1    2    0  502  0.35261410411E+02  0.60778647914E+02  0.53979196090E+03  0.54436223653E+03  0.41800000000E+01 0.  1.
        -11    1    3    3    0    0 -0.16490837120E+02 -0.44368046303E+02  0.22049708888E+03  0.22552037036E+03  0.00000000000E+00 0. -1.
         11    1    3    3    0    0 -0.48186549842E+02 -0.31633867575E+02  0.47731124122E+02  0.74839196772E+02  0.00000000000E+00 0.  1.
</event>
<event>
 7    1  0.6988825E-006  0.9255240E+02  0.7561462E-02  0.1296786E+00
          1   -1    0    0  501    0  0.00000000000E+00  0.00000000000E+00  0.20463727332E+04  0.20463727332E+04  0.00000000000E+00 0. -1.
         -1   -1    0    0    0  501 -0.00000000000E+00 -0.00000000000E+00 -0.98219676307E+01  0.98219676307E+01  0.00000000000E+00 0.  1.
         23    2    1    2    0    0 -0.27385944370E+02  0.41232082756E+01  0.27785844979E+03  0.29284205838E+03  0.88227899456E+02 0.  0.
          5    1    1    2  502    0 -0.21307785314E+02  0.31419193579E+02  0.20762022866E+03  0.21110381140E+03  0.41800000000E+01 0. -1.
         -5    1    1    2    0  502  0.48693729684E+02 -0.35542401854E+02  0.15510720871E+04  0.15522488310E+04  0.41800000000E+01 0. -1.
        -11    1    3    3    0    0 -0.54707620543E+02  0.15538681222E+02  0.12769394071E+03  0.13978596802E+03  0.00000000000E+00 0.  1.
         11    1    3    3    0    0  0.27321676174E+02 -0.11415472947E+02  0.15016450908E+03  0.15305609036E+03  0.00000000000E+00 0. -1.
</event>
<event>
 7    1  0.6988825E-006  0.9596880E+02  0.7561462E-02  0.1289009E+00
          1   -1    0    0  501    0  0.00000000000E+00  0.00000000000E+00  0.49474394276E+03  0.49474394276E+03  0.00000000000E+00 0. -1.
         -1   -1    0    0    0  501 -0.00000000000E+00 -0.00000000000E+00 -0.26448658860E+02  0.26448658860E+02  0.00000000000E+00 0.  1.
         23    2    1    2    0    0 -0.10902779949E+02 -0.47547467804E+02  0.15842084660E+03  0.18348303157E+03  0.78671633604E+02 0.  0.
          5    1    1    2  502    0 -0.22475229960E+02 -0.15866412558E+02  0.22427605243E+03  0.22599579444E+03  0.41800000000E+01 0.  1.
         -5    1    1    2    0  502  0.33378009909E+02  0.63413880362E+02  0.85598384874E+02  0.11171377561E+03  0.41800000000E+01 0.  1.
        -11    1    3    3    0    0 -0.14723304050E+02  0.19909284524E+02  0.48549127342E+02  0.54499294107E+02  0.00000000000E+00 0. -1.
         11    1    3    3    0    0  0.38205241013E+01 -0.67456752328E+02  0.10987171925E+03  0.12898373747E+03  0.00000000000E+00 0.  1.
</event>
<event>
 7    1  0.6988825E-006  0.1151583E+03  0.7561462E-02  0.1251305E+00
         -2   -1    0    0    0  501 -0.00000000000E+00  0.00000000000E+00  0.42090457047E+02  0.42090457047E+02  0.00000000000E+00 0.  1.
          2   -1    0    0  501    0  0.00000000000E+00 -0.00000000000E+00 -0.46657106735E+03  0.46657106735E+03  0.00000000000E+00 0. -1.
         23    2    1    2    0    0  0.40851628266E+02 -0.68268347854E+02 -0.92623596508E+02  0.14519631083E+03  0.78571083725E+02 0.  0.
          5    1    1    2  502    0  0.13357501725E+02  0.85605467221E+02 -0.15489731435E+03  0.17753131911E+03  0.41800000000E+01 0.  1.
         -5    1    1    2    0  502 -0.54209129991E+02 -0.17337119367E+02 -0.17695969944E+03  0.18593389446E+03  0.41800000000E+01 0.  1.
        -11    1    3    3    0    0  0.45928340190E+02 -0.51583337885E+02 -0.10365675894E+03  0.12455912995E+03  0.00000000000E+00 0. -1.
         11    1    3    3    0    0 -0.50767119232E+01 -0.16685009968E+02  0.11033162429E+02  0.20637180882E+02  0.00000000000E+00 0.  1.
</event>
<event>
 7    1  0.1204034E-005  0.1259875E+03  0.7561462E-02  0.1233534E+00
         -1   -1    0    0    0  501 -0.00000000000E+00  0.00000000000E+00  0.20720902596E+03  0.20720902596E+03  0.00000000000E+00 0.  1.
          1   -1    0    0  501    0  0.00000000000E+00 -0.00000000000E+00 -0.10698778436E+03  0.10698778436E+03  0.00000000000E+00 0. -1.
         23    2    1    2    0    0  0.46135010048E+02 -0.89346857116E+02  0.64123098335E+02  0.14969274433E+03  0.90470138363E+02 0.  0.
          5    1    1    2  502    0  0.22193275508E+02 -0.26078384832E+00  0.46061577612E+02  0.51300592765E+02  0.41800000000E+01 0. -1.
         -5    1    1    2    0  502 -0.68328285556E+02  0.89607640965E+02 -0.99634343493E+01  0.11320347323E+03  0.41800000000E+01 0. -1.
        -11    1    3    3    0    0 -0.76512124954E+01 -0.48467990522E+02  0.65839956419E+02  0.82113257268E+02  0.00000000000E+00 0.  1.
         11    1    3    3    0    0  0.53786222544E+02 -0.40878866594E+02 -0.17168580841E+01  0.67579487059E+02  0.00000000000E+00 0. -1.
</event>
<event>
 7    1  0.6988825E-006  0.8696010E+02  0.7561462E-02  0.1310385E+00
         -2   -1    0    0    0  501 -0.00000000000E+00  0.00000000000E+00  0.46896319660E+02  0.46896319660E+02  0.00000000000E+00 0.  1.
          2   -1    0    0  501    0  0.00000000000E+00 -0.00000000000E+00 -0.30657296588E+03  0.30657296588E+03  0.00000000000E+00 0. -1.
         23    2    1    2    0    0 -0.18173994301E+02 -0.38568976732E+02 -0.64300359915E+02  0.11759449292E+03  0.88747216552E+02 0.  0.
          5    1    1    2  502    0  0.56229721977E+02  0.63973640403E+02 -0.11319732720E+03  0.14172337699E+03  0.41800000000E+01 0. -1.
         -5    1    1    2    0  502 -0.38055727676E+02 -0.25404663671E+02 -0.82178959107E+02  0.94151415630E+02  0.41800000000E+01 0. -1.
        -11    1    3    3    0    0 -0.12786970391E+02 -0.24566582469E+02  0.18590973345E+02  0.33356376840E+02  0.00000000000E+00 0.  1.
         11    1    3    3    0    0 -0.53870239100E+01 -0.14002394263E+02 -0.82891333259E+02  0.84238116083E+02  0.00000000000E+00 0. -1.
</event>
<event>
 7    1  0.6988825E-006  0.1398471E+03  0.7561462E-02  0.1213535E+00
          1   -1    0    0  501    0  0.00000000000E+00  0.00000000000E+00  0.79457338314E+03  0.79457338314E+03  0.00000000000E+00 0. -1.
         -1   -1    0    0    0  501 -0.00000000000E+00 -0.00000000000E+00 -0.33947846642E+02  0.33947846642E+02  0.00000000000E+00 0.  1.
         23    2    1    2    0    0  0.57045842220E+02 -0.19749748570E+02  0.15312236886E+03  0.18588438942E+03  0.86384406587E+02 0.  0.
          5    1    1    2  502    0 -0.10554291252E+03  0.61811692289E+02  0.51893137331E+03  0.53316717293E+03  0.41800000000E+01 0. -1.
         -5    1    1    2    0  502  0.48497070299E+02 -0.42061943719E+02  0.88571794321E+02  0.10946966743E+03  0.41800000000E+01 0.  1.
        -11    1    3    3    0    0  0.77357089959E+00  0.22561574771E+02  0.84892863726E+02  0.87843163534E+02  0.00000000000E+00 0.  1.
         11    1    3    3    0    0  0.56272271320E+02 -0.42311323341E+02  0.68229505138E+02  0.98041225889E+02  0.00000000000E+00 0. -1.
</event>
<event>
 7    1  0.6988825E-006  0.1158843E+03  0.7561462E-02  0.1250045E+00
          3   -1    0    0  501    0  0.00000000000E+00  0.00000000000E+00  0.74011393770E+03  0.74011393770E+03  0.00000000000E+00 0. -1.
         -3   -1    0    0    0  501 -0.00000000000E+00 -0.00000000000E+00 -0.21345626790E+02  0.21345626790E+02  0.00000000000E+00 0.  1.
         23    2    1    2    0    0  0.51617602873E+02  0.33248102018E+01  0.22296060488E+03  0.24750571788E+03  0.94192450676E+02 0.  0.
          5    1    1    2  502    0 -0.13005837950E+02 -0.62806433764E+02  0.24253054797E+03  0.25090304710E+03  0.41800000000E+01 0. -1.
         -5    1    1    2    0  502 -0.38611764923E+02  0.59481623562E+02  0.25327715806E+03  0.26305079952E+03  0.41800000000E+01 0. -1.
        -11    1    3    3    0    0  0.23068841874E+02  0.42277146895E+02  0.16590968357E+03  0.17275865164E+03  0.00000000000E+00 0.  1.
         11    1    3    3    0    0  0.28548760998E+02 -0.38952336693E+02  0.57050921307E+02  0.74747066233E+02  0.00000000000E+00 0. -1.
</event>
<event>
 7    1  0.6988825E-006  0.1362177E+03  0.7561462E-02  0.1218511E+00
         -1   -1    0    0    0  501 -0.00000000000E+00  0.00000000000E+00  0.12526613889E+03  0.12526613889E+03  0.00000000000E+00 0.  1.
          1   -1    0    0  501    0  0.00000000000E+00 -0.00000000000E+00 -0.21360254423E+03  0.21360254423E+03  0.00000000000E+00 0. -1.
         23    2    1    2    0    0  0.32882999050E+02  0.76283328565E+02  0.48632974602E+02  0.13562516082E+03  0.95543603588E+02 0.  0.
          5    1    1    2  502    0  0.28020496835E+02 -0.81275824706E+02 -0.60207854658E+02  0.10503983095E+03  0.41800000000E+01 0.  1.
         -5    1    1    2    0  502 -0.60903495884E+02  0.49924961406E+01 -0.76761525283E+02  0.98203691338E+02  0.41800000000E+01 0.  1.
        -11    1    3    3    0    0  0.20304453240E+02  0.97964752642E+02  0.46914360979E+02  0.11050032058E+03  0.00000000000E+00 0.  1.
         11    1    3    3    0    0  0.12578545810E+02 -0.21681424077E+02  0.17186136227E+01  0.25124840248E+02  0.00000000000E+00 0. -1.
</event>
<event>
 7    1  0.6988825E-006  0.2118737E+03  0.7561462E-02  0.1140091E+00
          2   -1    0    0  501    0  0.00000000000E+00  0.00000000000E+00  0.52692296879E+03  0.52692296879E+03  0.00000000000E+00 0. -1.
         -2   -1    0    0    0  501 -0.00000000000E+00 -0.00000000000E+00 -0.10883209456E+03  0.10883209456E+03  0.00000000000E+00 0.  1.
         23    2    1    2    0    0 -0.81165738800E+02 -0.17439464685E+03  0.80482111310E+02  0.22755278791E+03  0.91112738072E+02 0.  0.
          5    1    1    2  502    0  0.10742785383E+03  0.13810332113E+03  0.30827923071E+03  0.35449517285E+03  0.41800000000E+01 0.  1.
         -5    1    1    2    0  502 -0.26262115028E+02  0.36291325724E+02  0.29329532219E+02  0.53707102591E+02  0.41800000000E+01 0.  1.
        -11    1    3    3    0    0  0.10193282954E+02 -0.39678387952E+02  0.45195436203E+02  0.60999220827E+02  0.00000000000E+00 0. -1.
         11    1    3    3    0    0 -0.91359021754E+02 -0.13471625890E+03  0.35286675107E+02  0.16655356708E+03  0.00000000000E+00 0.  1.
</event>
<event>
 7    1  0.6988825E-006  0.8295121E+02  0.7561462E-02  0.1320879E+00
          1   -1    0    0  501    0  0.00000000000E+00  0.00000000000E+00  0.10285371363E+04  0.10285371363E+04  0.00000000000E+00 0. -1.
         -1   -1    0    0    0  501 -0.00000000000E+00 -0.00000000000E+00 -0.14607305875E+02  0.14607305875E+02  0.00000000000E+00 0.  1.
         23    2    1    2    0    0  0.54354530273E+02 -0.14987727233E+02  0.40904829672E+03  0.42289597386E+03  0.91331531921E+02 0.  0.
          5    1    1    2  502    0 -0.18343465134E+02 -0.10995999038E+02  0.54573160153E+03  0.54616650210E+03  0.41800000000E+01 0.  1.
         -5    1    1    2    0  502 -0.36011065139E+02  0.25983726271E+02  0.59149932185E+02  0.74081966233E+02  0.41800000000E+01 0.  1.
        -11    1    3    3    0    0 -0.19714219800E+02  0.89728610747E+01  0.37733814184E+02  0.43508659265E+02  0.00000000000E+00 0.  1.
         11    1    3    3    0    0  0.74068750073E+02 -0.23960588308E+02  0.37131448254E+03  0.37938731459E+03  0.00000000000E+00 0. -1.
</event>
<event>
 7    1  0.6988825E-006  0.7507243E+02  0.7561462E-02  0.1343647E+00
         -2   -1    0    0    0  501 -0.00000000000E+00  0.00000000000E+00  0.11404878804E+03  0.11404878804E+03  0.00000000000E+00 0.  1.
          2   -1    0    0  501    0  0.00000000000E+00 -0.00000000000E+00 -0.11475050236E+03  0.11475050236E+03  0.00000000000E+00 0. -1.
         23    2    1    2    0    0  0.23481811142E+02 -0.41570901913E+02 -0.23739638622E+02  0.92929710625E+02  0.76110612496E+02 0.  0.
          5    1    1    2  502    0 -0.20393484566E+02 -0.38037362221E+01  0.68339774628E+02  0.71541315463E+02  0.41800000000E+01 0.  1.
         -5    1    1    2    0  502 -0.30883265758E+01  0.45374638135E+02 -0.45301850322E+02  0.64328264313E+02  0.41800000000E+01 0.  1.
        -11    1    3    3    0    0  0.61419033432E+01  0.19177369381E+02  0.86732748548E+01  0.21925331691E+02  0.00000000000E+00 0.  1.
         11    1    3    3    0    0  0.17339907799E+02 -0.60748271294E+02 -0.32412913477E+02  0.71004378934E+02  0.00000000000E+00 0. -1.
</event>
<event>
 7    1  0.6988825E-006  0.1117558E+03  0.7561462E-02  0.1257352E+00
         -4   -1    0    0    0  501 -0.00000000000E+00  0.00000000000E+00  0.93766799928E+02  0.93766799928E+02  0.00000000000E+00 0.  1.
          4   -1    0    0  501    0  0.00000000000E+00 -0.00000000000E+00 -0.25536849652E+03  0.25536849652E+03  0.00000000000E+00 0. -1.
         23    2    1    2    0    0 -0.50994882107E+02  0.11828110775E+02 -0.22104309458E+02  0.13633839604E+03  0.12393214083E+03 0.  0.
          5    1    1    2  502    0  0.69867486489E+01 -0.50670894839E+02 -0.14488315993E+03  0.15370412054E+03  0.41800000000E+01 0. -1.
         -5    1    1    2    0  502  0.44008133458E+02  0.38842784064E+02  0.53857727940E+01  0.59092779871E+02  0.41800000000E+01 0.  1.
        -11    1    3    3    0    0 -0.81674230308E+02  0.12681098380E+02  0.19225392439E+02  0.84859329876E+02  0.00000000000E+00 0.  1.
         11    1    3    3    0    0  0.30679348201E+02 -0.85298760559E+00 -0.41329701896E+02  0.51479066160E+02  0.00000000000E+00 0. -1.
</event>
<event>
 7    1  0.6988825E-006  0.1798459E+03  0.7561462E-02  0.1167952E+00
         -2   -1    0    0    0  501 -0.00000000000E+00  0.00000000000E+00  0.10834009841E+04  0.10834009841E+04  0.00000000000E+00 0.  1.
          2   -1    0    0  501    0  0.00000000000E+00 -0.00000000000E+00 -0.33262251292E+02  0.33262251292E+02  0.00000000000E+00 0. -1.
         23    2    1    2    0    0  0.80738122892E+02  0.12385095976E+03  0.64302057161E+03  0.66583033797E+03  0.89425268980E+02 0.  0.
          5    1    1    2  502    0 -0.24126141111E+02 -0.12972338388E+03  0.32540433872E+03  0.35116332819E+03  0.41800000000E+01 0. -1.
         -5    1    1    2    0  502 -0.56611981782E+02  0.58724241130E+01  0.81713822498E+02  0.99669569245E+02  0.41800000000E+01 0. -1.
        -11    1    3    3    0    0  0.73622574101E+02  0.35079921621E+02  0.25510516477E+03  0.26782369090E+03  0.00000000000E+00 0.  1.
         11    1    3    3    0    0  0.71155487917E+01  0.88771038143E+02  0.38791540684E+03  0.39800664707E+03  0.00000000000E+00 0. -1.
</event>
<event>
 7    1  0.6988825E-006  0.2315825E+03  0.7561462E-02  0.1125531E+00
          1   -1    0    0  501    0  0.00000000000E+00  0.00000000000E+00  0.16257832768E+04  0.16257832768E+04  0.00000000000E+00 0. -1.
         -1   -1    0    0    0  501 -0.00000000000E+00 -0.00000000000E+00 -0.70767672760E+02  0.70767672760E+02  0.00000000000E+00 0.  1.
         23    2    1    2    0    0  0.97911208942E+02 -0.15987774157E+03  0.17996114003E+03  0.27514002641E+03  0.90379893390E+02 0.  0.
          5    1    1    2  502    0 -0.81115686119E+02  0.19789377385E+03  0.48147963018E+03  0.52686032963E+03  0.41800000000E+01 0. -1.
         -5    1    1    2    0  502 -0.16795522823E+02 -0.38016032279E+02  0.89357483381E+03  0.89455059349E+03  0.41800000000E+01 0.  1.
        -11    1    3    3    0    0  0.15753612023E+02  0.10083038168E+02  0.22914872185E+02  0.29579305565E+02  0.00000000000E+00 0. -1.
         11    1    3    3    0    0  0.82157596919E+02 -0.16996077974E+03  0.15704626784E+03  0.24556072085E+03  0.00000000000E+00 0.  1.
</event>
<event>
 7    1  0.6988825E-006  0.8373046E+02  0.7561462E-02  0.1318786E+00
         -2   -1    0    0    0  501 -0.00000000000E+00  0.00000000000E+00  0.15926170166E+03  0.15926170166E+03  0.00000000000E+00 0.  1.
          2   -1    0    0  501    0  0.00000000000E+00 -0.00000000000E+00 -0.14512951125E+03  0.14512951125E+03  0.00000000000E+00 0. -1.
         23    2    1    2    0    0 -0.18204036685E+02 -0.36447748138E+02  0.10071762301E+03  0.14693906289E+03  0.98930396347E+02 0.  0.
          5    1    1    2  502    0  0.54683242990E+02  0.34437340734E+02 -0.99293982864E+02  0.11854515989E+03  0.41800000000E+01 0.  1.
         -5    1    1    2    0  502 -0.36479206305E+02  0.20104074042E+01  0.12708550262E+02  0.38906990122E+02  0.41800000000E+01 0.  1.
        -11    1    3    3    0    0 -0.17711421746E+02  0.94189505316E+01 -0.13281078325E+02  0.24058223768E+02  0.00000000000E+00 0. -1.
         11    1    3    3    0    0 -0.49261493855E+00 -0.45866698670E+02  0.11399870134E+03  0.12288083912E+03  0.00000000000E+00 0.  1.
</event>
<event>
 7    1  0.6988825E-006  0.1828293E+03  0.7561462E-02  0.1165093E+00
          2   -1    0    0  501    0  0.00000000000E+00  0.00000000000E+00  0.21218292228E+04  0.21218292228E+04  0.00000000000E+00 0. -1.
         -2   -1    0    0    0  501 -0.00000000000E+00 -0.00000000000E+00 -0.27630294143E+02  0.27630294143E+02  0.00000000000E+00 0.  1.
         23    2    1    2    0    0 -0.22961934170E+02 -0.41425345629E+02  0.17976332970E+03  0.20712302372E+03  0.91333359573E+02 0.  0.
          5    1    1    2  502    0 -0.23154596245E+01 -0.11786524153E+03  0.13543223251E+04  0.13594498921E+04  0.41800000000E+01 0. -1.
         -5    1    1    2    0  502  0.25277393795E+02  0.15929058716E+03  0.56011327389E+03  0.58288660113E+03  0.41800000000E+01 0.  1.
        -11    1    3    3    0    0 -0.44940220912E+02 -0.69513081879E+01  0.37013718215E+02  0.58634115302E+02  0.00000000000E+00 0.  1.
         11    1    3    3    0    0  0.21978286742E+02 -0.34474037441E+02  0.14274961148E+03  0.14848890842E+03  0.00000000000E+00 0. -1.
</event>
<event>
 7    1  0.6988825E-006  0.2042087E+03  0.7561462E-02  0.1146236E+00
          2   -1    0    0  501    0  0.00000000000E+00  0.00000000000E+00  0.21134859392E+04  0.21134859392E+04  0.00000000000E+00 0. -1.
         -2   -1    0    0    0  501 -0.00000000000E+00 -0.00000000000E+00 -0.27962512833E+02  0.27962512833E+02  0.00000000000E+00 0.  1.
         23    2    1    2    0    0  0.20238257615E+03 -0.42211256738E+01  0.65667284951E+03  0.69291858192E+03  0.89108949372E+02 0.  0.
          5    1    1    2  502    0 -0.11485919549E+03 -0.13255290648E+02  0.41732354452E+03  0.43306437250E+03  0.41800000000E+01 0. -1.
         -5    1    1    2    0  502 -0.87523380667E+02  0.17476416321E+02  0.10115270324E+04  0.10154654976E+04  0.41800000000E+01 0. -1.
        -11    1    3    3    0    0  0.54920115623E+02 -0.98732227439E+01  0.79165367964E+02  0.96854814606E+02  0.00000000000E+00 0.  1.
         11    1    3    3    0    0  0.14746246053E+03  0.56520970701E+01  0.57750748155E+03  0.59606376732E+03  0.00000000000E+00 0. -1.
</event>
<event>
 7    1  0.6988825E-006  0.1445095E+03  0.7561462E-02  0.1207387E+00
          1   -1    0    0  501    0  0.00000000000E+00  0.00000000000E+00  0.37417011332E+02  0.37417011332E+02  0.00000000000E+00 0. -1.
         -1   -1    0    0    0  501 -0.00000000000E+00 -0.00000000000E+00 -0.69072200554E+03  0.69072200554E+03  0.00000000000E+00 0.  1.
         23    2    1    2    0    0 -0.11660921826E+03 -0.14049249690E+02 -0.30970378923E+03  0.34407580471E+03  0.93148435958E+02 0.  0.
          5    1    1    2  502    0  0.26575309531E+02 -0.52420983209E+02 -0.13508729395E+03  0.14737793575E+03  0.41800000000E+01 0.  1.
         -5    1    1    2    0  502  0.90033908728E+02  0.66470232899E+02 -0.20851391102E+03  0.23668527641E+03  0.41800000000E+01 0.  1.
        -11    1    3    3    0    0 -0.45603128456E+02  0.59556219408E+00 -0.28736731565E+02  0.53905470597E+02  0.00000000000E+00 0. -1.
         11    1    3    3    0    0 -0.71006089803E+02 -0.14644811885E+02 -0.28096705767E+03  0.29017033411E+03  0.00000000000E+00 0.  1.
</event>
<event>
 7    1  0.6988825E-006  0.1076089E+03  0.7561462E-02  0.1265063E+00
         -2   -1    0    0    0  501 -0.00000000000E+00  0.00000000000E+00  0.10080471408E+03  0.10080471408E+03  0.00000000000E+00 0.  1.
          2   -1    0    0  501    0  0.00000000000E+00 -0.00000000000E+00 -0.27596185409E+03  0.27596185409E+03  0.00000000000E+00 0. -1.
         23    2    1    2    0    0 -0.52854742483E+02  0.45493453957E+02  0.38440283224E+02  0.11960247341E+03  0.89240226999E+02 0.  0.
          5    1    1    2  502    0  0.63991007637E+02 -0.67851662478E+02 -0.85527182282E+02  0.12661385575E+03  0.41800000000E+01 0. -1.
         -5    1    1    2    0  502 -0.11136265154E+02  0.22358208521E+02 -0.12807024095E+03  0.13055023902E+03  0.41800000000E+01 0. -1.
        -11    1    3    3    0    0 -0.29218065464E+02 -0.14085107845E+02  0.44670355117E+02  0.55204404161E+02  0.00000000000E+00 0.  1.
         11    1    3    3    0    0 -0.23636677019E+02  0.59578561802E+02 -0.62300718930E+01  0.64398069247E+02  0.00000000000E+00 0. -1.
</event>
<event>
 7    1  0.6988825E-006  0.2659552E+03  0.7561462E-02  0.1103617E+00
         -1   -1    0    0    0  501 -0.00000000000E+00  0.00000000000E+00  0.10444775536E+03  0.10444775536E+03  0.00000000000E+00 0.  1.
          1   -1    0    0  501    0  0.00000000000E+00 -0.00000000000E+00 -0.84147791588E+03  0.84147791588E+03  0.00000000000E+00 0. -1.
         23    2    1    2    0    0  0.24373745658E+03  0.52925663831E+02 -0.17259562671E+03  0.31628021623E+03  0.89637331422E+02 0.  0.
          5    1    1    2  502    0  0.11227432125E+02  0.56131308165E+01 -0.59507092903E+02  0.60960060494E+02  0.41800000000E+01 0.  1.
         -5    1    1    2    0  502 -0.25496488871E+03 -0.58538794647E+02 -0.50492744091E+03  0.56868539452E+03  0.41800000000E+01 0.  1.
        -11    1    3    3    0    0  0.18730499839E+03  0.12677566661E+02 -0.15816508950E+03  0.24547928355E+03  0.00000000000E+00 0. -1.
         11    1    3    3    0    0  0.56432458195E+02  0.40248097169E+02 -0.14430537216E+02  0.70800932678E+02  0.00000000000E+00 0.  1.
</event>
<event>
 7    1  0.6988825E-006  0.1496353E+03  0.7561462E-02  0.1200922E+00
          2   -1    0    0  501    0  0.00000000000E+00  0.00000000000E+00  0.92399147679E+03  0.92399147679E+03  0.00000000000E+00 0. -1.
         -2   -1    0    0    0  501 -0.00000000000E+00 -0.00000000000E+00 -0.26151354986E+02  0.26151354986E+02  0.00000000000E+00 0.  1.
         23    2    1    2    0    0  0.67358039761E+02  0.80881515167E+02  0.30708259015E+03  0.33718237508E+03  0.91177364922E+02 0.  0.
          5    1    1    2  502    0 -0.69821475514E+02  0.11417916375E+02  0.27080561353E+03  0.27992599018E+03  0.41800000000E+01 0.  1.
         -5    1    1    2    0  502  0.24634357530E+01 -0.92299431542E+02  0.31995191812E+03  0.33303446651E+03  0.41800000000E+01 0.  1.
        -11    1    3    3    0    0  0.55443771675E+02  0.12544602759E+01  0.16237358145E+03  0.17158311526E+03  0.00000000000E+00 0. -1.
         11    1    3    3    0    0  0.11914268086E+02  0.79627054891E+02  0.14470900870E+03  0.16559925982E+03  0.00000000000E+00 0.  1.
</event>
<event>
 7    1  0.6988825E-006  0.1618796E+03  0.7561462E-02  0.1186591E+00
         -2   -1    0    0    0  501 -0.00000000000E+00  0.00000000000E+00  0.62875269922E+02  0.62875269922E+02  0.00000000000E+00 0.  1.
          2   -1    0    0  501    0  0.00000000000E+00 -0.00000000000E+00 -0.58376169576E+03  0.58376169576E+03  0.00000000000E+00 0. -1.
         23    2    1    2    0    0  0.81166731968E+02 -0.93615225225E+02 -0.10700187483E+03  0.19685939665E+03  0.10932690456E+03 0.  0.
          5    1    1    2  502    0 -0.10899157213E+03  0.59452083914E+02 -0.23870243566E+03  0.26909113376E+03  0.41800000000E+01 0.  1.
         -5    1    1    2    0  502  0.27824840163E+02  0.34163141311E+02 -0.17518211535E+03  0.18068643527E+03  0.41800000000E+01 0.  1.
        -11    1    3    3    0    0  0.57602202826E+02 -0.11163065898E+03 -0.55293188825E+02  0.13724705652E+03  0.00000000000E+00 0.  1.
         11    1    3    3    0    0  0.23564529142E+02  0.18015433751E+02 -0.51708686007E+02  0.59612340128E+02  0.00000000000E+00 0. -1.
</event>
<event>
 7    1  0.6988825E-006  0.1966436E+03  0.7561462E-02  0.1152602E+00
         -1   -1    0    0    0  501 -0.00000000000E+00  0.00000000000E+00  0.10456950202E+03  0.10456950202E+03  0.00000000000E+00 0.  1.
          1   -1    0    0  501    0  0.00000000000E+00 -0.00000000000E+00 -0.41275334737E+03  0.41275334737E+03  0.00000000000E+00 0. -1.
         23    2    1    2    0    0 -0.43214315195E+02 -0.16724453933E+03 -0.10540828620E+03  0.22303883274E+03  0.93793396028E+02 0.  0.
          5    1    1    2  502    0  0.74020902815E+02  0.12766854575E+03 -0.19304185321E+03  0.24302465125E+03  0.41800000000E+01 0. -1.
         -5    1    1    2    0  502 -0.30806587620E+02  0.39575993583E+02 -0.97337059453E+01  0.51259365391E+02  0.41800000000E+01 0. -1.
        -11    1    3    3    0    0 -0.58460610039E+02 -0.49509468715E+02 -0.53663341220E+02  0.93533868783E+02  0.00000000000E+00 0.  1.
         11    1    3    3    0    0  0.15246294845E+02 -0.11773507062E+03 -0.51744944978E+02  0.12950496396E+03  0.00000000000E+00 0. -1.
</event>
<event>
 7    1  0.6988825E-006  0.1335819E+03  0.7561462E-02  0.1222236E+00
          2   -1    0    0  501    0  0.00000000000E+00  0.00000000000E+00  0.14320695300E+04  0.14320695300E+04  0.00000000000E+00 0. -1.
         -2   -1    0    0    0  501 -0.00000000000E+00 -0.00000000000E+00 -0.19280766037E+02  0.19280766037E+02  0.00000000000E+00 0.  1.
         23    2    1    2    0    0  0.87604807342E+02  0.43548171274E+02  0.32371400626E+03  0.35075778579E+03  0.93108651317E+02 0.  0.
          5    1    1    2  502    0  0.25509869590E+02 -0.35108919764E+02  0.23523005391E+03  0.23923636922E+03  0.41800000000E+01 0. -1.
         -5    1    1    2    0  502 -0.11311467693E+03 -0.84392515092E+01  0.85384470384E+03  0.86135614108E+03  0.41800000000E+01 0. -1.
        -11    1    3    3    0    0  0.65807397857E+02  0.52808407773E+01  0.83029693597E+02  0.10607747598E+03  0.00000000000E+00 0.  1.
         11    1    3    3    0    0  0.21797409486E+02  0.38267330496E+02  0.24068431267E+03  0.24468030981E+03  0.00000000000E+00 0. -1.
</event>
<event>
 7    1  0.6988825E-006  0.1037488E+03  0.7561462E-02  0.1272605E+00
         -2   -1    0    0    0  501 -0.00000000000E+00  0.00000000000E+00  0.35246910253E+02  0.35246910253E+02  0.00000000000E+00 0. -1.
          2   -1    0    0  501    0  0.00000000000E+00 -0.00000000000E+00 -0.88851626375E+03  0.88851626375E+03  0.00000000000E+00 0.  1.
         23    2    1    2    0    0 -0.40161017602E+02 -0.64037307421E+02 -0.16517500588E+03  0.22031791557E+03  0.12467364307E+03 0.  0.
          5    1    1    2  502    0  0.82599524539E+01  0.39173230611E+01  0.17806503646E+01  0.10208591981E+02  0.41800000000E+01 0. -1.
         -5    1    1    2    0  502  0.31901065148E+02  0.60119984360E+02 -0.68987499798E+03  0.69323666645E+03  0.41800000000E+01 0. -1.
        -11    1    3    3    0    0 -0.76116013087E+02 -0.47129943773E+02 -0.15549212514E+03  0.17942318699E+03  0.00000000000E+00 0.  1.
         11    1    3    3    0    0  0.35954995485E+02 -0.16907363649E+02 -0.96828807341E+01  0.40894728575E+02  0.00000000000E+00 0. -1.
</event>
<event>
 7    1  0.6988825E-006  0.7292174E+02  0.7561462E-02  0.1350430E+00
          1   -1    0    0  501    0  0.00000000000E+00  0.00000000000E+00  0.11849396115E+03  0.11849396115E+03  0.00000000000E+00 0. -1.
         -1   -1    0    0    0  501 -0.00000000000E+00 -0.00000000000E+00 -0.11792561804E+03  0.11792561804E+03  0.00000000000E+00 0.  1.
         23    2    1    2    0    0  0.14864953786E+02  0.37377369431E+02 -0.28021390128E+02  0.10194996437E+03  0.89389945367E+02 0.  0.
          5    1    1    2  502    0  0.51607923067E+01 -0.20147997306E+02  0.76615573565E+02  0.79498390458E+02  0.41800000000E+01 0.  1.
         -5    1    1    2    0  502 -0.20025746093E+02 -0.17229372124E+02 -0.48025840325E+02  0.54971224375E+02  0.41800000000E+01 0.  1.
        -11    1    3    3    0    0 -0.31540976521E+02 -0.84600980928E+01 -0.67895243218E+01  0.33354221624E+02  0.00000000000E+00 0.  1.
         11    1    3    3    0    0  0.46405930307E+02  0.45837467523E+02 -0.21231865806E+02  0.68595742741E+02  0.00000000000E+00 0. -1.
</event>
<event>
 7    1  0.6988825E-006  0.2167458E+03  0.7561462E-02  0.1136333E+00
         -2   -1    0    0    0  501 -0.00000000000E+00  0.00000000000E+00  0.94894711731E+02  0.94894711731E+02  0.00000000000E+00 0. -1.
          2   -1    0    0  501    0  0.00000000000E+00 -0.00000000000E+00 -0.61568046922E+03  0.61568046922E+03  0.00000000000E+00 0.  1.
         23    2    1    2    0    0  0.20002302829E+03  0.41738247197E+02 -0.14893835577E+03  0.26823060291E+03  0.89519435816E+02 0.  0.
          5    1    1    2  502    0 -0.19543569945E+02 -0.44293755364E+02 -0.34085464509E+02  0.59356374394E+02  0.41800000000E+01 0.  1.
         -5    1    1    2    0  502 -0.18047945835E+03  0.25555081675E+01 -0.33776193721E+03  0.38298820365E+03  0.41800000000E+01 0.  1.
        -11    1    3    3    0    0  0.14223770291E+03  0.28335412515E+02 -0.51018434732E+02  0.15374439962E+03  0.00000000000E+00 0. -1.
         11    1    3    3    0    0  0.57785325386E+02  0.13402834682E+02 -0.97919921039E+02  0.11448620329E+03  0.00000000000E+00 0.  1.
</event>
<event>
 7    1  0.6988825E-006  0.8746827E+02  0.7561462E-02  0.1309101E+00
         -2   -1    0    0    0  501 -0.00000000000E+00  0.00000000000E+00  0.16234203888E+02  0.16234203888E+02  0.00000000000E+00 0.  1.
          2   -1    0    0  501    0  0.00000000000E+00 -0.00000000000E+00 -0.83482084511E+03  0.83482084511E+03  0.00000000000E+00 0. -1.
         23    2    1    2    0    0  0.96118775958E+01 -0.25376111310E+02 -0.21538091598E+03  0.23441360391E+03  0.88455997630E+02 0.  0.
          5    1    1    2  502    0 -0.48917873113E+02  0.14599678061E+02 -0.10575263780E+03  0.11750404976E+03  0.41800000000E+01 0.  1.
         -5    1    1    2    0  502  0.39305995517E+02  0.10776433249E+02 -0.49745308744E+03  0.49913739532E+03  0.41800000000E+01 0.  1.
        -11    1    3    3    0    0 -0.34028157563E+02 -0.17968943114E+02 -0.15401313424E+03  0.15874773681E+03  0.00000000000E+00 0. -1.
         11    1    3    3    0    0  0.43640035159E+02 -0.74071681961E+01 -0.61367781738E+02  0.75665867106E+02  0.00000000000E+00 0.  1.
</event>
<event>
 7    1  0.6988825E-006  0.1073583E+03  0.7561462E-02  0.1265542E+00
         -1   -1    0    0    0  501 -0.00000000000E+00  0.00000000000E+00  0.19368303724E+02  0.19368303724E+02  0.00000000000E+00 0.  1.
          1   -1    0    0  501    0  0.00000000000E+00 -0.00000000000E+00 -0.93911860306E+03  0.93911860306E+03  0.00000000000E+00 0. -1.
         23    2    1    2    0    0 -0.21646451663E+02 -0.40570848809E+02 -0.14955025413E+03  0.17684059709E+03  0.82418175348E+02 0.  0.
          5    1    1    2  502    0  0.60408933345E+02  0.52015011392E+02 -0.64730155681E+03  0.65220516594E+03  0.41800000000E+01 0. -1.
         -5    1    1    2    0  502 -0.38762481682E+02 -0.11444162583E+02 -0.12289848841E+03  0.12944114375E+03  0.41800000000E+01 0. -1.
        -11    1    3    3    0    0  0.29942844586E+02 -0.23153149467E+01 -0.51884575818E+02  0.59949510699E+02  0.00000000000E+00 0.  1.
         11    1    3    3    0    0 -0.51589296249E+02 -0.38255533862E+02 -0.97665678308E+02  0.11689108639E+03  0.00000000000E+00 0. -1.
</event>
<event>
 7    1  0.6988825E-006  0.9238358E+02  0.7561462E-02  0.1297180E+00
         -2   -1    0    0    0  501 -0.00000000000E+00  0.00000000000E+00  0.49375372537E+02  0.49375372537E+02  0.00000000000E+00 0.  1.
          2   -1    0    0  501    0  0.00000000000E+00 -0.00000000000E+00 -0.33012422287E+03  0.33012422287E+03  0.00000000000E+00 0. -1.
         23    2    1    2    0    0  0.52362712155E+02 -0.19147389175E+01 -0.70843910903E+02  0.12959322603E+03  0.95026441962E+02 0.  0.
          5    1    1    2  502    0 -0.77973403494E+02 -0.26889281119E+02 -0.18808773814E+03  0.20541994726E+03  0.41800000000E+01 0.  1.
         -5    1    1    2    0  502  0.25610691339E+02  0.28804020037E+02 -0.21817201293E+02  0.44486422124E+02  0.41800000000E+01 0.  1.
        -11    1    3    3    0    0  0.43282340279E+02  0.13657668331E+02  0.10242336519E+02  0.46527393454E+02  0.00000000000E+00 0.  1.
         11    1    3    3    0    0  0.90803718755E+01 -0.15572407248E+02 -0.81086247422E+02  0.83065832578E+02  0.00000000000E+00 0. -1.
</event>
<event>
 7    1  0.6988825E-006  0.1025779E+03  0.7561462E-02  0.1274967E+00
          2   -1    0    0  501    0  0.00000000000E+00  0.00000000000E+00  0.36391643450E+03  0.36391643450E+03  0.00000000000E+00 0. -1.
         -2   -1    0    0    0  501 -0.00000000000E+00 -0.00000000000E+00 -0.48865203542E+02  0.48865203542E+02  0.00000000000E+00 0.  1.
         23    2    1    2    0    0 -0.47323431787E+02  0.12156619480E+02  0.51006201258E+02  0.11654149421E+03  0.92698418073E+02 0.  0.
          5    1    1    2  502    0  0.59300707070E+01 -0.61112231077E+02  0.77627381248E+02  0.99062370481E+02  0.41800000000E+01 0. -1.
         -5    1    1    2    0  502  0.41393361080E+02  0.48955611597E+02  0.18641764845E+03  0.19717777334E+03  0.41800000000E+01 0. -1.
        -11    1    3    3    0    0 -0.68160513278E+00  0.29573145768E+02 -0.15553823016E+02  0.33420905831E+02  0.00000000000E+00 0.  1.
         11    1    3    3    0    0 -0.46641826654E+02 -0.17416526288E+02  0.66560024274E+02  0.83120588382E+02  0.00000000000E+00 0. -1.
</event>
<event>
 7    1  0.6988825E-006  0.1199135E+03  0.7561462E-02  0.1243240E+00
         -2   -1    0    0    0  501 -0.00000000000E+00  0.00000000000E+00  0.18609582256E+03  0.18609582256E+03  0.00000000000E+00 0.  1.
          2   -1    0    0  501    0  0.00000000000E+00 -0.00000000000E+00 -0.18077281003E+03  0.18077281003E+03  0.00000000000E+00 0. -1.
         23    2    1    2    0    0  0.10081464494E+03 -0.27010656448E+02  0.10712952171E+03  0.17475758956E+03  0.90389780887E+02 0.  0.
          5    1    1    2  502    0 -0.51707672767E+02 -0.29164477526E+01 -0.12072180536E+03  0.13142836748E+03  0.41800000000E+01 0.  1.
         -5    1    1    2    0  502 -0.49106972175E+02  0.29927104201E+02  0.18915296175E+02  0.60682675546E+02  0.41800000000E+01 0.  1.
        -11    1    3    3    0    0  0.27420131211E+02  0.27463079042E+02  0.61195291862E+02  0.72463425617E+02  0.00000000000E+00 0.  1.
         11    1    3    3    0    0  0.73394513732E+02 -0.54473735491E+02  0.45934229850E+02  0.10229416394E+03  0.00000000000E+00 0. -1.
</event>
<event>
 7    1  0.6988825E-006  0.1790526E+03  0.7561462E-02  0.1168723E+00
         -1   -1    0    0    0  501 -0.00000000000E+00  0.00000000000E+00  0.96694819277E+02  0.96694819277E+02  0.00000000000E+00 0.  1.
          1   -1    0    0  501    0  0.00000000000E+00 -0.00000000000E+00 -0.38446687478E+03  0.38446687478E+03  0.00000000000E+00 0. -1.
         23    2    1    2    0    0 -0.51092684617E+02 -0.14998648700E+03 -0.14944430932E+03  0.23641409051E+03  0.91932648717E+02 0.  0.
          5    1    1    2  502    0  0.84983874381E+02  0.62098358786E+02 -0.91223728062E+02  0.13934742922E+03  0.41800000000E+01 0. -1.
         -5    1    1    2    0  502 -0.33891189764E+02  0.87888128215E+02 -0.47104018123E+02  0.10540017433E+03  0.41800000000E+01 0. -1.
        -11    1    3    3    0    0 -0.17259594829E+02 -0.46318208624E+02 -0.10974535261E+03  0.12036325221E+03  0.00000000000E+00 0. -1.
         11    1    3    3    0    0 -0.33833089788E+02 -0.10366827838E+03 -0.39698956713E+02  0.11605083830E+03  0.00000000000E+00 0.  1.
</event>
<event>
 7    1  0.6988825E-006  0.1141181E+03  0.7561462E-02  0.1253128E+00
         -2   -1    0    0    0  501 -0.00000000000E+00  0.00000000000E+00  0.38267732388E+02  0.38267732388E+02  0.00000000000E+00 0.  1.
          2   -1    0    0  501    0  0.00000000000E+00 -0.00000000000E+00 -0.38601631704E+03  0.38601631704E+03  0.00000000000E+00 0. -1.
         23    2    1    2    0    0 -0.50778311391E+00  0.58162797008E+02 -0.83624240516E+02  0.12630359309E+03  0.74675399065E+02 0.  0.
          5    1    1    2  502    0 -0.44621215089E+02 -0.73488839434E+02 -0.20195057078E+03  0.21952942353E+03  0.41800000000E+01 0. -1.
         -5    1    1    2    0  502  0.45128998203E+02  0.15326042426E+02 -0.62173773351E+02  0.78451032804E+02  0.41800000000E+01 0. -1.
        -11    1    3    3    0    0  0.79096839698E+01  0.75040501130E+02 -0.62445273262E+02  0.97944127252E+02  0.00000000000E+00 0.  1.
         11    1    3    3    0    0 -0.84174670837E+01 -0.16877704122E+02 -0.21178967253E+02  0.28359465835E+02  0.00000000000E+00 0. -1.
</event>
<event>
 7    1  0.6988825E-006  0.1567957E+03  0.7561462E-02  0.1192363E+00
         -2   -1    0    0    0  501 -0.00000000000E+00  0.00000000000E+00  0.26824984383E+02  0.26824984383E+02  0.00000000000E+00 0.  1.
          2   -1    0    0  501    0  0.00000000000E+00 -0.00000000000E+00 -0.12871219920E+04  0.12871219920E+04  0.00000000000E+00 0. -1.
         23    2    1    2    0    0 -0.13710237967E+03 -0.31954006173E+02 -0.40842328376E+03  0.44150506974E+03  0.91098994883E+02 0.  0.
          5    1    1    2  502    0  0.15182267466E+03  0.29589442670E+02 -0.58496524907E+03  0.60508468389E+03  0.41800000000E+01 0.  1.
         -5    1    1    2    0  502 -0.14720294986E+02  0.23645635039E+01 -0.26690847478E+03  0.26735722274E+03  0.41800000000E+01 0.  1.
        -11    1    3    3    0    0 -0.49036622719E+02  0.17728104809E+01 -0.46873574449E+02  0.67859157130E+02  0.00000000000E+00 0.  1.
         11    1    3    3    0    0 -0.88065756952E+02 -0.33726816654E+02 -0.36154970931E+03  0.37364591262E+03  0.00000000000E+00 0. -1.
</event>
<event>
 7    1  0.6988825E-006  0.9490900E+02  0.7561462E-02  0.1291381E+00
         -2   -1    0    0    0  501 -0.00000000000E+00  0.00000000000E+00  0.21237288219E+02  0.21237288219E+02  0.00000000000E+00 0.  1.
          2   -1    0    0  501    0  0.00000000000E+00 -0.00000000000E+00 -0.52499565211E+03  0.52499565211E+03  0.00000000000E+00 0. -1.
         23    2    1    2    0    0  0.26536814564E+02 -0.34427321609E+01 -0.21706051754E+03  0.23765685250E+03  0.93002453378E+02 0.  0.
          5    1    1    2  502    0  0.72708346095E+01  0.51564764964E+02 -0.16974305602E+03  0.17760058414E+03  0.41800000000E+01 0. -1.
         -5    1    1    2    0  502 -0.33807649173E+02 -0.48122032803E+02 -0.11695479034E+03  0.13097550369E+03  0.41800000000E+01 0.  1.
        -11    1    3    3    0    0  0.49192261277E+02  0.12691810738E+02 -0.19678629217E+03  0.20323829712E+03  0.00000000000E+00 0. -1.
         11    1    3    3    0    0 -0.22655446713E+02 -0.16134542899E+02 -0.20274225369E+02  0.34418555383E+02  0.00000000000E+00 0.  1.
</event>
<event>
 7    1  0.6988825E-006  0.1422540E+03  0.7561462E-02  0.1210328E+00
          2   -1    0    0  501    0  0.00000000000E+00  0.00000000000E+00  0.55209448935E+03  0.55209448935E+03  0.00000000000E+00 0.  1.
         -2   -1    0    0    0  501 -0.00000000000E+00 -0.00000000000E+00 -0.53939472993E+02  0.53939472993E+02  0.00000000000E+00 0. -1.
         23    2    1    2    0    0 -0.16383160893E+02 -0.13060121468E+03  0.19041715484E+03  0.24871786744E+03  0.90976917344E+02 0.  0.
          5    1    1    2  502    0  0.17934793512E+02  0.11057649104E+03  0.31592805753E+03  0.33522653105E+03  0.41800000000E+01 0.  1.
         -5    1    1    2    0  502 -0.15516326183E+01  0.20024723638E+02 -0.81901960101E+01  0.22089563854E+02  0.41800000000E+01 0.  1.
        -11    1    3    3    0    0 -0.46028584563E+02 -0.62506484596E+02  0.13619179111E+03  0.15676063020E+03  0.00000000000E+00 0.  1.
         11    1    3    3    0    0  0.29645423670E+02 -0.68094730080E+02  0.54225363724E+02  0.91957237237E+02  0.00000000000E+00 0. -1.
</event>
<event>
 7    1  0.6988825E-006  0.5346853E+02  0.7561462E-02  0.1427483E+00
          2   -1    0    0  501    0  0.00000000000E+00  0.00000000000E+00  0.77649695100E+02  0.77649695100E+02  0.00000000000E+00 0. -1.
         -2   -1    0    0    0  501 -0.00000000000E+00 -0.00000000000E+00 -0.15527672911E+03  0.15527672911E+03  0.00000000000E+00 0.  1.
         23    2    1    2    0    0  0.93239999297E+01 -0.87309334114E+01 -0.25195669881E+02  0.96691795736E+02  0.92473322688E+02 0.  0.
          5    1    1    2  502    0 -0.32362171391E+02  0.28422714612E+02 -0.82611822671E+02  0.93259565129E+02  0.41800000000E+01 0. -1.
         -5    1    1    2    0  502  0.23038171462E+02 -0.19691781200E+02  0.30180458545E+02  0.42975063341E+02  0.41800000000E+01 0. -1.
        -11    1    3    3    0    0  0.20126980678E+02 -0.17414698348E+01  0.32122540345E+02  0.37947143063E+02  0.00000000000E+00 0. -1.
         11    1    3    3    0    0 -0.10802980748E+02 -0.69894635766E+01 -0.57318210226E+02  0.58744652673E+02  0.00000000000E+00 0.  1.
</event>
<event>
 7    1  0.6988825E-006  0.1652567E+03  0.7561462E-02  0.1182887E+00
         -2   -1    0    0    0  501 -0.00000000000E+00  0.00000000000E+00  0.32205523266E+02  0.32205523266E+02  0.00000000000E+00 0.  1.
          2   -1    0    0  501    0  0.00000000000E+00 -0.00000000000E+00 -0.12315037205E+04  0.12315037205E+04  0.00000000000E+00 0. -1.
         23    2    1    2    0    0  0.43574018019E+02  0.11978647782E+03 -0.23251950861E+03  0.28057337622E+03  0.91698430996E+02 0.  0.
          5    1    1    2  502    0 -0.19395854724E+02 -0.14325425252E+03 -0.78829640994E+03  0.80145285724E+03  0.41800000000E+01 0.  1.
         -5    1    1    2    0  502 -0.24178163295E+02  0.23467774706E+02 -0.17848227870E+03  0.18168301032E+03  0.41800000000E+01 0.  1.
        -11    1    3    3    0    0  0.30499063493E+02 -0.93309555448E+00 -0.22258064357E+02  0.37768835965E+02  0.00000000000E+00 0.  1.
         11    1    3    3    0    0  0.13074954527E+02  0.12071957337E+03 -0.21026144425E+03  0.24280454026E+03  0.00000000000E+00 0. -1.
</event>
<event>
 7    1  0.6988825E-006  0.1127078E+03  0.7561462E-02  0.1255636E+00
          1   -1    0    0  501    0  0.00000000000E+00  0.00000000000E+00  0.16767300231E+03  0.16767300231E+03  0.00000000000E+00 0. -1.
         -1   -1    0    0    0  501 -0.00000000000E+00 -0.00000000000E+00 -0.95422569575E+02  0.95422569575E+02  0.00000000000E+00 0.  1.
         23    2    1    2    0    0  0.13165446930E+02  0.58598144132E+02  0.38963241134E+01  0.10841050441E+03  0.90169754560E+02 0.  0.
          5    1    1    2  502    0  0.52516996507E+02 -0.83920614165E+01  0.41731251116E+02  0.67730579037E+02  0.41800000000E+01 0.  1.
         -5    1    1    2    0  502 -0.65682443437E+02 -0.50206082715E+02  0.26622857509E+02  0.86954488437E+02  0.41800000000E+01 0.  1.
        -11    1    3    3    0    0  0.27908921312E+02 -0.96838353005E+00 -0.27748230583E+02  0.39367625734E+02  0.00000000000E+00 0.  1.
         11    1    3    3    0    0 -0.14743474382E+02  0.59566527662E+02  0.31644554697E+02  0.69042878680E+02  0.00000000000E+00 0. -1.
</event>
<event>
 7    1  0.6988825E-006  0.1323620E+03  0.7561462E-02  0.1223992E+00
          1   -1    0    0  501    0  0.00000000000E+00  0.00000000000E+00  0.11414164892E+04  0.11414164892E+04  0.00000000000E+00 0. -1.
         -1   -1    0    0    0  501 -0.00000000000E+00 -0.00000000000E+00 -0.19414883536E+02  0.19414883536E+02  0.00000000000E+00 0.  1.
         23    2    1    2    0    0  0.42452545546E+02 -0.89217826244E+02  0.42988585594E+03  0.45059592703E+03  0.92047820017E+02 0.  0.
          5    1    1    2  502    0  0.25663700446E+02  0.23140845630E+02  0.48786738071E+02  0.59931147734E+02  0.41800000000E+01 0.  1.
         -5    1    1    2    0  502 -0.68116245992E+02  0.66076980615E+02  0.64332901166E+03  0.65030429798E+03  0.41800000000E+01 0.  1.
        -11    1    3    3    0    0  0.71824708356E+02 -0.64505492099E+02  0.31572614574E+03  0.33015563958E+03  0.00000000000E+00 0. -1.
         11    1    3    3    0    0 -0.29372162810E+02 -0.24712334145E+02  0.11415971020E+03  0.12044028745E+03  0.00000000000E+00 0.  1.
</event>
<event>
 7    1  0.6988825E-006  0.8991008E+02  0.7561462E-02  0.1303070E+00
         -2   -1    0    0    0  501 -0.00000000000E+00  0.00000000000E+00  0.67170176205E+02  0.67170176205E+02  0.00000000000E+00 0.  1.
          2   -1    0    0  501    0  0.00000000000E+00 -0.00000000000E+00 -0.44617963354E+03  0.44617963354E+03  0.00000000000E+00 0. -1.
         23    2    1    2    0    0  0.28467482038E+02 -0.58839503664E+01  0.18027981114E+02  0.95629638057E+02  0.89302862028E+02 0.  0.
          5    1    1    2  502    0 -0.17162416080E+02  0.43213140722E+02 -0.36238482379E+03  0.36537946982E+03  0.41800000000E+01 0. -1.
         -5    1    1    2    0  502 -0.11305065959E+02 -0.37329190355E+02 -0.34652614663E+02  0.52340701867E+02  0.41800000000E+01 0.  1.
        -11    1    3    3    0    0 -0.21815851414E+02  0.26328832384E+02  0.60596673032E+01  0.34725471278E+02  0.00000000000E+00 0. -1.
         11    1    3    3    0    0  0.50283333453E+02 -0.32212782750E+02  0.11968313810E+02  0.60904166779E+02  0.00000000000E+00 0.  1.
</event>
<event>
 7    1  0.6988825E-006  0.9742176E+02  0.7561462E-02  0.1285813E+00
         -2   -1    0    0    0  501 -0.00000000000E+00  0.00000000000E+00  0.22754342116E+02  0.22754342116E+02  0.00000000000E+00 0.  1.
          2   -1    0    0  501    0  0.00000000000E+00 -0.00000000000E+00 -0.74604329573E+03  0.74604329573E+03  0.00000000000E+00 0. -1.
         23    2    1    2    0    0 -0.17005011086E+02  0.36074056334E+02 -0.16234019878E+03  0.19029068599E+03  0.90915879210E+02 0.  0.
          5    1    1    2  502    0  0.54349224911E+02 -0.64891265070E+02 -0.44942671384E+03  0.45734730572E+03  0.41800000000E+01 0. -1.
         -5    1    1    2    0  502 -0.37344213825E+02  0.28817208736E+02 -0.11152204100E+03  0.12115964615E+03  0.41800000000E+01 0.  1.
        -11    1    3    3    0    0  0.12237569909E+02  0.30645518875E+02 -0.91552077623E+01  0.34245054732E+02  0.00000000000E+00 0.  1.
         11    1    3    3    0    0 -0.29242580995E+02  0.54285374588E+01 -0.15318499101E+03  0.15604563126E+03  0.00000000000E+00 0. -1.
</event>
<event>
 7    1  0.6988825E-006  0.1152298E+03  0.7561462E-02  0.1251181E+00
          1   -1    0    0  501    0  0.00000000000E+00  0.00000000000E+00  0.70815282000E+03  0.70815282000E+03  0.00000000000E+00 0. -1.
         -1   -1    0    0    0  501 -0.00000000000E+00 -0.00000000000E+00 -0.30752067600E+02  0.30752067600E+02  0.00000000000E+00 0.  1.
         23    2    1    2    0    0 -0.44301382465E+02  0.87287583774E+02  0.24784985328E+03  0.28092693861E+03  0.88930648792E+02 0.  0.
          5    1    1    2  502    0 -0.27184145023E+02 -0.24956434916E+02  0.26828181293E+03  0.27084018338E+03  0.41800000000E+01 0.  1.
         -5    1    1    2    0  502  0.71485527488E+02 -0.62331148858E+02  0.16126908619E+03  0.18713776561E+03  0.41800000000E+01 0.  1.
        -11    1    3    3    0    0 -0.15279701256E+02  0.40967713896E+02  0.22756359029E+02  0.49291730834E+02  0.00000000000E+00 0.  1.
         11    1    3    3    0    0 -0.29021681209E+02  0.46319869878E+02  0.22509349425E+03  0.23163520778E+03  0.00000000000E+00 0. -1.
</event>
<event>
 7    1  0.6988825E-006  0.7850514E+02  0.7561462E-02  0.1333348E+00
         -2   -1    0    0    0  501 -0.00000000000E+00  0.00000000000E+00  0.13023379799E+03  0.13023379799E+03  0.00000000000E+00 0.  1.
          2   -1    0    0  501    0  0.00000000000E+00 -0.00000000000E+00 -0.13344205493E+03  0.13344205493E+03  0.00000000000E+00 0. -1.
         23    2    1    2    0    0 -0.28453502248E+01  0.30766262603E+01  0.73550404948E+02  0.11685697035E+03  0.90710130665E+02 0.  0.
          5    1    1    2  502    0 -0.28911413407E+02  0.17145451088E+02 -0.97791393401E+02  0.10349137810E+03  0.41800000000E+01 0.  1.
         -5    1    1    2    0  502  0.31756763632E+02 -0.20222077348E+02  0.21032731513E+02  0.43327504470E+02  0.41800000000E+01 0.  1.
        -11    1    3    3    0    0  0.40792753673E+02 -0.42346225645E+01  0.55643609468E+02  0.69124467847E+02  0.00000000000E+00 0.  1.
         11    1    3    3    0    0 -0.43638103898E+02  0.73112488248E+01  0.17906795480E+02  0.47732502507E+02  0.00000000000E+00 0. -1.
</event>
<event>
 7    1  0.6988825E-006  0.2217915E+03  0.7561462E-02  0.1132554E+00
          1   -1    0    0  501    0  0.00000000000E+00  0.00000000000E+00  0.19659528947E+03  0.19659528947E+03  0.00000000000E+00 0. -1.
         -1   -1    0    0    0  501 -0.00000000000E+00 -0.00000000000E+00 -0.29423479343E+03  0.29423479343E+03  0.00000000000E+00 0.  1.
         23    2    1    2    0    0 -0.16410803011E+03  0.11105522486E+03 -0.12896585055E+03  0.25441131842E+03  0.93958606936E+02 0.  0.
          5    1    1    2  502    0  0.13656625998E+03 -0.31786279149E+02  0.52481971293E+02  0.14977496660E+03  0.41800000000E+01 0. -1.
         -5    1    1    2    0  502  0.27541770130E+02 -0.79268945706E+02 -0.21155624692E+02  0.86643797882E+02  0.41800000000E+01 0. -1.
        -11    1    3    3    0    0 -0.76549174750E+02 -0.16446575475E+01 -0.46600919318E+02  0.89633290326E+02  0.00000000000E+00 0. -1.
         11    1    3    3    0    0 -0.87558855364E+02  0.11269988240E+03 -0.82364931235E+02  0.16477802810E+03  0.00000000000E+00 0.  1.
</event>
<event>
 7    1  0.6988825E-006  0.1285931E+03  0.7561462E-02  0.1229558E+00
          2   -1    0    0  501    0  0.00000000000E+00  0.00000000000E+00  0.78390802544E+03  0.78390802544E+03  0.00000000000E+00 0.  1.
         -2   -1    0    0    0  501 -0.00000000000E+00 -0.00000000000E+00 -0.24190749765E+02  0.24190749765E+02  0.00000000000E+00 0. -1.
         23    2    1    2    0    0 -0.36530412630E+02 -0.73073432898E+02  0.28476623672E+03  0.31020526567E+03  0.91985322926E+02 0.  0.
          5    1    1    2  502    0  0.82033297334E+02  0.42137169782E+02  0.25744118329E+03  0.27349303136E+03  0.41800000000E+01 0.  1.
         -5    1    1    2    0  502 -0.45502884704E+02  0.30936263116E+02  0.21750985567E+03  0.22440047818E+03  0.41800000000E+01 0.  1.
        -11    1    3    3    0    0 -0.31125756827E+02  0.49150854988E+01  0.15922614715E+03  0.16231431465E+03  0.00000000000E+00 0.  1.
         11    1    3    3    0    0 -0.54046558034E+01 -0.77988518397E+02  0.12554008957E+03  0.14789095103E+03  0.00000000000E+00 0. -1.
</event>
<event>
 7    1  0.6988825E-006  0.1367940E+03  0.7561462E-02  0.1217709E+00
         -3   -1    0    0    0  501 -0.00000000000E+00  0.00000000000E+00  0.46149601619E+03  0.46149601619E+03  0.00000000000E+00 0.  1.
          3   -1    0    0  501    0  0.00000000000E+00 -0.00000000000E+00 -0.60119054837E+02  0.60119054837E+02  0.00000000000E+00 0. -1.
         23    2    1    2    0    0 -0.45867436524E+02  0.11747891475E+03  0.19981141784E+03  0.25295085325E+03  0.90301795757E+02 0.  0.
          5    1    1    2  502    0  0.28529074154E+01 -0.64704885064E+02  0.10447105608E+02  0.65737931573E+02  0.41800000000E+01 0. -1.
         -5    1    1    2    0  502  0.43014529109E+02 -0.52774029691E+02  0.19111843791E+03  0.20292628620E+03  0.41800000000E+01 0. -1.
        -11    1    3    3    0    0 -0.40734172711E+01  0.90798520019E+02  0.72302908190E+02  0.11614075296E+03  0.00000000000E+00 0. -1.
         11    1    3    3    0    0 -0.41794019253E+02  0.26680394736E+02  0.12750850965E+03  0.13681010029E+03  0.00000000000E+00 0.  1.
</event>
<event>
 7    1  0.6988825E-006  0.1152291E+03  0.7561462E-02  0.1251182E+00
          2   -1    0    0  501    0  0.00000000000E+00  0.00000000000E+00  0.37238439427E+03  0.37238439427E+03  0.00000000000E+00 0. -1.
         -2   -1    0    0    0  501 -0.00000000000E+00 -0.00000000000E+00 -0.36892688340E+02  0.36892688340E+02  0.00000000000E+00 0.  1.
         23    2    1    2    0    0 -0.17186287741E+02  0.40291221089E+02  0.12560272587E+03  0.16104165009E+03  0.90772337948E+02 0.  0.
          5    1    1    2  502    0 -0.78846584885E+01  0.42399508397E+02  0.95038869684E+02  0.10444972620E+03  0.41800000000E+01 0. -1.
         -5    1    1    2    0  502  0.25070946230E+02 -0.82690729486E+02  0.11485011038E+03  0.14378570632E+03  0.41800000000E+01 0. -1.
        -11    1    3    3    0    0  0.10649086806E+02 -0.26338887004E+02  0.39738500110E+02  0.48849651068E+02  0.00000000000E+00 0. -1.
         11    1    3    3    0    0 -0.27835374547E+02  0.66630108093E+02  0.85864225756E+02  0.11219199903E+03  0.00000000000E+00 0.  1.
</event>
<event>
 7    1  0.6988825E-006  0.1018847E+03  0.7561462E-02  0.1276382E+00
         -1   -1    0    0    0  501 -0.00000000000E+00  0.00000000000E+00  0.25255099897E+03  0.25255099897E+03  0.00000000000E+00 0.  1.
          1   -1    0    0  501    0  0.00000000000E+00 -0.00000000000E+00 -0.57499270319E+02  0.57499270319E+02  0.00000000000E+00 0. -1.
         23    2    1    2    0    0  0.40552220304E+02 -0.11156683077E+02  0.99877145634E+02  0.14733939187E+03  0.99822332310E+02 0.  0.
          5    1    1    2  502    0 -0.84188775168E+02 -0.66451807220E+01  0.64117698765E+02  0.10611531457E+03  0.41800000000E+01 0.  1.
         -5    1    1    2    0  502  0.43636554864E+02  0.17801863799E+02  0.31056884255E+02  0.56595562854E+02  0.41800000000E+01 0.  1.
        -11    1    3    3    0    0 -0.14151259580E+02 -0.97424477677E+01 -0.13234003597E+02  0.21686684565E+02  0.00000000000E+00 0. -1.
         11    1    3    3    0    0  0.54703479884E+02 -0.14142353092E+01  0.11311114923E+03  0.12565270731E+03  0.00000000000E+00 0.  1.
</event>
<event>
 7    1  0.6988825E-006  0.3059252E+03  0.7561462E-02  0.1082316E+00
         -1   -1    0    0    0  501 -0.00000000000E+00  0.00000000000E+00  0.20411856208E+03  0.20411856208E+03  0.00000000000E+00 0.  1.
          1   -1    0    0  501    0  0.00000000000E+00 -0.00000000000E+00 -0.49362206477E+03  0.49362206477E+03  0.00000000000E+00 0. -1.
         23    2    1    2    0    0  0.29848279262E+03 -0.16790046123E+02 -0.14081032357E+03  0.34118728206E+03  0.84896001537E+02 0.  0.
          5    1    1    2  502    0 -0.12302296498E+03  0.24235844322E+02 -0.12873466851E+03  0.17975570460E+03  0.41800000000E+01 0.  1.
         -5    1    1    2    0  502 -0.17545982765E+03 -0.74457981994E+01 -0.19958510619E+02  0.17679764019E+03  0.41800000000E+01 0.  1.
        -11    1    3    3    0    0  0.12046062141E+03 -0.48579843582E+02 -0.55863813559E+02  0.14139140065E+03  0.00000000000E+00 0.  1.
         11    1    3    3    0    0  0.17802217122E+03  0.31789797459E+02 -0.84946510006E+02  0.19979588141E+03  0.00000000000E+00 0. -1.
</event>
<event>
 7    1  0.6988825E-006  0.1235850E+03  0.7561462E-02  0.1237297E+00
         -2   -1    0    0    0  501 -0.00000000000E+00  0.00000000000E+00  0.10565866032E+03  0.10565866032E+03  0.00000000000E+00 0.  1.
          2   -1    0    0  501    0  0.00000000000E+00 -0.00000000000E+00 -0.17264804062E+03  0.17264804062E+03  0.00000000000E+00 0. -1.
         23    2    1    2    0    0  0.24619279573E+02  0.75323673509E+02 -0.16398638251E+02  0.12183752281E+03  0.91080743910E+02 0.  0.
          5    1    1    2  502    0  0.10903845858E+01  0.33897851513E+02 -0.23262588207E+01  0.34251089849E+02  0.41800000000E+01 0.  1.
         -5    1    1    2    0  502 -0.25709664159E+02 -0.10922152502E+03 -0.48264483229E+02  0.12221808827E+03  0.41800000000E+01 0.  1.
        -11    1    3    3    0    0 -0.20650979755E+02  0.16189572841E+02 -0.36262508973E+02  0.44760862264E+02  0.00000000000E+00 0.  1.
         11    1    3    3    0    0  0.45270259328E+02  0.59134100668E+02  0.19863870721E+02  0.77076660549E+02  0.00000000000E+00 0. -1.
</event>
<event>
 7    1  0.6988825E-006  0.1171224E+03  0.7561462E-02  0.1247921E+00
         -2   -1    0    0    0  501 -0.00000000000E+00  0.00000000000E+00  0.10668485651E+02  0.10668485651E+02  0.00000000000E+00 0.  1.
          2   -1    0    0  501    0  0.00000000000E+00 -0.00000000000E+00 -0.13500570972E+04  0.13500570972E+04  0.00000000000E+00 0. -1.
         23    2    1    2    0    0  0.48576043800E+02  0.37793687658E+02 -0.54776627257E+03  0.55692121593E+03  0.79532110100E+02 0.  0.
          5    1    1    2  502    0 -0.19234967841E+02  0.43247885479E+02 -0.39850261350E+03  0.40132551495E+03  0.41800000000E+01 0. -1.
         -5    1    1    2    0  502 -0.29341075958E+02 -0.81041573137E+02 -0.39311972544E+03  0.40247885192E+03  0.41800000000E+01 0. -1.
        -11    1    3    3    0    0  0.48225734636E+02  0.60701519051E+02 -0.43422688689E+03  0.44109339736E+03  0.00000000000E+00 0.  1.
         11    1    3    3    0    0  0.35030916355E+00 -0.22907831393E+02 -0.11353938568E+03  0.11582781857E+03  0.00000000000E+00 0. -1.
</event>
<event>
 7    1  0.6988825E-006  0.1273456E+03  0.7561462E-02  0.1231448E+00
          1   -1    0    0  501    0  0.00000000000E+00  0.00000000000E+00  0.21261644079E+03  0.21261644079E+03  0.00000000000E+00 0. -1.
         -1   -1    0    0    0  501 -0.00000000000E+00 -0.00000000000E+00 -0.10724405857E+03  0.10724405857E+03  0.00000000000E+00 0.  1.
         23    2    1    2    0    0  0.51954788946E+02  0.81298479181E+02  0.46989305879E+01  0.13253464239E+03  0.90744744600E+02 0.  0.
          5    1    1    2  502    0 -0.51822877737E+02  0.20516894417E+02  0.39968843837E+02  0.68713422932E+02  0.41800000000E+01 0. -1.
         -5    1    1    2    0  502 -0.13191120860E+00 -0.10181537360E+03  0.60704607794E+02  0.11861243404E+03  0.41800000000E+01 0. -1.
        -11    1    3    3    0    0  0.33306716362E+02  0.59695938778E+02 -0.40222686941E+02  0.79314607773E+02  0.00000000000E+00 0.  1.
         11    1    3    3    0    0  0.18648072583E+02  0.21602540404E+02  0.44921617529E+02  0.53220034615E+02  0.00000000000E+00 0. -1.
</event>
<event>
 7    1  0.6988825E-006  0.1088516E+03  0.7561462E-02  0.1262711E+00
         -2   -1    0    0    0  501 -0.00000000000E+00  0.00000000000E+00  0.30156275472E+02  0.30156275472E+02  0.00000000000E+00 0. -1.
          2   -1    0    0  501    0  0.00000000000E+00 -0.00000000000E+00 -0.68677895724E+03  0.68677895724E+03  0.00000000000E+00 0.  1.
         23    2    1    2    0    0  0.67908589379E+02 -0.28677588584E+02 -0.16252644341E+03  0.20194749558E+03  0.94519657033E+02 0.  0.
          5    1    1    2  502    0  0.33607669764E+02 -0.78817332043E+01 -0.83963465245E+02  0.90878672312E+02  0.41800000000E+01 0.  1.
         -5    1    1    2    0  502 -0.10151625914E+03  0.36559321789E+02 -0.41013277311E+03  0.42410906482E+03  0.41800000000E+01 0.  1.
        -11    1    3    3    0    0  0.20137850513E+02 -0.20001802804E+01  0.88212667617E+01  0.22075970912E+02  0.00000000000E+00 0. -1.
         11    1    3    3    0    0  0.47770738866E+02 -0.26677408304E+02 -0.17134771017E+03  0.17987152467E+03  0.00000000000E+00 0.  1.
</event>
<event>
 7    1  0.6988825E-006  0.9958890E+02  0.7561462E-02  0.1281163E+00
          2   -1    0    0  501    0  0.00000000000E+00  0.00000000000E+00  0.98719150413E+03  0.98719150413E+03  0.00000000000E+00 0. -1.
         -2   -1    0    0    0  501 -0.00000000000E+00 -0.00000000000E+00 -0.13870810454E+02  0.13870810454E+02  0.00000000000E+00 0.  1.
         23    2    1    2    0    0  0.42529280677E+02 -0.13932140277E+02  0.40091686472E+03  0.41344783025E+03  0.90564516617E+02 0.  0.
          5    1    1    2  502    0 -0.69254423207E+02  0.15928268054E+02  0.17006347884E+03  0.18436090717E+03  0.41800000000E+01 0. -1.
         -5    1    1    2    0  502  0.26725142530E+02 -0.19961277774E+01  0.40234035011E+03  0.40325357717E+03  0.41800000000E+01 0. -1.
        -11    1    3    3    0    0  0.36648866910E+02  0.35538321750E+02  0.19164267607E+03  0.19832555824E+03  0.00000000000E+00 0.  1.
         11    1    3    3    0    0  0.58804137675E+01 -0.49470462026E+02  0.20927418865E+03  0.21512227201E+03  0.00000000000E+00 0. -1.
</event>
<event>
 7    1  0.6988825E-006  0.6568795E+02  0.7561462E-02  0.1375402E+00
          1   -1    0    0  501    0  0.00000000000E+00  0.00000000000E+00  0.37648441356E+02  0.37648441356E+02  0.00000000000E+00 0. -1.
         -1   -1    0    0    0  501 -0.00000000000E+00 -0.00000000000E+00 -0.34989316906E+03  0.34989316906E+03  0.00000000000E+00 0.  1.
         23    2    1    2    0    0  0.34210405676E+02 -0.40011980435E+02 -0.12802658761E+03  0.15872908990E+03  0.77671142713E+02 0.  0.
          5    1    1    2  502    0 -0.36117992112E+02  0.50534875298E+02 -0.19990366765E+03  0.20937342648E+03  0.41800000000E+01 0. -1.
         -5    1    1    2    0  502  0.19075864356E+01 -0.10522894863E+02  0.15685527556E+02  0.19439094038E+02  0.41800000000E+01 0. -1.
        -11    1    3    3    0    0  0.11732606271E+02  0.13748329753E-01  0.86323222668E+01  0.14566098539E+02  0.00000000000E+00 0. -1.
         11    1    3    3    0    0  0.22477799405E+02 -0.40025728765E+02 -0.13665890988E+03  0.14416299136E+03  0.00000000000E+00 0.  1.
</event>
<event>
 7    1  0.6988825E-006  0.1016735E+03  0.7561462E-02  0.1276816E+00
          2   -1    0    0  501    0  0.00000000000E+00  0.00000000000E+00  0.11935069681E+04  0.11935069681E+04  0.00000000000E+00 0. -1.
         -2   -1    0    0    0  501 -0.00000000000E+00 -0.00000000000E+00 -0.16143234215E+02  0.16143234215E+02  0.00000000000E+00 0.  1.
         23    2    1    2    0    0  0.16666350590E+02  0.15291175723E+02  0.15703946293E+03  0.18143793386E+03  0.88015587413E+02 0.  0.
          5    1    1    2  502    0 -0.54341008562E+02 -0.43538334788E+02  0.79077935500E+03  0.79385010708E+03  0.41800000000E+01 0.  1.
         -5    1    1    2    0  502  0.37674657972E+02  0.28247159065E+02  0.22954491599E+03  0.23436216142E+03  0.41800000000E+01 0.  1.
        -11    1    3    3    0    0  0.50767191587E+02  0.11022840603E+02  0.12078526842E+03  0.13148342794E+03  0.00000000000E+00 0. -1.
         11    1    3    3    0    0 -0.34100840997E+02  0.42683351199E+01  0.36254194513E+02  0.49954505914E+02  0.00000000000E+00 0.  1.
</event>
<event>
 7    1  0.6988825E-006  0.1224966E+03  0.7561462E-02  0.1239034E+00
         -1   -1    0    0    0  501 -0.00000000000E+00  0.00000000000E+00  0.44337797533E+03  0.44337797533E+03  0.00000000000E+00 0.  1.
          1   -1    0    0  501    0  0.00000000000E+00 -0.00000000000E+00 -0.36080887608E+02  0.36080887608E+02  0.00000000000E+00 0. -1.
         23    2    1    2    0    0 -0.65872958250E+02  0.69111662206E+01  0.18868482926E+03  0.21902666877E+03  0.89351586389E+02 0.  0.
          5    1    1    2  502    0  0.97504733067E+02 -0.20846814919E+02  0.19277746446E+03  0.21707691233E+03  0.41800000000E+01 0.  1.
         -5    1    1    2    0  502 -0.31631774817E+02  0.13935648698E+02  0.25834794001E+02  0.43355281844E+02  0.41800000000E+01 0.  1.
        -11    1    3    3    0    0 -0.88008818700E+02  0.63369232711E+01  0.16080770969E+03  0.18342526615E+03  0.00000000000E+00 0.  1.
         11    1    3    3    0    0  0.22135860450E+02  0.57424294941E+00  0.27877119574E+02  0.35601402621E+02  0.00000000000E+00 0. -1.
</event>
<event>
 7    1  0.6988825E-006  0.1472737E+03  0.7561462E-02  0.1203864E+00
          1   -1    0    0  501    0  0.00000000000E+00  0.00000000000E+00  0.29061626701E+03  0.29061626701E+03  0.00000000000E+00 0. -1.
         -1   -1    0    0    0  501 -0.00000000000E+00 -0.00000000000E+00 -0.11928570763E+03  0.11928570763E+03  0.00000000000E+00 0.  1.
         23    2    1    2    0    0 -0.11236121576E+03 -0.28266953925E+02 -0.24911883839E+02  0.14993615031E+03  0.91848700175E+02 0.  0.
          5    1    1    2  502    0  0.78376561644E+02  0.77614332439E+02  0.13027049515E+03  0.17074760414E+03  0.41800000000E+01 0. -1.
         -5    1    1    2    0  502  0.33984654113E+02 -0.49347378514E+02  0.65971948074E+02  0.89218220191E+02  0.41800000000E+01 0. -1.
        -11    1    3    3    0    0 -0.64689898166E+02  0.66207122812E+01 -0.53594460122E+02  0.84267330038E+02  0.00000000000E+00 0.  1.
         11    1    3    3    0    0 -0.47671317592E+02 -0.34887666206E+02  0.28682576283E+02  0.65668820276E+02  0.00000000000E+00 0. -1.
</event>
<event>
 7    1  0.6988825E-006  0.1581943E+03  0.7561462E-02  0.1190751E+00
          1   -1    0    0  501    0  0.00000000000E+00  0.00000000000E+00  0.30129533400E+02  0.30129533400E+02  0.00000000000E+00 0. -1.
         -1   -1    0    0    0  501 -0.00000000000E+00 -0.00000000000E+00 -0.10010373361E+04  0.10010373361E+04  0.00000000000E+00 0.  1.
         23    2    1    2    0    0  0.38180970606E+02 -0.11609150467E+03 -0.63466209975E+03  0.65216068955E+03  0.87077897050E+02 0.  0.
          5    1    1    2  502    0 -0.67643593644E+02  0.23606947422E+02 -0.96002441147E+02  0.11986194072E+03  0.41800000000E+01 0.  1.
         -5    1    1    2    0  502  0.29462623038E+02  0.92484557250E+02 -0.24024326179E+03  0.25914423922E+03  0.41800000000E+01 0.  1.
        -11    1    3    3    0    0  0.64262305090E+02 -0.89892394734E+02 -0.41755795507E+03  0.43193162923E+03  0.00000000000E+00 0.  1.
         11    1    3    3    0    0 -0.26081334484E+02 -0.26199109938E+02 -0.21710414468E+03  0.22022906032E+03  0.00000000000E+00 0. -1.
</event>
<event>
 7    1  0.6988825E-006  0.2105978E+03  0.7561462E-02  0.1141093E+00
          2   -1    0    0  501    0  0.00000000000E+00  0.00000000000E+00  0.80933015067E+03  0.80933015067E+03  0.00000000000E+00 0. -1.
         -2   -1    0    0    0  501 -0.00000000000E+00 -0.00000000000E+00 -0.62777219340E+02  0.62777219340E+02  0.00000000000E+00 0.  1.
         23    2    1    2    0    0 -0.18163203865E+02 -0.19360038034E+03  0.29172922354E+03  0.36218324740E+03  0.90883197494E+02 0.  0.
          5    1    1    2  502    0  0.37830729684E+02  0.12134737919E+02  0.39209583088E+02  0.55975707041E+02  0.41800000000E+01 0. -1.
         -5    1    1    2    0  502 -0.19667525819E+02  0.18146564242E+03  0.41561412470E+03  0.45394841557E+03  0.41800000000E+01 0.  1.
        -11    1    3    3    0    0 -0.29753428998E+02 -0.16736897416E+03  0.28634672853E+03  0.33300463809E+03  0.00000000000E+00 0. -1.
         11    1    3    3    0    0  0.11590225133E+02 -0.26231406179E+02  0.53824950108E+01  0.29178609310E+02  0.00000000000E+00 0.  1.
</event>
<event>
 7    1  0.6988825E-006  0.2271509E+03  0.7561462E-02  0.1128661E+00
          1   -1    0    0  501    0  0.00000000000E+00  0.00000000000E+00  0.27934498388E+04  0.27934498388E+04  0.00000000000E+00 0. -1.
         -1   -1    0    0    0  501 -0.00000000000E+00 -0.00000000000E+00 -0.25010233765E+02  0.25010233765E+02  0.00000000000E+00 0.  1.
         23    2    1    2    0    0  0.21497291920E+03 -0.12100944234E+02  0.75843930798E+03  0.79355503002E+03  0.90219803511E+02 0.  0.
          5    1    1    2  502    0 -0.21425813614E+03  0.18988056611E+02  0.20020080130E+04  0.20135343682E+04  0.41800000000E+01 0. -1.
         -5    1    1    2    0  502 -0.71478306394E+00 -0.68871123773E+01  0.79922840494E+01  0.11370674389E+02  0.41800000000E+01 0.  1.
        -11    1    3    3    0    0  0.21869543684E+03 -0.29410509944E+00  0.68453027766E+03  0.71861636610E+03  0.00000000000E+00 0.  1.
         11    1    3    3    0    0 -0.37225176398E+01 -0.11806839134E+02  0.73909030314E+02  0.74938663919E+02  0.00000000000E+00 0. -1.
</event>
<event>
 7    1  0.6988825E-006  0.2315845E+03  0.7561462E-02  0.1125529E+00
         -1   -1    0    0    0  501 -0.00000000000E+00  0.00000000000E+00  0.76251715683E+03  0.76251715683E+03  0.00000000000E+00 0.  1.
          1   -1    0    0  501    0  0.00000000000E+00 -0.00000000000E+00 -0.98544275820E+02  0.98544275820E+02  0.00000000000E+00 0. -1.
         23    2    1    2    0    0  0.13450214219E+03  0.17637857991E+03  0.51079318370E+03  0.56389472581E+03  0.88698114838E+02 0.  0.
          5    1    1    2  502    0 -0.66267698436E+02 -0.19661803437E+02  0.25426792016E+01  0.69295973822E+02  0.41800000000E+01 0. -1.
         -5    1    1    2    0  502 -0.68234443751E+02 -0.15671677647E+03  0.15063701811E+03  0.22787073302E+03  0.41800000000E+01 0. -1.
        -11    1    3    3    0    0  0.12455378488E+03  0.17123277768E+03  0.51052236291E+03  0.55269104617E+03  0.00000000000E+00 0.  1.
         11    1    3    3    0    0  0.99483573030E+01  0.51458022276E+01  0.27082078948E+00  0.11203679641E+02  0.00000000000E+00 0. -1.
</event>
<event>
 7    1  0.6988825E-006  0.9844737E+02  0.7561462E-02  0.1283595E+00
         -2   -1    0    0    0  501 -0.00000000000E+00  0.00000000000E+00  0.19129474102E+02  0.19129474102E+02  0.00000000000E+00 0.  1.
          2   -1    0    0  501    0  0.00000000000E+00 -0.00000000000E+00 -0.70665664903E+03  0.70665664903E+03  0.00000000000E+00 0. -1.
         23    2    1    2    0    0  0.79114671106E+01  0.34579823565E+02 -0.21585829363E+03  0.23652319844E+03  0.89944788413E+02 0.  0.
          5    1    1    2  502    0 -0.60852403599E+02 -0.17392412886E+02 -0.34585610600E+03  0.35162398881E+03  0.41800000000E+01 0. -1.
         -5    1    1    2    0  502  0.52940936488E+02 -0.17187410679E+02 -0.12581277530E+03  0.13763893589E+03  0.41800000000E+01 0. -1.
        -11    1    3    3    0    0  0.32229700607E+02  0.41331131305E+02 -0.64665648594E+02  0.83238585549E+02  0.00000000000E+00 0.  1.
         11    1    3    3    0    0 -0.24318233496E+02 -0.67513077400E+01 -0.15119264504E+03  0.15328461289E+03  0.00000000000E+00 0. -1.
</event>
<event>
 7    1  0.6988825E-006  0.1295787E+03  0.7561462E-02  0.1228082E+00
          1   -1    0    0  501    0  0.00000000000E+00  0.00000000000E+00  0.72973524733E+02  0.72973524733E+02  0.00000000000E+00 0. -1.
         -1   -1    0    0    0  501 -0.00000000000E+00 -0.00000000000E+00 -0.26797669242E+03  0.26797669242E+03  0.00000000000E+00 0.  1.
         23    2    1    2    0    0  0.51056108922E+02 -0.55094422827E+02 -0.14341800493E+03  0.18619015413E+03  0.91956118177E+02 0.  0.
          5    1    1    2  502    0  0.28526813564E+02 -0.18334750481E+02 -0.27234970361E+02  0.43693914655E+02  0.41800000000E+01 0.  1.
         -5    1    1    2    0  502 -0.79582922486E+02  0.73429173308E+02 -0.24350192393E+02  0.11106614837E+03  0.41800000000E+01 0.  1.
        -11    1    3    3    0    0  0.63622703017E+02 -0.37139250415E+01 -0.60740539446E+02  0.88040074458E+02  0.00000000000E+00 0. -1.
         11    1    3    3    0    0 -0.12566594095E+02 -0.51380497786E+02 -0.82677465488E+02  0.98150079671E+02  0.00000000000E+00 0.  1.
</event>
<event>
 7    1  0.6988825E-006  0.1681691E+03  0.7561462E-02  0.1179771E+00
          4   -1    0    0  501    0  0.00000000000E+00  0.00000000000E+00  0.45943444547E+02  0.45943444547E+02  0.00000000000E+00 0. -1.
         -4   -1    0    0    0  501 -0.00000000000E+00 -0.00000000000E+00 -0.66657712706E+03  0.66657712706E+03  0.00000000000E+00 0.  1.
         23    2    1    2    0    0  0.53198208620E+02 -0.12236515682E+03 -0.34937818465E+03  0.38539466023E+03  0.93062598403E+02 0.  0.
          5    1    1    2  502    0  0.31573364251E+02  0.63857619451E+02 -0.64917137996E+02  0.96469581204E+02  0.41800000000E+01 0. -1.
         -5    1    1    2    0  502 -0.84771572871E+02  0.58507537370E+02 -0.20633835988E+03  0.23065633018E+03  0.41800000000E+01 0. -1.
        -11    1    3    3    0    0  0.77528375606E+02 -0.71309779897E+02 -0.24485402119E+03  0.26655060575E+03  0.00000000000E+00 0.  1.
         11    1    3    3    0    0 -0.24330166986E+02 -0.51055376924E+02 -0.10452416345E+03  0.11884405447E+03  0.00000000000E+00 0. -1.
</event>
<event>
 7    1  0.6988825E-006  0.1084265E+03  0.7561462E-02  0.1263512E+00
          1   -1    0    0  501    0  0.00000000000E+00  0.00000000000E+00  0.17366617328E+04  0.17366617328E+04  0.00000000000E+00 0. -1.
         -1   -1    0    0    0  501 -0.00000000000E+00 -0.00000000000E+00 -0.91606097158E+01  0.91606097158E+01  0.00000000000E+00 0.  1.
         23    2    1    2    0    0 -0.47936505982E+01 -0.15668251042E+02  0.32641075540E+03  0.33906317446E+03  0.90285003500E+02 0.  0.
          5    1    1    2  502    0 -0.54884865826E+02  0.32479945981E+02  0.68114578960E+03  0.68413767217E+03  0.41800000000E+01 0.  1.
         -5    1    1    2    0  502  0.59678516424E+02 -0.16811694939E+02  0.71994457810E+03  0.72262149590E+03  0.41800000000E+01 0.  1.
        -11    1    3    3    0    0  0.13304434535E+02 -0.50134502247E+02  0.16175396991E+03  0.16986707473E+03  0.00000000000E+00 0.  1.
         11    1    3    3    0    0 -0.18098085133E+02  0.34466251205E+02  0.16465678549E+03  0.16919609973E+03  0.00000000000E+00 0. -1.
</event>
<event>
 7    1  0.6988825E-006  0.1109723E+03  0.7561462E-02  0.1258780E+00
          2   -1    0    0  501    0  0.00000000000E+00  0.00000000000E+00  0.42382204490E+03  0.42382204490E+03  0.00000000000E+00 0.  1.
         -2   -1    0    0    0  501 -0.00000000000E+00 -0.00000000000E+00 -0.55025402081E+02  0.55025402081E+02  0.00000000000E+00 0. -1.
         23    2    1    2    0    0 -0.12930290423E+02  0.72386842037E+02  0.48665956791E+02  0.12736783623E+03  0.91908340452E+02 0.  0.
          5    1    1    2  502    0 -0.29366179173E+02 -0.52401979468E+02  0.28882670452E+03  0.29503673936E+03  0.41800000000E+01 0.  1.
         -5    1    1    2    0  502  0.42296469597E+02 -0.19984862569E+02  0.31303981507E+02  0.56442871387E+02  0.41800000000E+01 0.  1.
        -11    1    3    3    0    0  0.25492307963E+02  0.71956070160E+02  0.45367029888E+02  0.88801470703E+02  0.00000000000E+00 0.  1.
         11    1    3    3    0    0 -0.38422598386E+02  0.43077187681E+00  0.32989269034E+01  0.38566365525E+02  0.00000000000E+00 0. -1.
</event>
<event>
 7    1  0.6988825E-006  0.1140746E+03  0.7561462E-02  0.1253205E+00
         -2   -1    0    0    0  501 -0.00000000000E+00  0.00000000000E+00  0.26146998155E+02  0.26146998155E+02  0.00000000000E+00 0.  1.
          2   -1    0    0  501    0  0.00000000000E+00 -0.00000000000E+00 -0.65275014877E+03  0.65275014877E+03  0.00000000000E+00 0. -1.
         23    2    1    2    0    0  0.35569622085E+02 -0.58812632187E+02 -0.18580197472E+03  0.21556483014E+03  0.84980576961E+02 0.  0.
          5    1    1    2  502    0 -0.56570297127E+02 -0.69524157490E+01 -0.96497735896E+02  0.11215088067E+03  0.41800000000E+01 0. -1.
         -5    1    1    2    0  502  0.21000675042E+02  0.65765047936E+02 -0.34430344000E+03  0.35118143612E+03  0.41800000000E+01 0. -1.
        -11    1    3    3    0    0  0.27089201670E+02  0.12632811363E+02 -0.95716497334E+02  0.10027492524E+03  0.00000000000E+00 0. -1.
         11    1    3    3    0    0  0.84804204143E+01 -0.71445443550E+02 -0.90085477389E+02  0.11528990490E+03  0.00000000000E+00 0.  1.
</event>
<event>
 7    1  0.6988825E-006  0.1070541E+03  0.7561462E-02  0.1266125E+00
          1   -1    0    0  501    0  0.00000000000E+00  0.00000000000E+00  0.12276707988E+03  0.12276707988E+03  0.00000000000E+00 0. -1.
         -1   -1    0    0    0  501 -0.00000000000E+00 -0.00000000000E+00 -0.12489144019E+03  0.12489144019E+03  0.00000000000E+00 0.  1.
         23    2    1    2    0    0 -0.43658554946E+02 -0.29738195693E+02 -0.27352276293E+01  0.10618413431E+03  0.92071489649E+02 0.  0.
          5    1    1    2  502    0 -0.32327873452E+02  0.17542060534E+02 -0.39880647691E+02  0.54412808694E+02  0.41800000000E+01 0. -1.
         -5    1    1    2    0  502  0.75986428398E+02  0.12196135158E+02  0.40491515015E+02  0.87061577069E+02  0.41800000000E+01 0.  1.
        -11    1    3    3    0    0 -0.65463329423E+02 -0.39141297728E+02  0.13446780403E+02  0.77448722328E+02  0.00000000000E+00 0. -1.
         11    1    3    3    0    0  0.21804774478E+02  0.94031020349E+01 -0.16182008032E+02  0.28735411984E+02  0.00000000000E+00 0.  1.
</event>
<event>
 7    1  0.6988825E-006  0.9769731E+02  0.7561462E-02  0.1285214E+00
         -2   -1    0    0    0  501 -0.00000000000E+00  0.00000000000E+00  0.38231928593E+02  0.38231928593E+02  0.00000000000E+00 0.  1.
          2   -1    0    0  501    0  0.00000000000E+00 -0.00000000000E+00 -0.47217484510E+03  0.47217484510E+03  0.00000000000E+00 0. -1.
         23    2    1    2    0    0  0.44361783807E+02 -0.20871344833E+02 -0.81946462557E+02  0.13364179252E+03  0.93495053799E+02 0.  0.
          5    1    1    2  502    0 -0.13853174079E+02  0.52854531645E+02 -0.31272768255E+03  0.31749265784E+03  0.41800000000E+01 0. -1.
         -5    1    1    2    0  502 -0.30508609728E+02 -0.31983186811E+02 -0.39268771396E+02  0.59272323331E+02  0.41800000000E+01 0. -1.
        -11    1    3    3    0    0 -0.14843684179E+02 -0.32618929701E+02 -0.55290685509E+01  0.36261551731E+02  0.00000000000E+00 0.  1.
         11    1    3    3    0    0  0.59205467986E+02  0.11747584868E+02 -0.76417394006E+02  0.97380240790E+02  0.00000000000E+00 0. -1.
</event>
<event>
 7    1  0.6988825E-006  0.1777422E+03  0.7561462E-02  0.1170006E+00
          2   -1    0    0  501    0  0.00000000000E+00  0.00000000000E+00  0.90196748689E+02  0.90196748689E+02  0.00000000000E+00 0. -1.
         -2   -1    0    0    0  501 -0.00000000000E+00 -0.00000000000E+00 -0.57736601985E+03  0.57736601985E+03  0.00000000000E+00 0.  1.
         23    2    1    2    0    0  0.31829104930E+02 -0.23001319856E+02 -0.36420273312E+03  0.37820134807E+03  0.94076969741E+02 0.  0.
          5    1    1    2  502    0 -0.13732409908E+03 -0.21906881420E+02 -0.31531986585E+02  0.14265187772E+03  0.41800000000E+01 0. -1.
         -5    1    1    2    0  502  0.10549499415E+03  0.44908201276E+02 -0.91434551457E+02  0.14670954274E+03  0.41800000000E+01 0.  1.
        -11    1    3    3    0    0 -0.33562367279E+02 -0.64665486622E+01 -0.13689695560E+03  0.14109934515E+03  0.00000000000E+00 0. -1.
         11    1    3    3    0    0  0.65391472209E+02 -0.16534771194E+02 -0.22730577752E+03  0.23710200293E+03  0.00000000000E+00 0.  1.
</event>
<event>
 7    1  0.6988825E-006  0.9376598E+02  0.7561462E-02  0.1293980E+00
          2   -1    0    0  501    0  0.00000000000E+00  0.00000000000E+00  0.54199484851E+03  0.54199484851E+03  0.00000000000E+00 0.  1.
         -2   -1    0    0    0  501 -0.00000000000E+00 -0.00000000000E+00 -0.25335858418E+02  0.25335858418E+02  0.00000000000E+00 0. -1.
         23    2    1    2    0    0  0.26303145796E+02 -0.31048521443E+02  0.19624561067E+03  0.22096391396E+03  0.93042170029E+02 0.  0.
          5    1    1    2  502    0 -0.49040738498E+01 -0.29233759194E+02  0.24740441036E+03  0.24920890289E+03  0.41800000000E+01 0.  1.
         -5    1    1    2    0  502 -0.21399071947E+02  0.60282280638E+02  0.73008969057E+02  0.97157890065E+02  0.41800000000E+01 0.  1.
        -11    1    3    3    0    0 -0.69532656452E+01 -0.53123212320E+02  0.67532626473E+02  0.86203707743E+02  0.00000000000E+00 0. -1.
         11    1    3    3    0    0  0.33256411441E+02  0.22074690877E+02  0.12871298420E+03  0.13476020622E+03  0.00000000000E+00 0.  1.
</event>
<event>
 7    1  0.6988825E-006  0.1357219E+03  0.7561462E-02  0.1219204E+00
         -1   -1    0    0    0  501 -0.00000000000E+00  0.00000000000E+00  0.17309134145E+02  0.17309134145E+02  0.00000000000E+00 0.  1.
          1   -1    0    0  501    0  0.00000000000E+00 -0.00000000000E+00 -0.15814168687E+04  0.15814168687E+04  0.00000000000E+00 0. -1.
         23    2    1    2    0    0  0.29604553329E+02  0.12123141197E+02 -0.26556257761E+03  0.28289197382E+03  0.92092269471E+02 0.  0.
          5    1    1    2  502    0  0.31441624578E+02  0.76622139477E+02 -0.86984920473E+03  0.87379324750E+03  0.41800000000E+01 0. -1.
         -5    1    1    2    0  502 -0.61046177907E+02 -0.88745280674E+02 -0.42869595218E+03  0.44204078148E+03  0.41800000000E+01 0.  1.
        -11    1    3    3    0    0  0.15263755886E+02 -0.31390514806E+02 -0.41659405780E+02  0.54349358354E+02  0.00000000000E+00 0.  1.
         11    1    3    3    0    0  0.14340797443E+02  0.43513656003E+02 -0.22390317183E+03  0.22854261547E+03  0.00000000000E+00 0. -1.
</event>
<event>
 7    1  0.6988825E-006  0.8706003E+02  0.7561462E-02  0.1310132E+00
         -3   -1    0    0    0  501 -0.00000000000E+00  0.00000000000E+00  0.30198183162E+02  0.30198183162E+02  0.00000000000E+00 0.  1.
          3   -1    0    0  501    0  0.00000000000E+00 -0.00000000000E+00 -0.43260519863E+03  0.43260519863E+03  0.00000000000E+00 0. -1.
         23    2    1    2    0    0  0.22491168878E+01  0.59807928999E+01 -0.10086661285E+03  0.13628489204E+03  0.91425761146E+02 0.  0.
          5    1    1    2  502    0  0.32174199768E+02 -0.38899787854E+02 -0.52587295170E+02  0.73015536971E+02  0.41800000000E+01 0.  1.
         -5    1    1    2    0  502 -0.34423316656E+02  0.32918994954E+02 -0.24895310745E+03  0.25350295278E+03  0.41800000000E+01 0.  1.
        -11    1    3    3    0    0 -0.41120806572E+01  0.40421182170E+02 -0.91371515380E+02  0.99997674964E+02  0.00000000000E+00 0.  1.
         11    1    3    3    0    0  0.63611975450E+01 -0.34440389270E+02 -0.94950974651E+01  0.36287217076E+02  0.00000000000E+00 0. -1.
</event>
<event>
 7    1  0.6988825E-006  0.1391638E+03  0.7561462E-02  0.1214459E+00
         -1   -1    0    0    0  501 -0.00000000000E+00  0.00000000000E+00  0.81346835960E+02  0.81346835960E+02  0.00000000000E+00 0.  1.
          1   -1    0    0  501    0  0.00000000000E+00 -0.00000000000E+00 -0.33289774594E+03  0.33289774594E+03  0.00000000000E+00 0. -1.
         23    2    1    2    0    0 -0.83139967839E+02  0.89878034962E+02 -0.10163076333E+03  0.18378078721E+03  0.91957872260E+02 0.  0.
          5    1    1    2  502    0  0.21119925647E+01 -0.20381158779E+02  0.20527805349E+02  0.29303845109E+02  0.41800000000E+01 0. -1.
         -5    1    1    2    0  502  0.81027975274E+02 -0.69496876183E+02 -0.17044795200E+03  0.20115994959E+03  0.41800000000E+01 0. -1.
        -11    1    3    3    0    0  0.58084270788E+01  0.54580233910E+02 -0.21438399853E+02  0.58926604748E+02  0.00000000000E+00 0.  1.
         11    1    3    3    0    0 -0.88948394918E+02  0.35297801051E+02 -0.80192363479E+02  0.12485418246E+03  0.00000000000E+00 0. -1.
</event>
<event>
 7    1  0.6988825E-006  0.7289828E+02  0.7561462E-02  0.1350506E+00
         -1   -1    0    0    0  501 -0.00000000000E+00  0.00000000000E+00  0.19524362373E+03  0.19524362373E+03  0.00000000000E+00 0.  1.
          1   -1    0    0  501    0  0.00000000000E+00 -0.00000000000E+00 -0.77389120605E+02  0.77389120605E+02  0.00000000000E+00 0. -1.
         23    2    1    2    0    0 -0.11886120743E+02 -0.50589788014E+02  0.77774355026E+02  0.13137186171E+03  0.92244833088E+02 0.  0.
          5    1    1    2  502    0  0.28564496016E+02 -0.44643018026E+01 -0.35636325607E+02  0.46079068198E+02  0.41800000000E+01 0.  1.
         -5    1    1    2    0  502 -0.16678375273E+02  0.55054089817E+02  0.75716473708E+02  0.95181814430E+02  0.41800000000E+01 0.  1.
        -11    1    3    3    0    0  0.65389112161E+01 -0.32268595893E+02  0.94768113110E+02  0.10032454786E+03  0.00000000000E+00 0.  1.
         11    1    3    3    0    0 -0.18425031959E+02 -0.18321192121E+02 -0.16993758084E+02  0.31047313849E+02  0.00000000000E+00 0. -1.
</event>
<event>
 7    1  0.6988825E-006  0.1264795E+03  0.7561462E-02  0.1232775E+00
         -2   -1    0    0    0  501 -0.00000000000E+00  0.00000000000E+00  0.25355449946E+03  0.25355449946E+03  0.00000000000E+00 0.  1.
          2   -1    0    0  501    0  0.00000000000E+00 -0.00000000000E+00 -0.80228543156E+02  0.80228543156E+02  0.00000000000E+00 0. -1.
         23    2    1    2    0    0  0.84109348391E+02 -0.74209116417E+00  0.12224463946E+03  0.17462249517E+03  0.92056128306E+02 0.  0.
          5    1    1    2  502    0 -0.35788851207E+02  0.62067750741E+02  0.16353011318E+02  0.73608022199E+02  0.41800000000E+01 0. -1.
         -5    1    1    2    0  502 -0.48320497183E+02 -0.61325659577E+02  0.34728305529E+02  0.85552525243E+02  0.41800000000E+01 0. -1.
        -11    1    3    3    0    0 -0.62306297064E+01 -0.10426332767E+02  0.67420072859E+02  0.68505440556E+02  0.00000000000E+00 0.  1.
         11    1    3    3    0    0  0.90339978097E+02  0.96842416031E+01  0.54824566599E+02  0.10611705462E+03  0.00000000000E+00 0. -1.
</event>
<event>
 7    1  0.6988825E-006  0.1197983E+03  0.7561462E-02  0.1243430E+00
         -1   -1    0    0    0  501 -0.00000000000E+00  0.00000000000E+00  0.24425469014E+02  0.24425469014E+02  0.00000000000E+00 0.  1.
          1   -1    0    0  501    0  0.00000000000E+00 -0.00000000000E+00 -0.11581752339E+04  0.11581752339E+04  0.00000000000E+00 0. -1.
         23    2    1    2    0    0 -0.56050163575E+02 -0.43424663635E+02 -0.15431418126E+03  0.19266692592E+03  0.90996459031E+02 0.  0.
          5    1    1    2  502    0 -0.43864362077E+01 -0.35609824407E+02 -0.43256317559E+03  0.43406874305E+03  0.41800000000E+01 0.  1.
         -5    1    1    2    0  502  0.60436599782E+02  0.79034488042E+02 -0.54687240807E+03  0.55586503398E+03  0.41800000000E+01 0.  1.
        -11    1    3    3    0    0 -0.73688400065E+02 -0.44738489673E+02 -0.15211426654E+03  0.17484353819E+03  0.00000000000E+00 0. -1.
         11    1    3    3    0    0  0.17638236490E+02  0.13138260383E+01 -0.21999147228E+01  0.17823387729E+02  0.00000000000E+00 0.  1.
</event>
<event>
 7    1  0.6988825E-006  0.6197897E+02  0.7561462E-02  0.1389710E+00
         -2   -1    0    0    0  501 -0.00000000000E+00  0.00000000000E+00  0.75673081099E+02  0.75673081099E+02  0.00000000000E+00 0.  1.
          2   -1    0    0  501    0  0.00000000000E+00 -0.00000000000E+00 -0.24282460796E+03  0.24282460796E+03  0.00000000000E+00 0. -1.
         23    2    1    2    0    0 -0.89805489337E+01 -0.63072245594E+00 -0.27081900140E+02  0.89201323449E+02  0.84512713362E+02 0.  0.
          5    1    1    2  502    0 -0.21978932617E+02  0.11336398649E+02 -0.17756730453E+03  0.17932988443E+03  0.41800000000E+01 0. -1.
         -5    1    1    2    0  502  0.30959481551E+02 -0.10705676193E+02  0.37497677805E+02  0.49966481179E+02  0.41800000000E+01 0.  1.
        -11    1    3    3    0    0  0.26298414658E+02 -0.11833415104E+02 -0.40596211932E+02  0.49796473266E+02  0.00000000000E+00 0.  1.
         11    1    3    3    0    0 -0.35278963592E+02  0.11202692648E+02  0.13514311792E+02  0.39404850182E+02  0.00000000000E+00 0. -1.
</event>
<event>
 7    1  0.6988825E-006  0.1988933E+03  0.7561462E-02  0.1150676E+00
          2   -1    0    0  501    0  0.00000000000E+00  0.00000000000E+00  0.21125102653E+04  0.21125102653E+04  0.00000000000E+00 0.  1.
         -2   -1    0    0    0  501 -0.00000000000E+00 -0.00000000000E+00 -0.20559558845E+02  0.20559558845E+02  0.00000000000E+00 0. -1.
         23    2    1    2    0    0 -0.16411299316E+03 -0.68786496169E+02  0.10459315751E+04  0.10646759335E+04  0.88866905800E+02 0.  0.
          5    1    1    2  502    0  0.10741333162E+03 -0.42750905512E+01  0.76479056369E+03  0.77231986827E+03  0.41800000000E+01 0.  1.
         -5    1    1    2    0  502  0.56699661538E+02  0.73061586720E+02  0.28122856765E+03  0.29607402240E+03  0.41800000000E+01 0.  1.
        -11    1    3    3    0    0 -0.11967696974E+03 -0.88673040118E+02  0.83679623332E+03  0.84994906979E+03  0.00000000000E+00 0.  1.
         11    1    3    3    0    0 -0.44436023425E+02  0.19886543950E+02  0.20913534177E+03  0.21472686368E+03  0.00000000000E+00 0. -1.
</event>
<event>
 7    1  0.6988825E-006  0.1122489E+03  0.7561462E-02  0.1256461E+00
          2   -1    0    0  501    0  0.00000000000E+00  0.00000000000E+00  0.26410216884E+03  0.26410216884E+03  0.00000000000E+00 0. -1.
         -2   -1    0    0    0  501 -0.00000000000E+00 -0.00000000000E+00 -0.81280895038E+02  0.81280895038E+02  0.00000000000E+00 0.  1.
         23    2    1    2    0    0 -0.51264425063E+02 -0.63466676786E+02  0.19201774940E+02  0.12385383280E+03  0.91186640462E+02 0.  0.
          5    1    1    2  502    0  0.28013144860E+02 -0.13892748344E+02  0.13027392054E+03  0.13403921633E+03  0.41800000000E+01 0. -1.
         -5    1    1    2    0  502  0.23251280203E+02  0.77359425129E+02  0.33345578322E+02  0.87490014751E+02  0.41800000000E+01 0. -1.
        -11    1    3    3    0    0 -0.31973661194E+02 -0.80319155878E+02 -0.75965399167E+01  0.86782424660E+02  0.00000000000E+00 0. -1.
         11    1    3    3    0    0 -0.19290763869E+02  0.16852479093E+02  0.26798314857E+02  0.37071408139E+02  0.00000000000E+00 0.  1.
</event>
<event>
 7    1  0.6988825E-006  0.9688944E+02  0.7561462E-02  0.1286976E+00
          2   -1    0    0  501    0  0.00000000000E+00  0.00000000000E+00  0.69123334898E+02  0.69123334898E+02  0.00000000000E+00 0. -1.
         -2   -1    0    0    0  501 -0.00000000000E+00 -0.00000000000E+00 -0.27158949618E+03  0.27158949618E+03  0.00000000000E+00 0.  1.
         23    2    1    2    0    0  0.45304779175E+02 -0.37586195519E+02 -0.16559799769E+03  0.19763378751E+03  0.90394535311E+02 0.  0.
          5    1    1    2  502    0  0.24162964646E+02 -0.28785573138E+02  0.50901867003E+01  0.38155477746E+02  0.41800000000E+01 0.  1.
         -5    1    1    2    0  502 -0.69467743822E+02  0.66371768657E+02 -0.41958350288E+02  0.10492356582E+03  0.41800000000E+01 0.  1.
        -11    1    3    3    0    0  0.75447949340E+01 -0.12030245142E+02  0.92442172059E+01  0.16944210827E+02  0.00000000000E+00 0. -1.
         11    1    3    3    0    0  0.37759984241E+02 -0.25555950376E+02 -0.17484221490E+03  0.18068957668E+03  0.00000000000E+00 0.  1.
</event>
<event>
 7    1  0.6988825E-006  0.1070719E+03  0.7561462E-02  0.1266090E+00
          1   -1    0    0  501    0  0.00000000000E+00  0.00000000000E+00  0.12395036905E+04  0.12395036905E+04  0.00000000000E+00 0. -1.
         -1   -1    0    0    0  501 -0.00000000000E+00 -0.00000000000E+00 -0.14249058910E+02  0.14249058910E+02  0.00000000000E+00 0.  1.
         23    2    1    2    0    0 -0.69714455434E+02 -0.14780145543E+02  0.36307608413E+03  0.38087294092E+03  0.90340446423E+02 0.  0.
          5    1    1    2  502    0 -0.74411128766E-01 -0.20535952506E+02  0.56997716825E+03  0.57036231959E+03  0.41800000000E+01 0. -1.
         -5    1    1    2    0  502  0.69788866563E+02  0.35316098048E+02  0.29220137923E+03  0.30251748892E+03  0.41800000000E+01 0.  1.
        -11    1    3    3    0    0 -0.77857083256E+02  0.18974954769E+02  0.24259942656E+03  0.25549218401E+03  0.00000000000E+00 0.  1.
         11    1    3    3    0    0  0.81426278226E+01 -0.33755100312E+02  0.12047665757E+03  0.12538075691E+03  0.00000000000E+00 0. -1.
</event>
<event>
 7    1  0.6988825E-006  0.1770152E+03  0.7561462E-02  0.1170723E+00
          2   -1    0    0  501    0  0.00000000000E+00  0.00000000000E+00  0.75395583036E+03  0.75395583036E+03  0.00000000000E+00 0. -1.
         -2   -1    0    0    0  501 -0.00000000000E+00 -0.00000000000E+00 -0.54554484154E+02  0.54554484154E+02  0.00000000000E+00 0.  1.
         23    2    1    2    0    0 -0.15618584021E+03  0.35168993744E+02  0.21587317432E+03  0.28402970832E+03  0.91873679674E+02 0.  0.
          5    1    1    2  502    0  0.79421575661E+02  0.37612578064E+02  0.29972259572E+03  0.31236773120E+03  0.41800000000E+01 0. -1.
         -5    1    1    2    0  502  0.76764264550E+02 -0.72781571808E+02  0.18380557617E+03  0.21211287500E+03  0.41800000000E+01 0. -1.
        -11    1    3    3    0    0 -0.55216274356E+02  0.97786495481E+01  0.15168939231E+03  0.16172238769E+03  0.00000000000E+00 0. -1.
         11    1    3    3    0    0 -0.10096956586E+03  0.25390344196E+02  0.64183782004E+02  0.12230732063E+03  0.00000000000E+00 0.  1.
</event>
<event>
 7    1  0.6988825E-006  0.9676700E+02  0.7561462E-02  0.1287245E+00
         -2   -1    0    0    0  501 -0.00000000000E+00  0.00000000000E+00  0.12260705711E+03  0.12260705711E+03  0.00000000000E+00 0.  1.
          2   -1    0    0  501    0  0.00000000000E+00 -0.00000000000E+00 -0.13142613094E+03  0.13142613094E+03  0.00000000000E+00 0. -1.
         23    2    1    2    0    0 -0.50648253720E+02 -0.13475749044E+02  0.36697770630E+02  0.11098001829E+03  0.90680740371E+02 0.  0.
          5    1    1    2  502    0  0.34471600547E+02  0.68496734956E+02 -0.35822977697E+02  0.84739908396E+02  0.41800000000E+01 0. -1.
         -5    1    1    2    0  502  0.16176653173E+02 -0.55020985912E+02 -0.96938667643E+01  0.58313261368E+02  0.41800000000E+01 0. -1.
        -11    1    3    3    0    0 -0.34899340605E+02  0.46690070590E+01  0.64957857665E+02  0.73886987176E+02  0.00000000000E+00 0.  1.
         11    1    3    3    0    0 -0.15748913114E+02 -0.18144756103E+02 -0.28260087034E+02  0.37093031118E+02  0.00000000000E+00 0. -1.
</event>
<event>
 7    1  0.6988825E-006  0.1124784E+03  0.7561462E-02  0.1256048E+00
         -1   -1    0    0    0  501 -0.00000000000E+00  0.00000000000E+00  0.10435884816E+02  0.10435884816E+02  0.00000000000E+00 0.  1.
          1   -1    0    0  501    0  0.00000000000E+00 -0.00000000000E+00 -0.12818978313E+04  0.12818978313E+04  0.00000000000E+00 0. -1.
         23    2    1    2    0    0 -0.23327358015E+02  0.19419856499E+02 -0.48922536587E+03  0.49957758489E+03  0.96514290458E+02 0.  0.
          5    1    1    2  502    0 -0.45046966761E+02  0.15641323007E+02 -0.39969936609E+03  0.40255550655E+03  0.41800000000E+01 0. -1.
         -5    1    1    2    0  502  0.68374324776E+02 -0.35061179506E+02 -0.38253721455E+03  0.39020062470E+03  0.41800000000E+01 0. -1.
        -11    1    3    3    0    0 -0.50155411297E+02 -0.18694210377E+02 -0.29679090466E+03  0.30157897784E+03  0.00000000000E+00 0.  1.
         11    1    3    3    0    0  0.26828053282E+02  0.38114066876E+02 -0.19243446120E+03  0.19799860705E+03  0.00000000000E+00 0. -1.
</event>
<event>
 7    1  0.6988825E-006  0.1444226E+03  0.7561462E-02  0.1207499E+00
         -1   -1    0    0    0  501 -0.00000000000E+00  0.00000000000E+00  0.22435443471E+02  0.22435443471E+02  0.00000000000E+00 0.  1.
          1   -1    0    0  501    0  0.00000000000E+00 -0.00000000000E+00 -0.12279775265E+04  0.12279775265E+04  0.00000000000E+00 0. -1.
         23    2    1    2    0    0 -0.93238228945E+02 -0.52586128270E+02 -0.31321104093E+03  0.34301935930E+03  0.90013646043E+02 0.  0.
          5    1    1    2  502    0  0.76578706957E+02 -0.16759360250E+02 -0.27635639874E+03  0.28728993376E+03  0.41800000000E+01 0.  1.
         -5    1    1    2    0  502  0.16659521988E+02  0.69345488520E+02 -0.61597464340E+03  0.62010367694E+03  0.41800000000E+01 0.  1.
        -11    1    3    3    0    0 -0.38149834246E+02 -0.71180809534E+02 -0.16196628847E+03  0.18098396642E+03  0.00000000000E+00 0. -1.
         11    1    3    3    0    0 -0.55088394700E+02  0.18594681265E+02 -0.15124475245E+03  0.16203539288E+03  0.00000000000E+00 0.  1.
</event>
<event>
 7    1  0.6988825E-006  0.1024934E+03  0.7561462E-02  0.1275138E+00
         -1   -1    0    0    0  501 -0.00000000000E+00  0.00000000000E+00  0.33191600626E+02  0.33191600626E+02  0.00000000000E+00 0.  1.
          1   -1    0    0  501    0  0.00000000000E+00 -0.00000000000E+00 -0.53565522795E+03  0.53565522795E+03  0.00000000000E+00 0. -1.
         23    2    1    2    0    0  0.48365819511E+02  0.25356084539E+02 -0.10509825519E+03  0.14869369078E+03  0.89899871607E+02 0.  0.
          5    1    1    2  502    0 -0.52193785034E+01 -0.50812965902E+02 -0.59333442705E+02  0.78403630266E+02  0.41800000000E+01 0. -1.
         -5    1    1    2    0  502 -0.43146441008E+02  0.25456881363E+02 -0.33803192943E+03  0.34174950753E+03  0.41800000000E+01 0. -1.
        -11    1    3    3    0    0  0.64556453217E+02 -0.92911164995E+01 -0.52859670559E+02  0.83952398831E+02  0.00000000000E+00 0. -1.
         11    1    3    3    0    0 -0.16190633706E+02  0.34647201039E+02 -0.52238584630E+02  0.64741291953E+02  0.00000000000E+00 0.  1.
</event>
<event>
 7    1  0.6988825E-006  0.1135985E+03  0.7561462E-02  0.1254047E+00
          1   -1    0    0  501    0  0.00000000000E+00  0.00000000000E+00  0.84166228694E+03  0.84166228694E+03  0.00000000000E+00 0. -1.
         -1   -1    0    0    0  501 -0.00000000000E+00 -0.00000000000E+00 -0.17781726545E+02  0.17781726545E+02  0.00000000000E+00 0.  1.
         23    2    1    2    0    0 -0.35347936436E+02 -0.41675782371E+02  0.32099250014E+03  0.33836020930E+03  0.92005970693E+02 0.  0.
          5    1    1    2  502    0  0.73146510378E+02  0.11490169269E+02  0.40592475073E+03  0.41264368604E+03  0.41800000000E+01 0.  1.
         -5    1    1    2    0  502 -0.37798573942E+02  0.30185613102E+02  0.96963309514E+02  0.10844011814E+03  0.41800000000E+01 0.  1.
        -11    1    3    3    0    0  0.28824737141E+02 -0.25057008343E+02  0.84075142546E+02  0.92343644787E+02  0.00000000000E+00 0.  1.
         11    1    3    3    0    0 -0.64172673577E+02 -0.16618774028E+02  0.23691735760E+03  0.24601656452E+03  0.00000000000E+00 0. -1.
</event>
<event>
 7    1  0.6988825E-006  0.8520160E+02  0.7561462E-02  0.1314906E+00
         -2   -1    0    0    0  501 -0.00000000000E+00  0.00000000000E+00  0.23565973987E+03  0.23565973987E+03  0.00000000000E+00 0. -1.
          2   -1    0    0  501    0  0.00000000000E+00 -0.00000000000E+00 -0.60321743577E+02  0.60321743577E+02  0.00000000000E+00 0.  1.
         23    2    1    2    0    0  0.45802852409E+02 -0.99659583955E+01  0.97390112204E+02  0.14132015966E+03  0.91045768472E+02 0.  0.
          5    1    1    2  502    0 -0.62443914560E+01  0.53092581885E+02 -0.41183546096E+01  0.53779623655E+02  0.41800000000E+01 0. -1.
         -5    1    1    2    0  502 -0.39558460953E+02 -0.43126623489E+02  0.82066238700E+02  0.10088170013E+03  0.41800000000E+01 0. -1.
        -11    1    3    3    0    0  0.84707482445E+01  0.12080904584E+02 -0.14888645153E+02  0.20961240085E+02  0.00000000000E+00 0.  1.
         11    1    3    3    0    0  0.37332104165E+02 -0.22046862979E+02  0.11227875736E+03  0.12035891958E+03  0.00000000000E+00 0. -1.
</event>
<event>
 7    1  0.6988825E-006  0.1011745E+03  0.7561462E-02  0.1277845E+00
         -2   -1    0    0    0  501 -0.00000000000E+00  0.00000000000E+00  0.41359911236E+02  0.41359911236E+02  0.00000000000E+00 0.  1.
          2   -1    0    0  501    0  0.00000000000E+00 -0.00000000000E+00 -0.36578531639E+03  0.36578531639E+03  0.00000000000E+00 0. -1.
         23    2    1    2    0    0 -0.13271803303E+02 -0.46333164529E+02 -0.99053655502E+02  0.14491934663E+03  0.94165213650E+02 0.  0.
          5    1    1    2  502    0  0.47973226612E+02  0.49493579427E+02 -0.21471891068E+03  0.22554983458E+03  0.41800000000E+01 0.  1.
         -5    1    1    2    0  502 -0.34701423309E+02 -0.31604148982E+01 -0.10652838966E+02  0.36676046407E+02  0.41800000000E+01 0.  1.
        -11    1    3    3    0    0 -0.29964949626E+02  0.15791514716E+02 -0.10489969164E+02  0.35458561676E+02  0.00000000000E+00 0.  1.
         11    1    3    3    0    0  0.16693146323E+02 -0.62124679244E+02 -0.88563686337E+02  0.10946078496E+03  0.00000000000E+00 0. -1.
</event>
<event>
 7    1  0.6988825E-006  0.2293624E+03  0.7561462E-02  0.1127089E+00
          1   -1    0    0  501    0  0.00000000000E+00  0.00000000000E+00  0.75456143423E+03  0.75456143423E+03  0.00000000000E+00 0. -1.
         -1   -1    0    0    0  501 -0.00000000000E+00 -0.00000000000E+00 -0.97347640341E+02  0.97347640341E+02  0.00000000000E+00 0.  1.
         23    2    1    2    0    0  0.13486398564E+03  0.17604351375E+03  0.14703329622E+03  0.28172389953E+03  0.92574035297E+02 0.  0.
          5    1    1    2  502    0 -0.31431058721E+00  0.13721452060E+01  0.12633405959E+03  0.12641103032E+03  0.41800000000E+01 0. -1.
         -5    1    1    2    0  502 -0.13454967505E+03 -0.17741565896E+03  0.38384643808E+03  0.44377414472E+03  0.41800000000E+01 0. -1.
        -11    1    3    3    0    0  0.48202259556E+02  0.18168230653E+02  0.67338013108E+02  0.84781781302E+02  0.00000000000E+00 0.  1.
         11    1    3    3    0    0  0.86661726086E+02  0.15787528310E+03  0.79695283114E+02  0.19694211823E+03  0.00000000000E+00 0. -1.
</event>
<event>
 7    1  0.6988825E-006  0.8279337E+02  0.7561462E-02  0.1321306E+00
         -1   -1    0    0    0  501 -0.00000000000E+00  0.00000000000E+00  0.20588461415E+03  0.20588461415E+03  0.00000000000E+00 0.  1.
          1   -1    0    0  501    0  0.00000000000E+00 -0.00000000000E+00 -0.81741433014E+02  0.81741433014E+02  0.00000000000E+00 0. -1.
         23    2    1    2    0    0  0.37132800605E+00  0.50415327989E+02  0.11043953671E+03  0.15206366734E+03  0.91567595131E+02 0.  0.
          5    1    1    2  502    0  0.35915929431E+02 -0.34590948445E+02 -0.43206396557E+02  0.66111669202E+02  0.41800000000E+01 0.  1.
         -5    1    1    2    0  502 -0.36287257437E+02 -0.15824379543E+02  0.56910040992E+02  0.69450710622E+02  0.41800000000E+01 0.  1.
        -11    1    3    3    0    0  0.19101404858E+02  0.53454163009E+02  0.20827679736E+02  0.60464894391E+02  0.00000000000E+00 0. -1.
         11    1    3    3    0    0 -0.18730076852E+02 -0.30388350203E+01  0.89611856969E+02  0.91598772954E+02  0.00000000000E+00 0.  1.
</event>
<event>
 7    1  0.6988825E-006  0.1222167E+03  0.7561462E-02  0.1239484E+00
          2   -1    0    0  501    0  0.00000000000E+00  0.00000000000E+00  0.41929400104E+03  0.41929400104E+03  0.00000000000E+00 0. -1.
         -2   -1    0    0    0  501 -0.00000000000E+00 -0.00000000000E+00 -0.60387136152E+02  0.60387136152E+02  0.00000000000E+00 0.  1.
         23    2    1    2    0    0  0.96024796127E+02  0.50990481593E+02  0.10445182237E+03  0.17601229696E+03  0.90825958840E+02 0.  0.
          5    1    1    2  502    0 -0.43209133231E+01 -0.36392103886E+02  0.47077981988E+01  0.37184557024E+02  0.41800000000E+01 0.  1.
         -5    1    1    2    0  502 -0.91703882804E+02 -0.14598377707E+02  0.24974724432E+03  0.26648428321E+03  0.41800000000E+01 0.  1.
        -11    1    3    3    0    0  0.42286853978E+02  0.42925011846E+02  0.10568835833E+03  0.12165838955E+03  0.00000000000E+00 0.  1.
         11    1    3    3    0    0  0.53737942148E+02  0.80654697474E+01 -0.12365359669E+01  0.54353907401E+02  0.00000000000E+00 0. -1.
</event>
<event>
 7    1  0.6988825E-006  0.1621215E+03  0.7561462E-02  0.1186322E+00
          1   -1    0    0  501    0  0.00000000000E+00  0.00000000000E+00  0.72155513272E+02  0.72155513272E+02  0.00000000000E+00 0. -1.
         -1   -1    0    0    0  501 -0.00000000000E+00 -0.00000000000E+00 -0.45468832175E+03  0.45468832175E+03  0.00000000000E+00 0.  1.
         23    2    1    2    0    0  0.45906866799E+02  0.11875186647E+03 -0.28012934783E+03  0.32107105776E+03  0.91677294917E+02 0.  0.
          5    1    1    2  502    0  0.35515545537E+02 -0.51532425606E+01 -0.35909979057E+02  0.50940248130E+02  0.41800000000E+01 0. -1.
         -5    1    1    2    0  502 -0.81422412336E+02 -0.11359862391E+03 -0.66493481589E+02  0.15483252914E+03  0.41800000000E+01 0. -1.
        -11    1    3    3    0    0  0.53934649212E+02  0.35325118253E+02 -0.17577829853E+03  0.18722932623E+03  0.00000000000E+00 0.  1.
         11    1    3    3    0    0 -0.80277824131E+01  0.83426748217E+02 -0.10435104930E+03  0.13384173153E+03  0.00000000000E+00 0. -1.
</event>
<event>
 7    1  0.6988825E-006  0.1155369E+03  0.7561462E-02  0.1250647E+00
         -2   -1    0    0    0  501 -0.00000000000E+00  0.00000000000E+00  0.21979339094E+03  0.21979339094E+03  0.00000000000E+00 0.  1.
          2   -1    0    0  501    0  0.00000000000E+00 -0.00000000000E+00 -0.10115621958E+03  0.10115621958E+03  0.00000000000E+00 0. -1.
         23    2    1    2    0    0 -0.61357529879E+02  0.39118706572E+01  0.14214986965E+03  0.17959383378E+03  0.90924751763E+02 0.  0.
          5    1    1    2  502    0  0.61313140174E+02  0.48265068832E+02 -0.38214187213E+02  0.86986289331E+02  0.41800000000E+01 0. -1.
         -5    1    1    2    0  502  0.44389705712E-01 -0.52176939489E+02  0.14701488926E+02  0.54369487413E+02  0.41800000000E+01 0. -1.
        -11    1    3    3    0    0  0.73257490463E+01 -0.25011313549E+02  0.10070748435E+02  0.27940157097E+02  0.00000000000E+00 0. -1.
         11    1    3    3    0    0 -0.68683278925E+02  0.28923184207E+02  0.13207912122E+03  0.15165367668E+03  0.00000000000E+00 0.  1.
</event>
<event>
 7    1  0.6988825E-006  0.1256066E+03  0.7561462E-02  0.1234124E+00
         -2   -1    0    0    0  501 -0.00000000000E+00  0.00000000000E+00  0.53213394613E+02  0.53213394613E+02  0.00000000000E+00 0.  1.
          2   -1    0    0  501    0  0.00000000000E+00 -0.00000000000E+00 -0.50883806587E+03  0.50883806587E+03  0.00000000000E+00 0. -1.
         23    2    1    2    0    0  0.84716332170E+02  0.21424020690E+02 -0.64401361573E+02  0.14196455273E+03  0.91490727734E+02 0.  0.
          5    1    1    2  502    0 -0.95176748146E+02 -0.52715204664E+02 -0.21774917775E+03  0.24345365678E+03  0.41800000000E+01 0. -1.
         -5    1    1    2    0  502  0.10460415976E+02  0.31291183974E+02 -0.17347413194E+03  0.17663325097E+03  0.41800000000E+01 0.  1.
        -11    1    3    3    0    0  0.63114118131E+01 -0.19596806305E+02 -0.47647119159E+02  0.51904881279E+02  0.00000000000E+00 0. -1.
         11    1    3    3    0    0  0.78404920357E+02  0.41020826995E+02 -0.16754242414E+02  0.90059671454E+02  0.00000000000E+00 0.  1.
</event>
<event>
 7    1  0.6988825E-006  0.1006787E+03  0.7561462E-02  0.1278875E+00
          2   -1    0    0  501    0  0.00000000000E+00  0.00000000000E+00  0.30234265966E+03  0.30234265966E+03  0.00000000000E+00 0. -1.
         -2   -1    0    0    0  501 -0.00000000000E+00 -0.00000000000E+00 -0.62620626274E+02  0.62620626274E+02  0.00000000000E+00 0.  1.
         23    2    1    2    0    0  0.60227894905E+02  0.13827885755E+02  0.31516270192E+02  0.11433222665E+03  0.90884393687E+02 0.  0.
          5    1    1    2  502    0 -0.74029367143E+02 -0.42130832710E+01  0.21829079733E+03  0.23057849394E+03  0.41800000000E+01 0.  1.
         -5    1    1    2    0  502  0.13801472238E+02 -0.96148024840E+01 -0.10085034142E+02  0.20052565332E+02  0.41800000000E+01 0.  1.
        -11    1    3    3    0    0  0.11731657702E+01  0.43605301784E+02  0.15398542243E+02  0.46259201947E+02  0.00000000000E+00 0. -1.
         11    1    3    3    0    0  0.59054729135E+02 -0.29777416029E+02  0.16117727949E+02  0.68073024707E+02  0.00000000000E+00 0.  1.
</event>
<event>
 7    1  0.6988825E-006  0.9338958E+02  0.7561462E-02  0.1294845E+00
          1   -1    0    0  501    0  0.00000000000E+00  0.00000000000E+00  0.76179999856E+02  0.76179999856E+02  0.00000000000E+00 0. -1.
         -1   -1    0    0    0  501 -0.00000000000E+00 -0.00000000000E+00 -0.16061984013E+03  0.16061984013E+03  0.00000000000E+00 0.  1.
         23    2    1    2    0    0  0.57351114954E+01  0.24947473530E+02 -0.45685729566E+02  0.10336462435E+03  0.89116730981E+02 0.  0.
          5    1    1    2  502    0 -0.46457219946E+02  0.18141884813E+01  0.25102236982E+02  0.53001502492E+02  0.41800000000E+01 0.  1.
         -5    1    1    2    0  502  0.40722108450E+02 -0.26761662012E+02 -0.63856347685E+02  0.80433713143E+02  0.41800000000E+01 0.  1.
        -11    1    3    3    0    0  0.24235706582E+02  0.52603435582E+02 -0.37824763206E+02  0.69175166209E+02  0.00000000000E+00 0.  1.
         11    1    3    3    0    0 -0.18500595086E+02 -0.27655962051E+02 -0.78609663603E+01  0.34189458136E+02  0.00000000000E+00 0. -1.
</event>
<event>
 7    1  0.6988825E-006  0.1199857E+03  0.7561462E-02  0.1243121E+00
         -1   -1    0    0    0  501 -0.00000000000E+00  0.00000000000E+00  0.47090307815E+03  0.47090307815E+03  0.00000000000E+00 0.  1.
          1   -1    0    0  501    0  0.00000000000E+00 -0.00000000000E+00 -0.57866800782E+02  0.57866800782E+02  0.00000000000E+00 0. -1.
         23    2    1    2    0    0  0.11366872072E+00  0.70452052630E+02  0.35210527978E+03  0.37281360636E+03  0.10024147047E+03 0.  0.
          5    1    1    2  502    0 -0.37641848160E+02 -0.70359950080E+02 -0.49094547992E+01  0.80056270552E+02  0.41800000000E+01 0.  1.
         -5    1    1    2    0  502  0.37528179440E+02 -0.92102550079E-01  0.65840452386E+02  0.75900002011E+02  0.41800000000E+01 0.  1.
        -11    1    3    3    0    0 -0.30075194135E+02  0.83995666412E+02  0.26643128007E+03  0.28097226959E+03  0.00000000000E+00 0. -1.
         11    1    3    3    0    0  0.30188862856E+02 -0.13543613782E+02  0.85673999710E+02  0.91841336777E+02  0.00000000000E+00 0.  1.
</event>
<event>
 7    1  0.6988825E-006  0.1148590E+03  0.7561462E-02  0.1251827E+00
         -2   -1    0    0    0  501 -0.00000000000E+00  0.00000000000E+00  0.32479299336E+02  0.32479299336E+02  0.00000000000E+00 0. -1.
          2   -1    0    0  501    0  0.00000000000E+00 -0.00000000000E+00 -0.49880671497E+03  0.49880671497E+03  0.00000000000E+00 0.  1.
         23    2    1    2    0    0  0.28429273289E+01  0.60048892454E+02 -0.14761453744E+03  0.18366851833E+03  0.91269497860E+02 0.  0.
          5    1    1    2  502    0  0.47099254077E+02 -0.33880468193E+01 -0.20929867344E+03  0.21460015307E+03  0.41800000000E+01 0.  1.
         -5    1    1    2    0  502 -0.49942181406E+02 -0.56660845635E+02 -0.10941420475E+03  0.13301734290E+03  0.41800000000E+01 0.  1.
        -11    1    3    3    0    0 -0.36739793275E+02  0.25062751713E+01 -0.71103424026E+02  0.80073658174E+02  0.00000000000E+00 0. -1.
         11    1    3    3    0    0  0.39582720604E+02  0.57542617283E+02 -0.76511113417E+02  0.10359486015E+03  0.00000000000E+00 0.  1.
</event>
<event>
 7    1  0.6988825E-006  0.1375743E+03  0.7561462E-02  0.1216631E+00
         -1   -1    0    0    0  501 -0.00000000000E+00  0.00000000000E+00  0.47454571291E+02  0.47454571291E+02  0.00000000000E+00 0.  1.
          1   -1    0    0  501    0  0.00000000000E+00 -0.00000000000E+00 -0.50814267401E+03  0.50814267401E+03  0.00000000000E+00 0. -1.
         23    2    1    2    0    0 -0.10126536311E+03 -0.36659436443E+02 -0.22729413839E+03  0.26973161421E+03  0.97436801607E+02 0.  0.
          5    1    1    2  502    0  0.10020537583E+03 -0.21460430659E+02 -0.17814790162E+03  0.20556219175E+03  0.41800000000E+01 0. -1.
         -5    1    1    2    0  502  0.10599872888E+01  0.58119867103E+02 -0.55246062709E+02  0.80303439340E+02  0.41800000000E+01 0. -1.
        -11    1    3    3    0    0 -0.81428071877E+02 -0.11452465423E+02 -0.66457161182E+02  0.10572721564E+03  0.00000000000E+00 0.  1.
         11    1    3    3    0    0 -0.19837291237E+02 -0.25206971020E+02 -0.16083697721E+03  0.16400439857E+03  0.00000000000E+00 0. -1.
</event>
<event>
 7    1  0.6988825E-006  0.1087663E+03  0.7561462E-02  0.1262872E+00
          1   -1    0    0  501    0  0.00000000000E+00  0.00000000000E+00  0.37087191106E+02  0.37087191106E+02  0.00000000000E+00 0. -1.
         -1   -1    0    0    0  501 -0.00000000000E+00 -0.00000000000E+00 -0.44111010901E+03  0.44111010901E+03  0.00000000000E+00 0.  1.
         23    2    1    2    0    0 -0.61180638165E+02 -0.92462027876E+01 -0.23115850486E+03  0.25603330694E+03  0.91050739380E+02 0.  0.
          5    1    1    2  502    0  0.38602804737E+02  0.66785236759E+02 -0.88089857124E+02  0.11716543736E+03  0.41800000000E+01 0. -1.
         -5    1    1    2    0  502  0.22577833428E+02 -0.57539033972E+02 -0.84774555916E+02  0.10499855582E+03  0.41800000000E+01 0. -1.
        -11    1    3    3    0    0 -0.50196047084E+02 -0.27342402976E+02 -0.22747427129E+03  0.23454593206E+03  0.00000000000E+00 0.  1.
         11    1    3    3    0    0 -0.10984591082E+02  0.18096200189E+02 -0.36842335667E+01  0.21487374885E+02  0.00000000000E+00 0. -1.
</event>
<event>
 7    1  0.6988825E-006  0.1416646E+03  0.7561462E-02  0.1211107E+00
         -2   -1    0    0    0  501 -0.00000000000E+00  0.00000000000E+00  0.33678678823E+02  0.33678678823E+02  0.00000000000E+00 0.  1.
          2   -1    0    0  501    0  0.00000000000E+00 -0.00000000000E+00 -0.11925970050E+04  0.11925970050E+04  0.00000000000E+00 0. -1.
         23    2    1    2    0    0 -0.63454001029E+02  0.89552691992E+02 -0.16590690410E+03  0.21941746375E+03  0.92589565729E+02 0.  0.
          5    1    1    2  502    0 -0.27473884581E+02 -0.20628217942E+02 -0.48228599754E+03  0.48352620770E+03  0.41800000000E+01 0.  1.
         -5    1    1    2    0  502  0.90927885610E+02 -0.68924474050E+02 -0.51072542454E+03  0.52333201238E+03  0.41800000000E+01 0.  1.
        -11    1    3    3    0    0 -0.53817317690E+02  0.10406799594E+02 -0.31719561271E+02  0.63330369716E+02  0.00000000000E+00 0.  1.
         11    1    3    3    0    0 -0.96366833390E+01  0.79145892398E+02 -0.13418734283E+03  0.15608709404E+03  0.00000000000E+00 0. -1.
</event>
<event>
 7    1  0.6988825E-006  0.1108838E+03  0.7561462E-02  0.1258942E+00
          1   -1    0    0  501    0  0.00000000000E+00  0.00000000000E+00  0.41854143645E+03  0.41854143645E+03  0.00000000000E+00 0. -1.
         -1   -1    0    0    0  501 -0.00000000000E+00 -0.00000000000E+00 -0.38595976874E+02  0.38595976874E+02  0.00000000000E+00 0.  1.
         23    2    1    2    0    0 -0.25057785683E+02  0.52171990045E+02  0.73990384228E+02  0.12310361281E+03  0.79562009530E+02 0.  0.
          5    1    1    2  502    0  0.60674977001E+02 -0.68049538637E+02  0.17552744327E+03  0.19783717619E+03  0.41800000000E+01 0. -1.
         -5    1    1    2    0  502 -0.35617191318E+02  0.15877548593E+02  0.13042763208E+03  0.13619662432E+03  0.41800000000E+01 0.  1.
        -11    1    3    3    0    0  0.17532792762E+02  0.44732511043E+02  0.15734271710E+02  0.50556539364E+02  0.00000000000E+00 0.  1.
         11    1    3    3    0    0 -0.42590578444E+02  0.74394790017E+01  0.58256112518E+02  0.72547073447E+02  0.00000000000E+00 0. -1.
</event>
<event>
 7    1  0.6988825E-006  0.1291990E+03  0.7561462E-02  0.1228649E+00
         -1   -1    0    0    0  501 -0.00000000000E+00  0.00000000000E+00  0.13267548845E+03  0.13267548845E+03  0.00000000000E+00 0.  1.
          1   -1    0    0  501    0  0.00000000000E+00 -0.00000000000E+00 -0.15328043865E+03  0.15328043865E+03  0.00000000000E+00 0. -1.
         23    2    1    2    0    0 -0.72878706999E+02  0.59113849028E+02 -0.21474793168E+02  0.12957462805E+03  0.86733294710E+02 0.  0.
          5    1    1    2  502    0  0.64391449966E+02  0.60115478099E+01 -0.42561295829E+02  0.77532792020E+02  0.41800000000E+01 0.  1.
         -5    1    1    2    0  502  0.84872570331E+01 -0.65125396838E+02  0.43431138794E+02  0.78848507038E+02  0.41800000000E+01 0.  1.
        -11    1    3    3    0    0 -0.39769784470E+02 -0.18156042402E+02 -0.72903435720E+01  0.44321853999E+02  0.00000000000E+00 0.  1.
         11    1    3    3    0    0 -0.33108922529E+02  0.77269891430E+02 -0.14184449596E+02  0.85252774049E+02  0.00000000000E+00 0. -1.
</event>
<event>
 7    1  0.6988825E-006  0.9848985E+02  0.7561462E-02  0.1283504E+00
         -2   -1    0    0    0  501 -0.00000000000E+00  0.00000000000E+00  0.15440890916E+02  0.15440890916E+02  0.00000000000E+00 0.  1.
          2   -1    0    0  501    0  0.00000000000E+00 -0.00000000000E+00 -0.90107873026E+03  0.90107873026E+03  0.00000000000E+00 0. -1.
         23    2    1    2    0    0  0.42904730259E+01  0.44472962987E+02 -0.31611778466E+03  0.33171471301E+03  0.90044125017E+02 0.  0.
          5    1    1    2  502    0 -0.23930647648E+02 -0.63998031579E+02 -0.15625270244E+03  0.17058957577E+03  0.41800000000E+01 0. -1.
         -5    1    1    2    0  502  0.19640174622E+02  0.19525068591E+02 -0.41326735224E+03  0.41421533240E+03  0.41800000000E+01 0. -1.
        -11    1    3    3    0    0 -0.11786674417E+02 -0.25834408256E+02 -0.88532927616E+02  0.92975381774E+02  0.00000000000E+00 0.  1.
         11    1    3    3    0    0  0.16077147443E+02  0.70307371243E+02 -0.22758485705E+03  0.23873933123E+03  0.00000000000E+00 0. -1.
</event>
<event>
 7    1  0.6988825E-006  0.8239985E+02  0.7561462E-02  0.1322376E+00
         -2   -1    0    0    0  501 -0.00000000000E+00  0.00000000000E+00  0.12803234230E+03  0.12803234230E+03  0.00000000000E+00 0.  1.
          2   -1    0    0  501    0  0.00000000000E+00 -0.00000000000E+00 -0.13284420155E+03  0.13284420155E+03  0.00000000000E+00 0. -1.
         23    2    1    2    0    0  0.53815050141E+02 -0.47429113415E+02  0.88855116466E+01  0.11602934420E+03  0.90764949055E+02 0.  0.
          5    1    1    2  502    0 -0.63006771847E+01 -0.10871447142E+02 -0.56621433078E+02  0.58149342040E+02  0.41800000000E+01 0.  1.
         -5    1    1    2    0  502 -0.47514372956E+02  0.58300560557E+02  0.42924062182E+02  0.86697857602E+02  0.41800000000E+01 0.  1.
        -11    1    3    3    0    0  0.27290707237E+02 -0.75132880671E+01  0.46952912984E+02  0.54825251817E+02  0.00000000000E+00 0.  1.
         11    1    3    3    0    0  0.26524342904E+02 -0.39915825348E+02 -0.38067401338E+02  0.61204092382E+02  0.00000000000E+00 0. -1.
</event>
<event>
 7    1  0.6988825E-006  0.1388085E+03  0.7561462E-02  0.1214941E+00
          1   -1    0    0  501    0  0.00000000000E+00  0.00000000000E+00  0.21488050556E+03  0.21488050556E+03  0.00000000000E+00 0. -1.
         -1   -1    0    0    0  501 -0.00000000000E+00 -0.00000000000E+00 -0.35980474134E+03  0.35980474134E+03  0.00000000000E+00 0.  1.
         23    2    1    2    0    0  0.55185468928E+02  0.66520752201E+02 -0.31937116562E+03  0.34325075521E+03  0.91393069032E+02 0.  0.
          5    1    1    2  502    0  0.96330888254E+01  0.32096126321E+02  0.33642859081E+02  0.47668355250E+02  0.41800000000E+01 0. -1.
         -5    1    1    2    0  502 -0.64818557754E+02 -0.98616878522E+02  0.14080407076E+03  0.18376613644E+03  0.41800000000E+01 0. -1.
        -11    1    3    3    0    0 -0.25760609404E+02  0.14989292017E+02 -0.72600926098E+02  0.78480458346E+02  0.00000000000E+00 0. -1.
         11    1    3    3    0    0  0.80946078332E+02  0.51531460184E+02 -0.24677023953E+03  0.26477029687E+03  0.00000000000E+00 0.  1.
</event>
<event>
 7    1  0.6988825E-006  0.7925571E+02  0.7561462E-02  0.1331177E+00
         -2   -1    0    0    0  501 -0.00000000000E+00  0.00000000000E+00  0.27947487936E+02  0.27947487936E+02  0.00000000000E+00 0.  1.
          2   -1    0    0  501    0  0.00000000000E+00 -0.00000000000E+00 -0.17644430841E+04  0.17644430841E+04  0.00000000000E+00 0. -1.
         23    2    1    2    0    0  0.33084996572E+02  0.43940455133E+02 -0.95709920161E+02  0.14350958504E+03  0.91701862501E+02 0.  0.
          5    1    1    2  502    0 -0.17813754651E+02 -0.36891886455E+02 -0.16247424629E+04  0.16252642506E+04  0.41800000000E+01 0. -1.
         -5    1    1    2    0  502 -0.15271241921E+02 -0.70485686776E+01 -0.16043213048E+02  0.23616736335E+02  0.41800000000E+01 0.  1.
        -11    1    3    3    0    0  0.24676745466E+01  0.63578274761E+02 -0.34683676929E+02  0.72465466842E+02  0.00000000000E+00 0.  1.
         11    1    3    3    0    0  0.30617322025E+02 -0.19637819629E+02 -0.61026243233E+02  0.71044118200E+02  0.00000000000E+00 0. -1.
</event>
<event>
 7    1  0.6988825E-006  0.1017770E+03  0.7561462E-02  0.1276603E+00
         -1   -1    0    0    0  501 -0.00000000000E+00  0.00000000000E+00  0.91396280554E+02  0.91396280554E+02  0.00000000000E+00 0.  1.
          1   -1    0    0  501    0  0.00000000000E+00 -0.00000000000E+00 -0.15806816735E+03  0.15806816735E+03  0.00000000000E+00 0. -1.
         23    2    1    2    0    0 -0.39830722691E+01  0.45766158943E+02 -0.11441433814E+01  0.10096415726E+03  0.89900199215E+02 0.  0.
          5    1    1    2  502    0  0.33302377910E+02 -0.72970282458E+02 -0.71881608855E+02  0.10778751592E+03  0.41800000000E+01 0. -1.
         -5    1    1    2    0  502 -0.29319305641E+02  0.27204123515E+02  0.63538654392E+01  0.40712774721E+02  0.41800000000E+01 0. -1.
        -11    1    3    3    0    0 -0.28630521723E+02  0.50378373956E+02  0.26434271406E+02  0.63690329261E+02  0.00000000000E+00 0.  1.
         11    1    3    3    0    0  0.24647449454E+02 -0.46122150128E+01 -0.27578414787E+02  0.37273828004E+02  0.00000000000E+00 0. -1.
</event>
<event>
 7    1  0.6988825E-006  0.1064467E+03  0.7561462E-02  0.1267295E+00
         -1   -1    0    0    0  501 -0.00000000000E+00  0.00000000000E+00  0.64742322947E+02  0.64742322947E+02  0.00000000000E+00 0. -1.
          1   -1    0    0  501    0  0.00000000000E+00 -0.00000000000E+00 -0.33972154882E+03  0.33972154882E+03  0.00000000000E+00 0.  1.
         23    2    1    2    0    0  0.60293026304E+02 -0.16552905413E+01 -0.20680387686E+02  0.11471434207E+03  0.95360960743E+02 0.  0.
          5    1    1    2  502    0 -0.16861267819E+02 -0.48002880359E+02 -0.38181420230E+02  0.63748506853E+02  0.41800000000E+01 0. -1.
         -5    1    1    2    0  502 -0.43431758485E+02  0.49658170900E+02 -0.21611741796E+03  0.22600102285E+03  0.41800000000E+01 0. -1.
        -11    1    3    3    0    0 -0.70947421135E+01  0.22933864635E+02 -0.34133426939E+02  0.41729945451E+02  0.00000000000E+00 0. -1.
         11    1    3    3    0    0  0.67387768417E+02 -0.24589155176E+02  0.13453039253E+02  0.72984396618E+02  0.00000000000E+00 0.  1.
</event>
<event>
 7    1  0.6988825E-006  0.1487029E+03  0.7561462E-02  0.1202076E+00
          2   -1    0    0  501    0  0.00000000000E+00  0.00000000000E+00  0.45175720516E+03  0.45175720516E+03  0.00000000000E+00 0. -1.
         -2   -1    0    0    0  501 -0.00000000000E+00 -0.00000000000E+00 -0.10641640437E+03  0.10641640437E+03  0.00000000000E+00 0.  1.
         23    2    1    2    0    0  0.12328001050E+03  0.72904212187E+02  0.83879621952E+01  0.17126430510E+03  0.93531380549E+02 0.  0.
          5    1    1    2  502    0 -0.69613872199E+02 -0.95469611948E+01  0.27325620208E+03  0.28217664689E+03  0.41800000000E+01 0. -1.
         -5    1    1    2    0  502 -0.53666138301E+02 -0.63357250992E+02  0.63696636513E+02  0.10473265755E+03  0.41800000000E+01 0. -1.
        -11    1    3    3    0    0  0.59637578627E+02  0.43237987483E+02 -0.42040634442E+02  0.84814970909E+02  0.00000000000E+00 0.  1.
         11    1    3    3    0    0  0.63642431873E+02  0.29666224704E+02  0.50428596637E+02  0.86449334189E+02  0.00000000000E+00 0. -1.
</event>
<event>
 7    1  0.6988825E-006  0.8880582E+02  0.7561462E-02  0.1305770E+00
          1   -1    0    0  501    0  0.00000000000E+00  0.00000000000E+00  0.11428665179E+03  0.11428665179E+03  0.00000000000E+00 0. -1.
         -1   -1    0    0    0  501 -0.00000000000E+00 -0.00000000000E+00 -0.15010017272E+03  0.15010017272E+03  0.00000000000E+00 0.  1.
         23    2    1    2    0    0  0.27502259393E+01 -0.72671943347E+02 -0.25369536795E+02  0.11931613475E+03  0.91126020007E+02 0.  0.
          5    1    1    2  502    0  0.10965610711E+01  0.39176468625E+02  0.57147557386E+02  0.69421278116E+02  0.41800000000E+01 0.  1.
         -5    1    1    2    0  502 -0.38467870104E+01  0.33495474722E+02 -0.67591541521E+02  0.75649411646E+02  0.41800000000E+01 0.  1.
        -11    1    3    3    0    0  0.36655844093E+02 -0.20489867488E+02 -0.37047452487E+02  0.55999993854E+02  0.00000000000E+00 0.  1.
         11    1    3    3    0    0 -0.33905618153E+02 -0.52182075859E+02  0.11677915692E+02  0.63316140898E+02  0.00000000000E+00 0. -1.
</event>
<event>
 7    1  0.6988825E-006  0.1030985E+03  0.7561462E-02  0.1273912E+00
         -1   -1    0    0    0  501 -0.00000000000E+00  0.00000000000E+00  0.11900952583E+02  0.11900952583E+02  0.00000000000E+00 0.  1.
          1   -1    0    0  501    0  0.00000000000E+00 -0.00000000000E+00 -0.23650931243E+04  0.23650931243E+04  0.00000000000E+00 0. -1.
         23    2    1    2    0    0  0.29235465650E+02  0.31867412223E+02 -0.23855987278E+03  0.25902309533E+03  0.91169658322E+02 0.  0.
          5    1    1    2  502    0  0.26338069328E+02  0.17412862522E+02 -0.27553342372E+03  0.27736806172E+03  0.41800000000E+01 0. -1.
         -5    1    1    2    0  502 -0.55573534978E+02 -0.49280274746E+02 -0.18390988752E+04  0.18406029198E+04  0.41800000000E+01 0.  1.
        -11    1    3    3    0    0 -0.23211728229E+02  0.40617234415E+02 -0.12951674379E+03  0.13770668459E+03  0.00000000000E+00 0.  1.
         11    1    3    3    0    0  0.52447193879E+02 -0.87498221915E+01 -0.10904312899E+03  0.12131641073E+03  0.00000000000E+00 0. -1.
</event>
<event>
 7    1  0.6988825E-006  0.1045869E+03  0.7561462E-02  0.1270936E+00
         -2   -1    0    0    0  501 -0.00000000000E+00  0.00000000000E+00  0.64961108967E+01  0.64961108967E+01  0.00000000000E+00 0.  1.
          2   -1    0    0  501    0  0.00000000000E+00 -0.00000000000E+00 -0.25024568592E+04  0.25024568592E+04  0.00000000000E+00 0. -1.
         23    2    1    2    0    0 -0.17650433623E+00  0.34343216430E+02 -0.53868819759E+03  0.54738647177E+03  0.90925725648E+02 0.  0.
          5    1    1    2  502    0  0.88101738520E+01  0.38151715016E+02 -0.28639566062E+03  0.28909015782E+03  0.41800000000E+01 0.  1.
         -5    1    1    2    0  502 -0.86336695157E+01 -0.72494931447E+02 -0.16708768901E+04  0.16724763405E+04  0.41800000000E+01 0.  1.
        -11    1    3    3    0    0  0.24145131586E+02 -0.23640096135E+02 -0.16202724739E+03  0.16551335421E+03  0.00000000000E+00 0. -1.
         11    1    3    3    0    0 -0.24321635922E+02  0.57983312566E+02 -0.37666095020E+03  0.38187311756E+03  0.00000000000E+00 0.  1.
</event>
<event>
 7    1  0.6988825E-006  0.1578994E+03  0.7561462E-02  0.1191089E+00
         -1   -1    0    0    0  501 -0.00000000000E+00  0.00000000000E+00  0.24765110800E+03  0.24765110800E+03  0.00000000000E+00 0.  1.
          1   -1    0    0  501    0  0.00000000000E+00 -0.00000000000E+00 -0.13807125307E+03  0.13807125307E+03  0.00000000000E+00 0. -1.
         23    2    1    2    0    0 -0.10931979531E+03  0.69536824589E+02  0.12919827339E+03  0.20456224387E+03  0.91473111627E+02 0.  0.
          5    1    1    2  502    0  0.54137589555E+02 -0.10224111970E+03 -0.14614068702E+02  0.11668405446E+03  0.41800000000E+01 0. -1.
         -5    1    1    2    0  502  0.55182205752E+02  0.32704295111E+02 -0.50043497653E+01  0.64476062744E+02  0.41800000000E+01 0. -1.
        -11    1    3    3    0    0 -0.68135324218E+02  0.65259026674E+02  0.33203454714E+02  0.10001816022E+03  0.00000000000E+00 0. -1.
         11    1    3    3    0    0 -0.41184471089E+02  0.42777979150E+01  0.95994818677E+02  0.10454408365E+03  0.00000000000E+00 0.  1.
</event>
<event>
 7    1  0.6988825E-006  0.1610266E+03  0.7561462E-02  0.1187543E+00
         -1   -1    0    0    0  501 -0.00000000000E+00  0.00000000000E+00  0.11369671255E+03  0.11369671255E+03  0.00000000000E+00 0.  1.
          1   -1    0    0  501    0  0.00000000000E+00 -0.00000000000E+00 -0.27449225127E+03  0.27449225127E+03  0.00000000000E+00 0. -1.
         23    2    1    2    0    0  0.93917694037E+02 -0.10127049478E+03 -0.57445759105E+02  0.17510842312E+03  0.91031303648E+02 0.  0.
          5    1    1    2  502    0  0.14042243502E+02  0.44547159931E+02 -0.73945642103E+02  0.87561775031E+02  0.41800000000E+01 0.  1.
         -5    1    1    2    0  502 -0.10795993754E+03  0.56723334847E+02 -0.29404137512E+02  0.12551876566E+03  0.41800000000E+01 0.  1.
        -11    1    3    3    0    0  0.17219228546E+02 -0.66908041821E+02 -0.59294165413E+02  0.91043868240E+02  0.00000000000E+00 0. -1.
         11    1    3    3    0    0  0.76698465491E+02 -0.34362452957E+02  0.18484063082E+01  0.84064554884E+02  0.00000000000E+00 0.  1.
</event>
<event>
 7    1  0.6988825E-006  0.1190539E+03  0.7561462E-02  0.1244666E+00
          1   -1    0    0  501    0  0.00000000000E+00  0.00000000000E+00  0.41919432444E+03  0.41919432444E+03  0.00000000000E+00 0. -1.
         -1   -1    0    0    0  501 -0.00000000000E+00 -0.00000000000E+00 -0.40684717262E+02  0.40684717262E+02  0.00000000000E+00 0.  1.
         23    2    1    2    0    0 -0.58939611962E+02  0.39795040704E+02  0.15399355781E+03  0.19320816442E+03  0.92508679761E+02 0.  0.
          5    1    1    2  502    0 -0.26710962611E+01 -0.61046737196E+02  0.17290416337E+03  0.18343162483E+03  0.41800000000E+01 0.  1.
         -5    1    1    2    0  502  0.61610708224E+02  0.21251696492E+02  0.51611886008E+02  0.83239252453E+02  0.41800000000E+01 0.  1.
        -11    1    3    3    0    0 -0.32977576716E+02 -0.25239534189E+02  0.86496020304E+02  0.95948507965E+02  0.00000000000E+00 0. -1.
         11    1    3    3    0    0 -0.25962035246E+02  0.65034574893E+02  0.67497537501E+02  0.97259656458E+02  0.00000000000E+00 0.  1.
</event>
<event>
 7    1  0.6988825E-006  0.1394372E+03  0.7561462E-02  0.1214088E+00
         -2   -1    0    0    0  501 -0.00000000000E+00  0.00000000000E+00  0.13548272042E+03  0.13548272042E+03  0.00000000000E+00 0.  1.
          2   -1    0    0  501    0  0.00000000000E+00 -0.00000000000E+00 -0.24585080253E+03  0.24585080253E+03  0.00000000000E+00 0. -1.
         23    2    1    2    0    0  0.24968649958E+02 -0.10729610719E+03  0.46503582876E+02  0.15244117405E+03  0.94550728332E+02 0.  0.
          5    1    1    2  502    0 -0.50455700245E+02  0.15981061291E+01 -0.21029249915E+02  0.54845541135E+02  0.41800000000E+01 0.  1.
         -5    1    1    2    0  502  0.25487050287E+02  0.10569800106E+03 -0.13584241508E+03  0.17404680777E+03  0.41800000000E+01 0.  1.
        -11    1    3    3    0    0  0.36850469835E+02 -0.58088880103E+02 -0.17360128140E+02  0.70948214690E+02  0.00000000000E+00 0. -1.
         11    1    3    3    0    0 -0.11881819877E+02 -0.49207227083E+02  0.63863711016E+02  0.81492959362E+02  0.00000000000E+00 0.  1.
</event>
<event>
 7    1  0.6988825E-006  0.1464477E+03  0.7561462E-02  0.1204907E+00
          1   -1    0    0  501    0  0.00000000000E+00  0.00000000000E+00  0.87523484404E+03  0.87523484404E+03  0.00000000000E+00 0. -1.
         -1   -1    0    0    0  501 -0.00000000000E+00 -0.00000000000E+00 -0.34993314599E+02  0.34993314599E+02  0.00000000000E+00 0.  1.
         23    2    1    2    0    0  0.40520050619E+02 -0.11496070279E+03  0.23417154760E+03  0.27949382897E+03  0.91774991376E+02 0.  0.
          5    1    1    2  502    0 -0.30996455053E+02  0.72155061986E+01  0.27932159209E+02  0.42550225306E+02  0.41800000000E+01 0. -1.
         -5    1    1    2    0  502 -0.95235955658E+01  0.10774519659E+03  0.57813782264E+03  0.58818410436E+03  0.41800000000E+01 0. -1.
        -11    1    3    3    0    0  0.69636353071E+02 -0.68227445864E+02  0.14704183113E+03  0.17642422209E+03  0.00000000000E+00 0.  1.
         11    1    3    3    0    0 -0.29116302452E+02 -0.46733256925E+02  0.87129716464E+02  0.10306960688E+03  0.00000000000E+00 0. -1.
</event>
<event>
 7    1  0.6988825E-006  0.1724125E+03  0.7561462E-02  0.1175355E+00
         -1   -1    0    0    0  501 -0.00000000000E+00  0.00000000000E+00  0.45202436289E+02  0.45202436289E+02  0.00000000000E+00 0.  1.
          1   -1    0    0  501    0  0.00000000000E+00 -0.00000000000E+00 -0.68211446441E+03  0.68211446441E+03  0.00000000000E+00 0. -1.
         23    2    1    2    0    0  0.65992545051E+02 -0.12017711615E+03 -0.32392616455E+03  0.36344155234E+03  0.91455161923E+02 0.  0.
          5    1    1    2  502    0 -0.10252242236E+03  0.10123414586E+03 -0.23835244148E+03  0.27854722783E+03  0.41800000000E+01 0. -1.
         -5    1    1    2    0  502  0.36529877304E+02  0.18942970291E+02 -0.74633422094E+02  0.85328120527E+02  0.41800000000E+01 0. -1.
        -11    1    3    3    0    0  0.28329491541E+02 -0.11826546215E+03 -0.20165386896E+03  0.23548580105E+03  0.00000000000E+00 0.  1.
         11    1    3    3    0    0  0.37663053510E+02 -0.19116539956E+01 -0.12227229559E+03  0.12795575130E+03  0.00000000000E+00 0. -1.
</event>
<event>
 7    1  0.6988825E-006  0.1493964E+03  0.7561462E-02  0.1201217E+00
          2   -1    0    0  501    0  0.00000000000E+00  0.00000000000E+00  0.80485748732E+03  0.80485748732E+03  0.00000000000E+00 0. -1.
         -2   -1    0    0    0  501 -0.00000000000E+00 -0.00000000000E+00 -0.56898601129E+02  0.56898601129E+02  0.00000000000E+00 0.  1.
         23    2    1    2    0    0 -0.54300689986E+02  0.11332959019E+03  0.11037410011E+03  0.19997354232E+03  0.10961211022E+03 0.  0.
          5    1    1    2  502    0  0.54888944382E+02  0.23249710657E+01  0.13041630773E+03  0.14157714302E+03  0.41800000000E+01 0.  1.
         -5    1    1    2    0  502 -0.58825439612E+00 -0.11565456126E+03  0.50716847836E+03  0.52020540311E+03  0.41800000000E+01 0.  1.
        -11    1    3    3    0    0 -0.13618064920E+02  0.99438063700E+01 -0.21637199887E+02  0.27431722444E+02  0.00000000000E+00 0.  1.
         11    1    3    3    0    0 -0.40682625066E+02  0.10338578382E+03  0.13201130000E+03  0.17254181988E+03  0.00000000000E+00 0. -1.
</event>
<event>
 7    1  0.6988825E-006  0.9354047E+02  0.7561462E-02  0.1294498E+00
         -1   -1    0    0    0  501 -0.00000000000E+00  0.00000000000E+00  0.61664588764E+02  0.61664588764E+02  0.00000000000E+00 0.  1.
          1   -1    0    0  501    0  0.00000000000E+00 -0.00000000000E+00 -0.28864730515E+03  0.28864730515E+03  0.00000000000E+00 0. -1.
         23    2    1    2    0    0 -0.36709824638E+02 -0.12842724164E+02 -0.15670766417E+02  0.10168780780E+03  0.92640652770E+02 0.  0.
          5    1    1    2  502    0  0.19761523238E+02 -0.48650610071E+02 -0.41128028021E+02  0.66831031339E+02  0.41800000000E+01 0.  1.
         -5    1    1    2    0  502  0.16948301399E+02  0.61493334234E+02 -0.17018392194E+03  0.18179305477E+03  0.41800000000E+01 0.  1.
        -11    1    3    3    0    0 -0.34501084298E+02  0.18440338704E+02 -0.44387011977E+02  0.59165680436E+02  0.00000000000E+00 0. -1.
         11    1    3    3    0    0 -0.22087403398E+01 -0.31283062867E+02  0.28716245560E+02  0.42522127361E+02  0.00000000000E+00 0.  1.
</event>
<event>
 7    1  0.6988825E-006  0.1598178E+03  0.7561462E-02  0.1188903E+00
          1   -1    0    0  501    0  0.00000000000E+00  0.00000000000E+00  0.42975828337E+03  0.42975828337E+03  0.00000000000E+00 0. -1.
         -1   -1    0    0    0  501 -0.00000000000E+00 -0.00000000000E+00 -0.82172843729E+02  0.82172843729E+02  0.00000000000E+00 0.  1.
         23    2    1    2    0    0 -0.12692379320E+03  0.20200639308E+02  0.50567328032E+02  0.16497195390E+03  0.90227356162E+02 0.  0.
          5    1    1    2  502    0 -0.62366097877E+01 -0.29704029380E+02  0.13351519639E+02  0.33420953602E+02  0.41800000000E+01 0.  1.
         -5    1    1    2    0  502  0.13316040299E+03  0.95033900721E+01  0.28366659197E+03  0.31353821959E+03  0.41800000000E+01 0.  1.
        -11    1    3    3    0    0 -0.13975079757E+03  0.24545485606E+02  0.52501426697E+02  0.15129165902E+03  0.00000000000E+00 0. -1.
         11    1    3    3    0    0  0.12827004364E+02 -0.43448462982E+01 -0.19340986644E+01  0.13680294879E+02  0.00000000000E+00 0.  1.
</event>
<event>
 7    1  0.6988825E-006  0.1116539E+03  0.7561462E-02  0.1257537E+00
          2   -1    0    0  501    0  0.00000000000E+00  0.00000000000E+00  0.17484659130E+03  0.17484659130E+03  0.00000000000E+00 0. -1.
         -2   -1    0    0    0  501 -0.00000000000E+00 -0.00000000000E+00 -0.11280922845E+03  0.11280922845E+03  0.00000000000E+00 0.  1.
         23    2    1    2    0    0  0.32688693915E+02 -0.81990673425E+02  0.19526174687E+02  0.12876612619E+03  0.91697450989E+02 0.  0.
          5    1    1    2  502    0 -0.40375708043E+02 -0.11134231076E+01 -0.28187501735E+02  0.49431216503E+02  0.41800000000E+01 0.  1.
         -5    1    1    2    0  502  0.76870141277E+01  0.83104096532E+02  0.70698689896E+02  0.10945847706E+03  0.41800000000E+01 0.  1.
        -11    1    3    3    0    0 -0.30244666011E+01 -0.53142448861E+02  0.50510353696E+02  0.73379582308E+02  0.00000000000E+00 0. -1.
         11    1    3    3    0    0  0.35713160516E+02 -0.28848224563E+02 -0.30984179009E+02  0.55386543883E+02  0.00000000000E+00 0.  1.
</event>
<event>
 7    1  0.6988825E-006  0.1498326E+03  0.7561462E-02  0.1200679E+00
         -2   -1    0    0    0  501 -0.00000000000E+00  0.00000000000E+00  0.36633995214E+02  0.36633995214E+02  0.00000000000E+00 0.  1.
          2   -1    0    0  501    0  0.00000000000E+00 -0.00000000000E+00 -0.68065922126E+03  0.68065922126E+03  0.00000000000E+00 0. -1.
         23    2    1    2    0    0  0.11185445658E+03 -0.11506420016E+02 -0.31348514211E+03  0.34641742689E+03  0.95332482232E+02 0.  0.
          5    1    1    2  502    0  0.25853397787E+02 -0.88759988623E+01 -0.39354474737E+02  0.48098114462E+02  0.41800000000E+01 0.  1.
         -5    1    1    2    0  502 -0.13770785437E+03  0.20382418879E+02 -0.29118560920E+03  0.32277767513E+03  0.41800000000E+01 0.  1.
        -11    1    3    3    0    0  0.62754413292E+02  0.28961011411E+02 -0.86708389367E+02  0.11088372900E+03  0.00000000000E+00 0.  1.
         11    1    3    3    0    0  0.49100043291E+02 -0.40467431427E+02 -0.22677675274E+03  0.23553369789E+03  0.00000000000E+00 0. -1.
</event>
<event>
 7    1  0.6988825E-006  0.1325609E+03  0.7561462E-02  0.1223704E+00
         -2   -1    0    0    0  501 -0.00000000000E+00  0.00000000000E+00  0.49001179791E+02  0.49001179791E+02  0.00000000000E+00 0.  1.
          2   -1    0    0  501    0  0.00000000000E+00 -0.00000000000E+00 -0.40866697950E+03  0.40866697950E+03  0.00000000000E+00 0. -1.
         23    2    1    2    0    0 -0.66985116022E+02 -0.58317901077E+02 -0.13411793481E+03  0.18488938285E+03  0.91150864480E+02 0.  0.
          5    1    1    2  502    0  0.75041742218E+02 -0.86566665769E+01 -0.16708499046E+03  0.18341501407E+03  0.41800000000E+01 0. -1.
         -5    1    1    2    0  502 -0.80566261960E+01  0.66974567654E+02 -0.58462874439E+02  0.89363762375E+02  0.41800000000E+01 0. -1.
        -11    1    3    3    0    0 -0.73597607518E+02 -0.74302151892E+02 -0.91741409107E+02  0.13911830848E+03  0.00000000000E+00 0.  1.
         11    1    3    3    0    0  0.66124914966E+01  0.15984250815E+02 -0.42376525707E+02  0.45771074369E+02  0.00000000000E+00 0. -1.
</event>
<event>
 7    1  0.6988825E-006  0.1075753E+03  0.7561462E-02  0.1265127E+00
         -1   -1    0    0    0  501 -0.00000000000E+00  0.00000000000E+00  0.10698474409E+02  0.10698474409E+02  0.00000000000E+00 0.  1.
          1   -1    0    0  501    0  0.00000000000E+00 -0.00000000000E+00 -0.22945924428E+04  0.22945924428E+04  0.00000000000E+00 0. -1.
         23    2    1    2    0    0 -0.14488291114E+02  0.25314919700E+02 -0.29019422322E+03  0.30745776888E+03  0.97297670680E+02 0.  0.
          5    1    1    2  502    0  0.36471785509E+02  0.39151679409E+02 -0.57696284844E+03  0.57945374795E+03  0.41800000000E+01 0.  1.
         -5    1    1    2    0  502 -0.21983494395E+02 -0.64466599110E+02 -0.14167368967E+04  0.14183794003E+04  0.41800000000E+01 0.  1.
        -11    1    3    3    0    0 -0.52816990967E+01 -0.33396420532E+02 -0.52490850838E+02  0.62438022642E+02  0.00000000000E+00 0.  1.
         11    1    3    3    0    0 -0.92065920172E+01  0.58711340232E+02 -0.23770337238E+03  0.24501974624E+03  0.00000000000E+00 0. -1.
</event>
<event>
 7    1  0.6988825E-006  0.9461334E+02  0.7561462E-02  0.1292049E+00
          3   -1    0    0  501    0  0.00000000000E+00  0.00000000000E+00  0.28092964039E+03  0.28092964039E+03  0.00000000000E+00 0. -1.
         -3   -1    0    0    0  501 -0.00000000000E+00 -0.00000000000E+00 -0.49394221214E+02  0.49394221214E+02  0.00000000000E+00 0.  1.
         23    2    1    2    0    0  0.61122702306E+01  0.37005916809E+02  0.64181528251E+02  0.11804409687E+03  0.91697014731E+02 0.  0.
          5    1    1    2  502    0 -0.50451937800E+01  0.27278493208E+02 -0.48022902787E+01  0.28462335883E+02  0.41800000000E+01 0.  1.
         -5    1    1    2    0  502 -0.10670764505E+01 -0.64284410017E+02  0.17215618120E+03  0.18381742885E+03  0.41800000000E+01 0.  1.
        -11    1    3    3    0    0  0.46487527135E+02  0.83472857481E+01  0.18652767929E+02  0.50780834081E+02  0.00000000000E+00 0.  1.
         11    1    3    3    0    0 -0.40375256904E+02  0.28658631061E+02  0.45528760322E+02  0.67263262788E+02  0.00000000000E+00 0. -1.
</event>
<event>
 7    1  0.6988825E-006  0.1177884E+03  0.7561462E-02  0.1246791E+00
         -4   -1    0    0    0  501 -0.00000000000E+00  0.00000000000E+00  0.82809874721E+03  0.82809874721E+03  0.00000000000E+00 0.  1.
          4   -1    0    0  501    0  0.00000000000E+00 -0.00000000000E+00 -0.19571940889E+02  0.19571940889E+02  0.00000000000E+00 0. -1.
         23    2    1    2    0    0  0.56784660429E+02  0.31172306691E+02  0.40137536427E+03  0.41683832464E+03  0.91955399447E+02 0.  0.
          5    1    1    2  502    0 -0.47058015943E+02 -0.70491491656E+02  0.35313269073E+03  0.36318545803E+03  0.41800000000E+01 0.  1.
         -5    1    1    2    0  502 -0.97266444862E+01  0.39319184965E+02  0.54018751319E+02  0.67646905423E+02  0.41800000000E+01 0.  1.
        -11    1    3    3    0    0  0.54345149139E+02  0.60066102790E+02  0.25281537648E+03  0.26547494519E+03  0.00000000000E+00 0.  1.
         11    1    3    3    0    0  0.24395112907E+01 -0.28893796099E+02  0.14855998779E+03  0.15136337946E+03  0.00000000000E+00 0. -1.
</event>
<event>
 7    1  0.6988825E-006  0.7198038E+02  0.7561462E-02  0.1353485E+00
          1   -1    0    0  501    0  0.00000000000E+00  0.00000000000E+00  0.10102863107E+04  0.10102863107E+04  0.00000000000E+00 0. -1.
         -1   -1    0    0    0  501 -0.00000000000E+00 -0.00000000000E+00 -0.10222950673E+02  0.10222950673E+02  0.00000000000E+00 0.  1.
         23    2    1    2    0    0  0.18212673782E+02  0.17393846856E+01  0.33136029098E+03  0.33996083807E+03  0.73749590105E+02 0.  0.
          5    1    1    2  502    0 -0.57897412967E+01 -0.34516809496E+02  0.51909671808E+02  0.62745658570E+02  0.41800000000E+01 0. -1.
         -5    1    1    2    0  502 -0.12422932485E+02  0.32777424811E+02  0.61679339724E+03  0.61780276473E+03  0.41800000000E+01 0. -1.
        -11    1    3    3    0    0  0.62254791284E+01 -0.34595323420E+02  0.20295168508E+03  0.20597324941E+03  0.00000000000E+00 0. -1.
         11    1    3    3    0    0  0.11987194653E+02  0.36334708106E+02  0.12840860589E+03  0.13398758867E+03  0.00000000000E+00 0.  1.
</event>
<event>
 7    1  0.6988825E-006  0.1378874E+03  0.7561462E-02  0.1216200E+00
          2   -1    0    0  501    0  0.00000000000E+00  0.00000000000E+00  0.16333216939E+03  0.16333216939E+03  0.00000000000E+00 0. -1.
         -2   -1    0    0    0  501 -0.00000000000E+00 -0.00000000000E+00 -0.11798318447E+03  0.11798318447E+03  0.00000000000E+00 0.  1.
         23    2    1    2    0    0  0.44339954031E+02 -0.53034749294E+02  0.84373437682E+01  0.11792806133E+03  0.95168916786E+02 0.  0.
          5    1    1    2  502    0 -0.91301877014E+02  0.55390068176E+01  0.28724295292E+02  0.95964946115E+02  0.41800000000E+01 0. -1.
         -5    1    1    2    0  502  0.46961922984E+02  0.47495742476E+02  0.81873458570E+01  0.67422346413E+02  0.41800000000E+01 0.  1.
        -11    1    3    3    0    0 -0.11201931169E+02  0.21553068952E+02 -0.18726439794E+01  0.24362365210E+02  0.00000000000E+00 0. -1.
         11    1    3    3    0    0  0.55541885200E+02 -0.74587818246E+02  0.10309987748E+02  0.93565696116E+02  0.00000000000E+00 0.  1.
</event>
<event>
 7    1  0.6988825E-006  0.1418113E+03  0.7561462E-02  0.1210912E+00
         -2   -1    0    0    0  501 -0.00000000000E+00  0.00000000000E+00  0.24963495906E+03  0.24963495906E+03  0.00000000000E+00 0. -1.
          2   -1    0    0  501    0  0.00000000000E+00 -0.00000000000E+00 -0.10217177645E+03  0.10217177645E+03  0.00000000000E+00 0.  1.
         23    2    1    2    0    0  0.57429816506E+02 -0.87623621195E+02  0.12146458760E+03  0.18658026963E+03  0.95301984030E+02 0.  0.
          5    1    1    2  502    0 -0.80668363681E+02  0.86697630119E+02 -0.13434734007E+02  0.11925530783E+03  0.41800000000E+01 0. -1.
         -5    1    1    2    0  502  0.23238547176E+02  0.92599107569E+00  0.39433329027E+02  0.45971158050E+02  0.41800000000E+01 0. -1.
        -11    1    3    3    0    0 -0.14332325514E+02 -0.64541663313E+02  0.60771194716E+02  0.89800779312E+02  0.00000000000E+00 0.  1.
         11    1    3    3    0    0  0.71762142020E+02 -0.23081957882E+02  0.60693392883E+02  0.96779490320E+02  0.00000000000E+00 0. -1.
</event>
<event>
 7    1  0.6988825E-006  0.1194291E+03  0.7561462E-02  0.1244042E+00
         -2   -1    0    0    0  501 -0.00000000000E+00  0.00000000000E+00  0.83478181256E+02  0.83478181256E+02  0.00000000000E+00 0.  1.
          2   -1    0    0  501    0  0.00000000000E+00 -0.00000000000E+00 -0.25090990387E+03  0.25090990387E+03  0.00000000000E+00 0. -1.
         23    2    1    2    0    0 -0.73345837068E+02 -0.60698433225E+02 -0.59409552829E+02  0.14365476941E+03  0.89684369850E+02 0.  0.
          5    1    1    2  502    0  0.73035167536E+02  0.14648221786E+02 -0.15158567205E+01  0.74622224036E+02  0.41800000000E+01 0. -1.
         -5    1    1    2    0  502  0.31066953196E+00  0.46050211439E+02 -0.10650631307E+03  0.11611109169E+03  0.41800000000E+01 0. -1.
        -11    1    3    3    0    0  0.70740891086E+01 -0.31766885282E+02  0.94622401011E+01  0.33892650014E+02  0.00000000000E+00 0.  1.
         11    1    3    3    0    0 -0.80419926176E+02 -0.28931547943E+02 -0.68871792930E+02  0.10976211939E+03  0.00000000000E+00 0. -1.
</event>
<event>
 7    1  0.6988825E-006  0.1170557E+03  0.7561462E-02  0.1248035E+00
          3   -1    0    0  501    0  0.00000000000E+00  0.00000000000E+00  0.57069092799E+03  0.57069092799E+03  0.00000000000E+00 0. -1.
         -3   -1    0    0    0  501 -0.00000000000E+00 -0.00000000000E+00 -0.31702270836E+02  0.31702270836E+02  0.00000000000E+00 0.  1.
         23    2    1    2    0    0  0.45999897542E+02 -0.24585009393E+02  0.11652791808E+03  0.15872598553E+03  0.94312085804E+02 0.  0.
          5    1    1    2  502    0 -0.52695653834E+02  0.66987229928E+02  0.20640760289E+03  0.22335105067E+03  0.41800000000E+01 0. -1.
         -5    1    1    2    0  502  0.66957562920E+01 -0.42402220535E+02  0.21605313619E+03  0.22031616263E+03  0.41800000000E+01 0. -1.
        -11    1    3    3    0    0  0.69187362132E+02  0.34421857096E+01  0.90632552019E+02  0.11407453356E+03  0.00000000000E+00 0.  1.
         11    1    3    3    0    0 -0.23187464590E+02 -0.28027195103E+02  0.25895366063E+02  0.44651451969E+02  0.00000000000E+00 0. -1.
</event>
<event>
 7    1  0.6988825E-006  0.1252089E+03  0.7561462E-02  0.1234743E+00
         -2   -1    0    0    0  501 -0.00000000000E+00  0.00000000000E+00  0.47341544053E+03  0.47341544053E+03  0.00000000000E+00 0.  1.
          2   -1    0    0  501    0  0.00000000000E+00 -0.00000000000E+00 -0.42656807277E+02  0.42656807277E+02  0.00000000000E+00 0. -1.
         23    2    1    2    0    0  0.82564572390E+02 -0.71980828615E+01  0.26706978932E+03  0.29401423724E+03  0.90826088329E+02 0.  0.
          5    1    1    2  502    0 -0.86590397044E+02  0.45816714098E+02  0.69767809099E+02  0.12034154618E+03  0.41800000000E+01 0.  1.
         -5    1    1    2    0  502  0.40258246538E+01 -0.38618631236E+02  0.93921034827E+02  0.10171646438E+03  0.41800000000E+01 0.  1.
        -11    1    3    3    0    0  0.54119510022E+01 -0.31857739640E+02  0.32402545972E+02  0.45761662711E+02  0.00000000000E+00 0. -1.
         11    1    3    3    0    0  0.77152621388E+02  0.24659656778E+02  0.23466724335E+03  0.24825257453E+03  0.00000000000E+00 0.  1.
</event>
<event>
 6    1  0.6988825E-006  0.7607256E+02  0.7561462E-02  0.1340581E+00
         -2   -1    0    0    0  501 -0.00000000000E+00  0.00000000000E+00  0.22711508684E+03  0.22711508684E+03  0.00000000000E+00 0.  1.
          2   -1    0    0  501    0  0.00000000000E+00 -0.00000000000E+00 -0.38000011805E+02  0.38000011805E+02  0.00000000000E+00 0. -1.
          5    1    1    2  502    0 -0.18907938746E+02 -0.40920913311E+02 -0.28834776791E+01  0.45363180415E+02  0.41800000000E+01 0. -1.
         -5    1    1    2    0  502  0.18402973102E+02  0.70512000811E+02  0.13310911424E+03  0.15180948709E+03  0.41800000000E+01 0.  1.
        -11    1    1    2    0    0 -0.79751966534E+01 -0.13112459203E+02  0.26081094305E+02  0.30261589981E+02  0.00000000000E+00 0. -1.
         11    1    1    2    0    0  0.84801622980E+01 -0.16478628297E+02  0.32808344166E+02  0.37680841154E+02  0.00000000000E+00 0.  1.
</event>
<event>
 7    1  0.6988825E-006  0.9188164E+02  0.7561462E-02  0.1298358E+00
         -2   -1    0    0    0  501 -0.00000000000E+00  0.00000000000E+00  0.80891773907E+02  0.80891773907E+02  0.00000000000E+00 0.  1.
          2   -1    0    0  501    0  0.00000000000E+00 -0.00000000000E+00 -0.20004001393E+03  0.20004001393E+03  0.00000000000E+00 0. -1.
         23    2    1    2    0    0 -0.19606152384E+01  0.31395852942E+02  0.16970908237E+02  0.93405080458E+02  0.86295734164E+02 0.  0.
          5    1    1    2  502    0  0.61073345792E+02 -0.13169489744E+02 -0.44171964682E+02  0.76629132125E+02  0.41800000000E+01 0. -1.
         -5    1    1    2    0  502 -0.59112730554E+02 -0.18226363199E+02 -0.91947183574E+02  0.11089757525E+03  0.41800000000E+01 0. -1.
        -11    1    3    3    0    0  0.24026033859E+02  0.13098966914E+02 -0.27466771057E+02  0.38771855121E+02  0.00000000000E+00 0. -1.
         11    1    3    3    0    0 -0.25986649098E+02  0.18296886028E+02  0.44437679294E+02  0.54633225337E+02  0.00000000000E+00 0.  1.
</event>
<event>
 7    1  0.6988825E-006  0.5172489E+02  0.7561462E-02  0.1436254E+00
         -2   -1    0    0    0  501 -0.00000000000E+00  0.00000000000E+00  0.22599265642E+03  0.22599265642E+03  0.00000000000E+00 0. -1.
          2   -1    0    0  501    0  0.00000000000E+00 -0.00000000000E+00 -0.62242290976E+02  0.62242290976E+02  0.00000000000E+00 0.  1.
         23    2    1    2    0    0 -0.79625396230E+01 -0.42740023374E+01  0.13188504889E+03  0.15878885903E+03  0.87969122415E+02 0.  0.
          5    1    1    2  502    0  0.95424084664E+01  0.22800105610E+01 -0.48131992922E+02  0.49299261152E+02  0.41800000000E+01 0.  1.
         -5    1    1    2    0  502 -0.15798688435E+01  0.19939917764E+01  0.79997309470E+02  0.80146827206E+02  0.41800000000E+01 0.  1.
        -11    1    3    3    0    0 -0.14388411692E+02 -0.44699973579E+02  0.61668055341E+02  0.77511696398E+02  0.00000000000E+00 0.  1.
         11    1    3    3    0    0  0.64258720694E+01  0.40425971241E+02  0.70216993552E+02  0.81277162636E+02  0.00000000000E+00 0. -1.
</event>
<event>
 7    1  0.6988825E-006  0.1236493E+03  0.7561462E-02  0.1237195E+00
         -1   -1    0    0    0  501 -0.00000000000E+00  0.00000000000E+00  0.14978873264E+03  0.14978873264E+03  0.00000000000E+00 0.  1.
          1   -1    0    0  501    0  0.00000000000E+00 -0.00000000000E+00 -0.16197129163E+03  0.16197129163E+03  0.00000000000E+00 0. -1.
         23    2    1    2    0    0 -0.36756228446E+02  0.93005799043E+02  0.44410524091E+02  0.14190402655E+03  0.90351309429E+02 0.  0.
          5    1    1    2  502    0  0.48535033231E+02 -0.90561079141E+02  0.88247843173E+01  0.10321001756E+03  0.41800000000E+01 0. -1.
         -5    1    1    2    0  502 -0.11778804784E+02 -0.24447199020E+01 -0.65417867394E+02  0.66645980164E+02  0.41800000000E+01 0. -1.
        -11    1    3    3    0    0 -0.62707672640E+02  0.45079236709E+02  0.40646013019E+02  0.87272493745E+02  0.00000000000E+00 0.  1.
         11    1    3    3    0    0  0.25951444193E+02  0.47926562335E+02  0.37645110719E+01  0.54631532804E+02  0.00000000000E+00 0. -1.
</event>
<event>
 7    1  0.6988825E-006  0.1356113E+03  0.7561462E-02  0.1219359E+00
          2   -1    0    0  501    0  0.00000000000E+00  0.00000000000E+00  0.14047327702E+03  0.14047327702E+03  0.00000000000E+00 0. -1.
         -2   -1    0    0    0  501 -0.00000000000E+00 -0.00000000000E+00 -0.15404970086E+03  0.15404970086E+03  0.00000000000E+00 0.  1.
         23    2    1    2    0    0 -0.25735007789E+02  0.89657858476E+02 -0.41404984064E+02  0.13601064584E+03  0.89909403645E+02 0.  0.
          5    1    1    2  502    0  0.19486796373E+02  0.22046636746E+02  0.35493498580E+02  0.46293090911E+02  0.41800000000E+01 0. -1.
         -5    1    1    2    0  502  0.62482114163E+01 -0.11170449522E+03 -0.76649383600E+01  0.11221924113E+03  0.41800000000E+01 0. -1.
        -11    1    3    3    0    0 -0.59605034549E+02  0.55537134511E+02 -0.26831371297E+02  0.85773282198E+02  0.00000000000E+00 0. -1.
         11    1    3    3    0    0  0.33870026760E+02  0.34120723965E+02 -0.14573612768E+02  0.50237363642E+02  0.00000000000E+00 0.  1.
</event>
<event>
 7    1  0.6988825E-006  0.1019461E+03  0.7561462E-02  0.1276256E+00
         -2   -1    0    0    0  501 -0.00000000000E+00  0.00000000000E+00  0.15755388473E+02  0.15755388473E+02  0.00000000000E+00 0.  1.
          2   -1    0    0  501    0  0.00000000000E+00 -0.00000000000E+00 -0.16538270657E+04  0.16538270657E+04  0.00000000000E+00 0. -1.
         23    2    1    2    0    0 -0.15370522962E+02  0.26404319128E+02 -0.15752267355E+03  0.18344507756E+03  0.88911544540E+02 0.  0.
          5    1    1    2  502    0 -0.31281436394E+02  0.31676717232E+02 -0.30945891107E+03  0.31267272461E+03  0.41800000000E+01 0. -1.
         -5    1    1    2    0  502  0.46651959356E+02 -0.58081036360E+02 -0.11710900926E+04  0.11734646520E+04  0.41800000000E+01 0. -1.
        -11    1    3    3    0    0  0.32457214632E+02  0.92100522342E+01 -0.26472906864E+02  0.42884853289E+02  0.00000000000E+00 0.  1.
         11    1    3    3    0    0 -0.47827737594E+02  0.17194266894E+02 -0.13104976669E+03  0.14056022427E+03  0.00000000000E+00 0. -1.
</event>
<event>
 7    1  0.6988825E-006  0.1190406E+03  0.7561462E-02  0.1244688E+00
         -1   -1    0    0    0  501 -0.00000000000E+00  0.00000000000E+00  0.11268521803E+03  0.11268521803E+03  0.00000000000E+00 0.  1.
          1   -1    0    0  501    0  0.00000000000E+00 -0.00000000000E+00 -0.13111267620E+03  0.13111267620E+03  0.00000000000E+00 0. -1.
         23    2    1    2    0    0 -0.40478219945E+02  0.37947976307E+02  0.44698247562E+01  0.10505230525E+03  0.89092493000E+02 0.  0.
          5    1    1    2  502    0  0.12975459340E+02  0.45655782415E+02 -0.16419501858E+02  0.50397276259E+02  0.41800000000E+01 0. -1.
         -5    1    1    2    0  502  0.27502760604E+02 -0.83603758722E+02 -0.64777810690E+01  0.88348312722E+02  0.41800000000E+01 0. -1.
        -11    1    3    3    0    0  0.10208464620E+02  0.49329154051E+02  0.13894690150E+02  0.52255531799E+02  0.00000000000E+00 0.  1.
         11    1    3    3    0    0 -0.50686684565E+02 -0.11381177744E+02 -0.94248653939E+01  0.52796773450E+02  0.00000000000E+00 0. -1.
</event>
<event>
 7    1  0.6988825E-006  0.1380663E+03  0.7561462E-02  0.1215955E+00
          1   -1    0    0  501    0  0.00000000000E+00  0.00000000000E+00  0.17459650275E+03  0.17459650275E+03  0.00000000000E+00 0. -1.
         -1   -1    0    0    0  501 -0.00000000000E+00 -0.00000000000E+00 -0.16716115294E+03  0.16716115294E+03  0.00000000000E+00 0.  1.
         23    2    1    2    0    0  0.28863082598E+02  0.12826045819E+03 -0.63633089877E+00  0.16010973692E+03  0.91383260330E+02 0.  0.
          5    1    1    2  502    0  0.17860523576E+02 -0.45623867252E+02  0.56577869245E+02  0.74960411243E+02  0.41800000000E+01 0. -1.
         -5    1    1    2    0  502 -0.46723606174E+02 -0.82636590936E+02 -0.48506188535E+02  0.10668750752E+03  0.41800000000E+01 0. -1.
        -11    1    3    3    0    0  0.24725974831E+01  0.32864480244E+02 -0.41527822045E+02  0.53016486151E+02  0.00000000000E+00 0.  1.
         11    1    3    3    0    0  0.26390485115E+02  0.95395977944E+02  0.40891491146E+02  0.10709325077E+03  0.00000000000E+00 0. -1.
</event>
<event>
 7    1  0.6988825E-006  0.1196518E+03  0.7561462E-02  0.1243673E+00
          1   -1    0    0  501    0  0.00000000000E+00  0.00000000000E+00  0.12916350181E+03  0.12916350181E+03  0.00000000000E+00 0. -1.
         -1   -1    0    0    0  501 -0.00000000000E+00 -0.00000000000E+00 -0.33305448477E+03  0.33305448477E+03  0.00000000000E+00 0.  1.
         23    2    1    2    0    0  0.96782062756E+02 -0.65129875291E+01 -0.26450697628E+03  0.29271355582E+03  0.79423539234E+02 0.  0.
          5    1    1    2  502    0  0.36027287703E+01  0.13278048505E+02  0.67074310075E+02  0.68598263089E+02  0.41800000000E+01 0.  1.
         -5    1    1    2    0  502 -0.10038479153E+03 -0.67650609760E+01 -0.64583167592E+01  0.10090616768E+03  0.41800000000E+01 0.  1.
        -11    1    3    3    0    0  0.55597197298E+01 -0.29607476518E+02 -0.82340049081E+02  0.87677801250E+02  0.00000000000E+00 0. -1.
         11    1    3    3    0    0  0.91222343026E+02  0.23094488989E+02 -0.18216692720E+03  0.20503575457E+03  0.00000000000E+00 0.  1.
</event>
<event>
 7    1  0.6988825E-006  0.1861098E+03  0.7561462E-02  0.1162018E+00
          2   -1    0    0  501    0  0.00000000000E+00  0.00000000000E+00  0.20353853459E+04  0.20353853459E+04  0.00000000000E+00 0. -1.
         -2   -1    0    0    0  501 -0.00000000000E+00 -0.00000000000E+00 -0.26284911635E+02  0.26284911635E+02  0.00000000000E+00 0.  1.
         23    2    1    2    0    0  0.76233586690E+02 -0.13696885565E+03  0.40733777711E+03  0.44740057545E+03  0.98342173516E+02 0.  0.
          5    1    1    2  502    0 -0.95627928464E+02  0.72610948361E+02  0.12744411156E+04  0.12800916687E+04  0.41800000000E+01 0.  1.
         -5    1    1    2    0  502  0.19394341774E+02  0.64357907287E+02  0.32732154147E+03  0.33417801339E+03  0.41800000000E+01 0.  1.
        -11    1    3    3    0    0  0.38024971755E+02  0.44087359627E+01  0.74154717274E+02  0.83452127137E+02  0.00000000000E+00 0.  1.
         11    1    3    3    0    0  0.38208614935E+02 -0.14137759161E+03  0.33318305984E+03  0.36394844831E+03  0.00000000000E+00 0. -1.
</event>
<event>
 7    1  0.6988825E-006  0.8180740E+02  0.7561462E-02  0.1323999E+00
         -2   -1    0    0    0  501 -0.00000000000E+00  0.00000000000E+00  0.76216100882E+02  0.76216100882E+02  0.00000000000E+00 0.  1.
          2   -1    0    0  501    0  0.00000000000E+00 -0.00000000000E+00 -0.19997271442E+03  0.19997271442E+03  0.00000000000E+00 0. -1.
         23    2    1    2    0    0  0.41598322844E+01 -0.51737621408E+02 -0.29149211559E+02  0.11098480086E+03  0.93668905266E+02 0.  0.
          5    1    1    2  502    0 -0.44452936826E+02  0.26309466164E+02  0.75818475246E+01  0.52375647148E+02  0.41800000000E+01 0. -1.
         -5    1    1    2    0  502  0.40293104541E+02  0.25428155243E+02 -0.10218924951E+03  0.11282836730E+03  0.41800000000E+01 0. -1.
        -11    1    3    3    0    0  0.18717225915E+02 -0.43212634569E+02 -0.59728836086E+02  0.76060503499E+02  0.00000000000E+00 0. -1.
         11    1    3    3    0    0 -0.14557393630E+02 -0.85249868381E+01  0.30579624527E+02  0.34924297360E+02  0.00000000000E+00 0.  1.
</event>
<event>
 7    1  0.1250144E-005  0.1783414E+03  0.7561462E-02  0.1169418E+00
         -1   -1    0    0    0  501 -0.00000000000E+00  0.00000000000E+00  0.10660576892E+04  0.10660576892E+04  0.00000000000E+00 0.  1.
          1   -1    0    0  501    0  0.00000000000E+00 -0.00000000000E+00 -0.37110597008E+02  0.37110597008E+02  0.00000000000E+00 0. -1.
         23    2    1    2    0    0 -0.16093206547E+03  0.39946610094E+02  0.52869446200E+03  0.56150890652E+03  0.90992068890E+02 0.  0.
          5    1    1    2  502    0  0.78498185738E+02 -0.37798209083E+02  0.41066486936E+03  0.41982588903E+03  0.41800000000E+01 0. -1.
         -5    1    1    2    0  502  0.82433879732E+02 -0.21484010103E+01  0.89587760843E+02  0.12183349066E+03  0.41800000000E+01 0. -1.
        -11    1    3    3    0    0 -0.10544395916E+03  0.67234347561E+02  0.39235473705E+03  0.41180228957E+03  0.00000000000E+00 0.  1.
         11    1    3    3    0    0 -0.55488106313E+02 -0.27287737467E+02  0.13633972495E+03  0.14970661695E+03  0.00000000000E+00 0. -1.
</event>
<event>
 7    1  0.6988825E-006  0.1068906E+03  0.7561462E-02  0.1266439E+00
         -1   -1    0    0    0  501 -0.00000000000E+00  0.00000000000E+00  0.20298658329E+02  0.20298658329E+02  0.00000000000E+00 0.  1.
          1   -1    0    0  501    0  0.00000000000E+00 -0.00000000000E+00 -0.67250771239E+03  0.67250771239E+03  0.00000000000E+00 0. -1.
         23    2    1    2    0    0  0.32703912526E+02  0.11352494407E+02 -0.24919978269E+03  0.26941254389E+03  0.96354356871E+02 0.  0.
          5    1    1    2  502    0  0.78098429313E+01 -0.61834363265E+02 -0.23888826606E+03  0.24692014537E+03  0.41800000000E+01 0. -1.
         -5    1    1    2    0  502 -0.40513755458E+02  0.50481868859E+02 -0.16412100530E+03  0.17647368145E+03  0.41800000000E+01 0. -1.
        -11    1    3    3    0    0 -0.15891097037E+02 -0.22270832084E+02 -0.23377258125E+02  0.35986290781E+02  0.00000000000E+00 0.  1.
         11    1    3    3    0    0  0.48595009564E+02  0.33623326491E+02 -0.22582252457E+03  0.23342625311E+03  0.00000000000E+00 0. -1.
</event>
<event>
 7    1  0.6988825E-006  0.1733376E+03  0.7561462E-02  0.1174411E+00
          2   -1    0    0  501    0  0.00000000000E+00  0.00000000000E+00  0.64362529731E+03  0.64362529731E+03  0.00000000000E+00 0. -1.
         -2   -1    0    0    0  501 -0.00000000000E+00 -0.00000000000E+00 -0.53500915386E+02  0.53500915386E+02  0.00000000000E+00 0.  1.
         23    2    1    2    0    0  0.12086194950E+03  0.63981800616E+02  0.15962755898E+03  0.22843083202E+03  0.89433806728E+02 0.  0.
          5    1    1    2  502    0 -0.83823401490E+01 -0.71672237111E+02  0.17962254853E+03  0.19362051941E+03  0.41800000000E+01 0. -1.
         -5    1    1    2    0  502 -0.11247960935E+03  0.76904364951E+01  0.25087427442E+03  0.27507486126E+03  0.41800000000E+01 0. -1.
        -11    1    3    3    0    0  0.29803362967E+02 -0.21444524925E+02  0.22902304746E+02  0.43273821834E+02  0.00000000000E+00 0.  1.
         11    1    3    3    0    0  0.91058586530E+02  0.85426325541E+02  0.13672525423E+03  0.18515701019E+03  0.00000000000E+00 0. -1.
</event>
<event>
 7    1  0.6988825E-006  0.1268587E+03  0.7561462E-02  0.1232193E+00
          2   -1    0    0  501    0  0.00000000000E+00  0.00000000000E+00  0.11386951668E+04  0.11386951668E+04  0.00000000000E+00 0. -1.
         -2   -1    0    0    0  501 -0.00000000000E+00 -0.00000000000E+00 -0.19430896042E+02  0.19430896042E+02  0.00000000000E+00 0.  1.
         23    2    1    2    0    0 -0.14109743715E+02 -0.98639931942E+02  0.44272960326E+03  0.46294622351E+03  0.91546617754E+02 0.  0.
          5    1    1    2  502    0  0.30599753277E+02  0.10135941478E+03  0.66724747457E+03  0.67560842253E+03  0.41800000000E+01 0. -1.
         -5    1    1    2    0  502 -0.16490009562E+02 -0.27194828359E+01  0.92871928790E+01  0.19571416755E+02  0.41800000000E+01 0. -1.
        -11    1    3    3    0    0  0.29945054442E+02 -0.10043464174E+02  0.16796944661E+03  0.17091317226E+03  0.00000000000E+00 0. -1.
         11    1    3    3    0    0 -0.44054798157E+02 -0.88596467768E+02  0.27476015665E+03  0.29203305125E+03  0.00000000000E+00 0.  1.
</event>
<event>
 7    1  0.6988825E-006  0.1311419E+03  0.7561462E-02  0.1225771E+00
         -1   -1    0    0    0  501 -0.00000000000E+00  0.00000000000E+00  0.15258367628E+03  0.15258367628E+03  0.00000000000E+00 0. -1.
          1   -1    0    0  501    0  0.00000000000E+00 -0.00000000000E+00 -0.15477078871E+03  0.15477078871E+03  0.00000000000E+00 0.  1.
         23    2    1    2    0    0  0.62123953587E+02 -0.81336843012E+02  0.36613231478E+02  0.14114050607E+03  0.90028029490E+02 0.  0.
          5    1    1    2  502    0 -0.43108165289E+02 -0.24079537459E+02  0.62236039050E+01  0.49943404814E+02  0.41800000000E+01 0. -1.
         -5    1    1    2    0  502 -0.19015788298E+02  0.10541638047E+03 -0.45023947803E+02  0.11627055411E+03  0.41800000000E+01 0. -1.
        -11    1    3    3    0    0  0.71249472846E+01 -0.28088108010E+02 -0.28497942444E+02  0.40642827275E+02  0.00000000000E+00 0.  1.
         11    1    3    3    0    0  0.54999006303E+02 -0.53248735002E+02  0.65111173922E+02  0.10049767879E+03  0.00000000000E+00 0. -1.
</event>
<event>
 7    1  0.6988825E-006  0.6715176E+02  0.7561462E-02  0.1370055E+00
          2   -1    0    0  501    0  0.00000000000E+00  0.00000000000E+00  0.59351487340E+02  0.59351487340E+02  0.00000000000E+00 0. -1.
         -2   -1    0    0    0  501 -0.00000000000E+00 -0.00000000000E+00 -0.23047888042E+03  0.23047888042E+03  0.00000000000E+00 0.  1.
         23    2    1    2    0    0 -0.99772900468E+01 -0.30258831423E+02 -0.11137220932E+03  0.14758436134E+03  0.91445237755E+02 0.  0.
          5    1    1    2  502    0  0.17645743102E+02  0.45067947112E+02  0.25782720832E+02  0.54997392665E+02  0.41800000000E+01 0. -1.
         -5    1    1    2    0  502 -0.76684530547E+01 -0.14809115689E+02 -0.85537904596E+02  0.87248613756E+02  0.41800000000E+01 0. -1.
        -11    1    3    3    0    0 -0.29816962824E+02 -0.37053359236E+02 -0.11663838917E+03  0.12596236156E+03  0.00000000000E+00 0.  1.
         11    1    3    3    0    0  0.19839672777E+02  0.67945278128E+01  0.52661798518E+01  0.21621999776E+02  0.00000000000E+00 0. -1.
</event>
<event>
 7    1  0.6988825E-006  0.1241633E+03  0.7561462E-02  0.1236383E+00
         -2   -1    0    0    0  501 -0.00000000000E+00  0.00000000000E+00  0.53740723513E+02  0.53740723513E+02  0.00000000000E+00 0.  1.
          2   -1    0    0  501    0  0.00000000000E+00 -0.00000000000E+00 -0.31799086468E+03  0.31799086468E+03  0.00000000000E+00 0. -1.
         23    2    1    2    0    0  0.19092454629E+02 -0.66232828147E+02 -0.81934229388E+02  0.14013346243E+03  0.90403871596E+02 0.  0.
          5    1    1    2  502    0 -0.66774695121E+02  0.18475371106E+02 -0.59597615733E+02  0.91485230759E+02  0.41800000000E+01 0. -1.
         -5    1    1    2    0  502  0.47682240492E+02  0.47757457041E+02 -0.12271829605E+03  0.14011289500E+03  0.41800000000E+01 0. -1.
        -11    1    3    3    0    0  0.48510112945E+02 -0.65966359461E+02 -0.46816648379E+02  0.94321737706E+02  0.00000000000E+00 0.  1.
         11    1    3    3    0    0 -0.29417658317E+02 -0.26646868685E+00 -0.35117581009E+02  0.45811724725E+02  0.00000000000E+00 0. -1.
</event>
<event>
 7    1  0.6988825E-006  0.1136182E+03  0.7561462E-02  0.1254012E+00
         -2   -1    0    0    0  501 -0.00000000000E+00  0.00000000000E+00  0.31368613160E+03  0.31368613160E+03  0.00000000000E+00 0. -1.
          2   -1    0    0  501    0  0.00000000000E+00 -0.00000000000E+00 -0.45353785015E+02  0.45353785015E+02  0.00000000000E+00 0.  1.
         23    2    1    2    0    0 -0.40844776617E+02  0.13117587677E+02  0.14614854181E+03  0.17899657987E+03  0.94021340387E+02 0.  0.
          5    1    1    2  502    0 -0.18542014819E+02  0.45114397851E+02  0.45944627382E+02  0.67137890884E+02  0.41800000000E+01 0. -1.
         -5    1    1    2    0  502  0.59386791436E+02 -0.58231985528E+02  0.76239177390E+02  0.11290544586E+03  0.41800000000E+01 0. -1.
        -11    1    3    3    0    0 -0.30439723139E+02 -0.34646643044E+02  0.10649179157E+03  0.11604942176E+03  0.00000000000E+00 0. -1.
         11    1    3    3    0    0 -0.10405053478E+02  0.47764230721E+02  0.39656750237E+02  0.62947158106E+02  0.00000000000E+00 0.  1.
</event>
<event>
 7    1  0.6988825E-006  0.8746615E+02  0.7561462E-02  0.1309106E+00
          2   -1    0    0  501    0  0.00000000000E+00  0.00000000000E+00  0.57887486705E+02  0.57887486705E+02  0.00000000000E+00 0. -1.
         -2   -1    0    0    0  501 -0.00000000000E+00 -0.00000000000E+00 -0.28522879166E+03  0.28522879166E+03  0.00000000000E+00 0.  1.
         23    2    1    2    0    0 -0.16653923155E+02  0.50409480013E+02 -0.16725732543E+03  0.19453614319E+03  0.83969216171E+02 0.  0.
          5    1    1    2  502    0  0.14798688499E+02 -0.78180768535E+02 -0.80918256272E+02  0.11356262743E+03  0.41800000000E+01 0. -1.
         -5    1    1    2    0  502  0.18552346565E+01  0.27771288522E+02  0.20834276745E+02  0.35017507754E+02  0.41800000000E+01 0. -1.
        -11    1    3    3    0    0  0.12542170986E+02  0.26694930753E+02 -0.15049232966E+03  0.15335536074E+03  0.00000000000E+00 0.  1.
         11    1    3    3    0    0 -0.29196094141E+02  0.23714549260E+02 -0.16764995768E+02  0.41180782445E+02  0.00000000000E+00 0. -1.
</event>
<event>
 7    1  0.6988825E-006  0.1448613E+03  0.7561462E-02  0.1206933E+00
         -1   -1    0    0    0  501 -0.00000000000E+00  0.00000000000E+00  0.26415242266E+03  0.26415242266E+03  0.00000000000E+00 0.  1.
          1   -1    0    0  501    0  0.00000000000E+00 -0.00000000000E+00 -0.11812839416E+03  0.11812839416E+03  0.00000000000E+00 0. -1.
         23    2    1    2    0    0 -0.77931285541E+02 -0.11565129458E+03  0.52005477250E+02  0.17267271065E+03  0.87537352797E+02 0.  0.
          5    1    1    2  502    0  0.77397531187E+02  0.85695296708E+02  0.12226010924E+03  0.16822326957E+03  0.41800000000E+01 0. -1.
         -5    1    1    2    0  502  0.53375435394E+00  0.29955997871E+02 -0.28241557998E+02  0.41384836599E+02  0.41800000000E+01 0. -1.
        -11    1    3    3    0    0  0.24573113241E+01 -0.14555362928E+02 -0.19952388060E+02  0.24819241693E+02  0.00000000000E+00 0. -1.
         11    1    3    3    0    0 -0.80388596865E+02 -0.10109593165E+03  0.71957865310E+02  0.14785346896E+03  0.00000000000E+00 0.  1.
</event>
<event>
 7    1  0.6988825E-006  0.1471171E+03  0.7561462E-02  0.1204061E+00
          1   -1    0    0  501    0  0.00000000000E+00  0.00000000000E+00  0.37611196790E+03  0.37611196790E+03  0.00000000000E+00 0. -1.
         -1   -1    0    0    0  501 -0.00000000000E+00 -0.00000000000E+00 -0.72640359910E+02  0.72640359910E+02  0.00000000000E+00 0.  1.
         23    2    1    2    0    0  0.77929049108E+02  0.66845861314E+02  0.48018156560E+02  0.14635672917E+03  0.92591808192E+02 0.  0.
          5    1    1    2  502    0 -0.33076112421E+02 -0.98276088869E+02  0.13738313628E+03  0.17217379996E+03  0.41800000000E+01 0.  1.
         -5    1    1    2    0  502 -0.44852936687E+02  0.31430227555E+02  0.11807031515E+03  0.13022179868E+03  0.41800000000E+01 0.  1.
        -11    1    3    3    0    0  0.96082753352E+02  0.42256820591E+02  0.48863485294E+02  0.11578071762E+03  0.00000000000E+00 0.  1.
         11    1    3    3    0    0 -0.18153704244E+02  0.24589040723E+02 -0.84532873325E+00  0.30576011547E+02  0.00000000000E+00 0. -1.
</event>
<event>
 7    1  0.6988825E-006  0.1105644E+03  0.7561462E-02  0.1259528E+00
         -2   -1    0    0    0  501 -0.00000000000E+00  0.00000000000E+00  0.74714969675E+02  0.74714969675E+02  0.00000000000E+00 0.  1.
          2   -1    0    0  501    0  0.00000000000E+00 -0.00000000000E+00 -0.25426981838E+03  0.25426981838E+03  0.00000000000E+00 0. -1.
         23    2    1    2    0    0  0.41438215944E+02  0.39153761140E+02 -0.61533662795E+01  0.10770127902E+03  0.91167751059E+02 0.  0.
          5    1    1    2  502    0 -0.41631561580E+02  0.28139825090E+02 -0.20976945825E+02  0.54612648094E+02  0.41800000000E+01 0.  1.
         -5    1    1    2    0  502  0.19334563642E+00 -0.67293586230E+02 -0.15242453660E+03  0.16667086094E+03  0.41800000000E+01 0.  1.
        -11    1    3    3    0    0 -0.95723345850E+01  0.50187064970E+02 -0.18024660086E+02  0.54178034764E+02  0.00000000000E+00 0. -1.
         11    1    3    3    0    0  0.51010550529E+02 -0.11033303830E+02  0.11871293807E+02  0.53523244252E+02  0.00000000000E+00 0.  1.
</event>
<event>
 7    1  0.6988825E-006  0.1310873E+03  0.7561462E-02  0.1225851E+00
         -1   -1    0    0    0  501 -0.00000000000E+00  0.00000000000E+00  0.57059295584E+02  0.57059295584E+02  0.00000000000E+00 0.  1.
          1   -1    0    0  501    0  0.00000000000E+00 -0.00000000000E+00 -0.39681800119E+03  0.39681800119E+03  0.00000000000E+00 0. -1.
         23    2    1    2    0    0  0.69073246030E+02  0.65455465362E+02 -0.89737616968E+02  0.15857734849E+03  0.89657148581E+02 0.  0.
          5    1    1    2  502    0  0.30964291511E+02 -0.44859112419E+02 -0.95109224412E+02  0.10970125015E+03  0.41800000000E+01 0. -1.
         -5    1    1    2    0  502 -0.10003753754E+03 -0.20596352943E+02 -0.15491186422E+03  0.18559869813E+03  0.41800000000E+01 0. -1.
        -11    1    3    3    0    0  0.60128601852E+02  0.27194102046E+02 -0.62279551593E+01  0.66285408442E+02  0.00000000000E+00 0.  1.
         11    1    3    3    0    0  0.89446441779E+01  0.38261363316E+02 -0.83509661809E+02  0.92291940047E+02  0.00000000000E+00 0. -1.
</event>
<event>
 7    1  0.6988825E-006  0.2195737E+03  0.7561462E-02  0.1134201E+00
         -1   -1    0    0    0  501 -0.00000000000E+00  0.00000000000E+00  0.23819710333E+03  0.23819710333E+03  0.00000000000E+00 0.  1.
          1   -1    0    0  501    0  0.00000000000E+00 -0.00000000000E+00 -0.22743365130E+03  0.22743365130E+03  0.00000000000E+00 0. -1.
         23    2    1    2    0    0 -0.10118284682E+03  0.17545200902E+03  0.41592439092E+02  0.22559214601E+03  0.90224771504E+02 0.  0.
          5    1    1    2  502    0  0.75324736757E+02 -0.18681582436E+03 -0.47470818199E+02  0.20699014271E+03  0.41800000000E+01 0. -1.
         -5    1    1    2    0  502  0.25858110068E+02  0.11363815345E+02  0.16641831135E+02  0.33048465910E+02  0.41800000000E+01 0. -1.
        -11    1    3    3    0    0 -0.10243235850E+03  0.13908926094E+03  0.62418779653E+02  0.18366903558E+03  0.00000000000E+00 0.  1.
         11    1    3    3    0    0  0.12495116796E+01  0.36362748074E+02 -0.20826340560E+02  0.41923110430E+02  0.00000000000E+00 0. -1.
</event>
<event>
 7    1  0.6988825E-006  0.1498976E+03  0.7561462E-02  0.1200599E+00
          3   -1    0    0  501    0  0.00000000000E+00  0.00000000000E+00  0.12402097086E+04  0.12402097086E+04  0.00000000000E+00 0. -1.
         -3   -1    0    0    0  501 -0.00000000000E+00 -0.00000000000E+00 -0.22001856361E+02  0.22001856361E+02  0.00000000000E+00 0.  1.
         23    2    1    2    0    0  0.34137179691E+02 -0.11038605837E+03  0.37796988059E+03  0.40488997834E+03  0.87887627185E+02 0.  0.
          5    1    1    2  502    0 -0.32484611986E+02  0.13822267328E+03  0.69335311140E+03  0.70775473642E+03  0.41800000000E+01 0.  1.
         -5    1    1    2    0  502 -0.16525677059E+01 -0.27836614910E+02  0.14688486024E+03  0.14956685020E+03  0.41800000000E+01 0.  1.
        -11    1    3    3    0    0 -0.14071019043E+02 -0.51801108528E+02  0.72918607188E+02  0.90545412341E+02  0.00000000000E+00 0.  1.
         11    1    3    3    0    0  0.48208198735E+02 -0.58584949841E+02  0.30505127340E+03  0.31434456600E+03  0.00000000000E+00 0. -1.
</event>
<event>
 7    1  0.6988825E-006  0.1053486E+03  0.7561462E-02  0.1269434E+00
          2   -1    0    0  501    0  0.00000000000E+00  0.00000000000E+00  0.24620048330E+03  0.24620048330E+03  0.00000000000E+00 0. -1.
         -2   -1    0    0    0  501 -0.00000000000E+00 -0.00000000000E+00 -0.71626090689E+02  0.71626090689E+02  0.00000000000E+00 0.  1.
         23    2    1    2    0    0  0.43009583996E+02  0.21234335598E+02  0.45411935577E+01  0.10137009637E+03  0.89188298982E+02 0.  0.
          5    1    1    2  502    0 -0.71588057383E+02  0.21927778656E+02  0.13295698654E+03  0.15264570124E+03  0.41800000000E+01 0.  1.
         -5    1    1    2    0  502  0.28578473386E+02 -0.43162114254E+02  0.37076212511E+02  0.63810776379E+02  0.41800000000E+01 0.  1.
        -11    1    3    3    0    0 -0.18796197852E+02  0.13288050143E+01 -0.23940036931E+02  0.30466180344E+02  0.00000000000E+00 0.  1.
         11    1    3    3    0    0  0.61805781848E+02  0.19905530584E+02  0.28481230489E+02  0.70903916026E+02  0.00000000000E+00 0. -1.
</event>
<event>
 7    1  0.6988825E-006  0.2513376E+03  0.7561462E-02  0.1112462E+00
         -1   -1    0    0    0  501 -0.00000000000E+00  0.00000000000E+00  0.15631008498E+03  0.15631008498E+03  0.00000000000E+00 0.  1.
          1   -1    0    0  501    0  0.00000000000E+00 -0.00000000000E+00 -0.42438539559E+03  0.42438539559E+03  0.00000000000E+00 0. -1.
         23    2    1    2    0    0  0.68250354319E+02 -0.79160084600E+01 -0.35835415782E+02  0.12004842138E+03  0.91687907582E+02 0.  0.
          5    1    1    2  502    0 -0.12941645554E+03 -0.16204259150E+03 -0.17422132319E+03  0.27088182345E+03  0.41800000000E+01 0. -1.
         -5    1    1    2    0  502  0.61166101218E+02  0.16995859996E+03 -0.58018571645E+02  0.18976523574E+03  0.41800000000E+01 0.  1.
        -11    1    3    3    0    0  0.58800126843E+02 -0.46428089016E+02 -0.23576695846E+02  0.78542236749E+02  0.00000000000E+00 0.  1.
         11    1    3    3    0    0  0.94502274757E+01  0.38512080556E+02 -0.12258719935E+02  0.41506184630E+02  0.00000000000E+00 0. -1.
</event>
<event>
 7    1  0.6988825E-006  0.1495126E+03  0.7561462E-02  0.1201073E+00
          1   -1    0    0  501    0  0.00000000000E+00  0.00000000000E+00  0.40226363948E+03  0.40226363948E+03  0.00000000000E+00 0. -1.
         -1   -1    0    0    0  501 -0.00000000000E+00 -0.00000000000E+00 -0.61368880972E+02  0.61368880972E+02  0.00000000000E+00 0.  1.
         23    2    1    2    0    0 -0.95471968176E+02 -0.60834467866E+02  0.17513561837E+03  0.22711615483E+03  0.89964069356E+02 0.  0.
          5    1    1    2  502    0  0.70488457359E+02 -0.16967253590E+02  0.12626929964E+03  0.14566371802E+03  0.41800000000E+01 0. -1.
         -5    1    1    2    0  502  0.24983510817E+02  0.77801721457E+02  0.39489840500E+02  0.90852647606E+02  0.41800000000E+01 0. -1.
        -11    1    3    3    0    0 -0.35466396495E+02  0.22418177147E+02  0.52497294506E+02  0.67204210265E+02  0.00000000000E+00 0. -1.
         11    1    3    3    0    0 -0.60005571681E+02 -0.83252645013E+02  0.12263832386E+03  0.15991194456E+03  0.00000000000E+00 0.  1.
</event>
<event>
 7    1  0.6988825E-006  0.1117285E+03  0.7561462E-02  0.1257402E+00
         -2   -1    0    0    0  501 -0.00000000000E+00  0.00000000000E+00  0.14763124511E+02  0.14763124511E+02  0.00000000000E+00 0.  1.
          2   -1    0    0  501    0  0.00000000000E+00 -0.00000000000E+00 -0.10490410893E+04  0.10490410893E+04  0.00000000000E+00 0. -1.
         23    2    1    2    0    0 -0.25336105878E+02  0.20010095190E+02 -0.28846506538E+03  0.30688379874E+03  0.99615509921E+02 0.  0.
          5    1    1    2  502    0 -0.83881254871E+00  0.46735012798E+02 -0.16056028433E+03  0.16727803900E+03  0.41800000000E+01 0. -1.
         -5    1    1    2    0  502  0.26174918427E+02 -0.66745107988E+02 -0.58525261510E+03  0.58964237609E+03  0.41800000000E+01 0. -1.
        -11    1    3    3    0    0 -0.43137448425E+02 -0.29393110259E+02 -0.14523130759E+03  0.15432733747E+03  0.00000000000E+00 0.  1.
         11    1    3    3    0    0  0.17801342547E+02  0.49403205449E+02 -0.14323375779E+03  0.15255646127E+03  0.00000000000E+00 0. -1.
</event>
<event>
 7    1  0.6988825E-006  0.1210708E+03  0.7561462E-02  0.1241341E+00
         -1   -1    0    0    0  501 -0.00000000000E+00  0.00000000000E+00  0.15937745765E+02  0.15937745765E+02  0.00000000000E+00 0.  1.
          1   -1    0    0  501    0  0.00000000000E+00 -0.00000000000E+00 -0.10220272560E+04  0.10220272560E+04  0.00000000000E+00 0. -1.
         23    2    1    2    0    0  0.16554525903E+02  0.64527018960E+02 -0.41912016541E+03  0.43412869082E+03  0.91477968061E+02 0.  0.
          5    1    1    2  502    0  0.16357250552E+02  0.29846010989E+02 -0.24972985100E+03  0.25207303485E+03  0.41800000000E+01 0. -1.
         -5    1    1    2    0  502 -0.32911776455E+02 -0.94373029949E+02 -0.33723949385E+03  0.35176327611E+03  0.41800000000E+01 0. -1.
        -11    1    3    3    0    0  0.50222324487E+02  0.25668304789E+02 -0.28422737876E+03  0.28976947145E+03  0.00000000000E+00 0. -1.
         11    1    3    3    0    0 -0.33667798584E+02  0.38858714171E+02 -0.13489278665E+03  0.14435921938E+03  0.00000000000E+00 0.  1.
</event>
<event>
 7    1  0.6988825E-006  0.9373972E+02  0.7561462E-02  0.1294040E+00
          1   -1    0    0  501    0  0.00000000000E+00  0.00000000000E+00  0.43107330392E+03  0.43107330392E+03  0.00000000000E+00 0. -1.
         -1   -1    0    0    0  501 -0.00000000000E+00 -0.00000000000E+00 -0.27787026883E+02  0.27787026883E+02  0.00000000000E+00 0.  1.
         23    2    1    2    0    0 -0.10804213556E+02 -0.20046615001E+01  0.16702998592E+03  0.19130569696E+03  0.92618053295E+02 0.  0.
          5    1    1    2  502    0  0.30983953690E+02  0.40349407008E+02  0.35605264497E+02  0.62235739668E+02  0.41800000000E+01 0.  1.
         -5    1    1    2    0  502 -0.20179740133E+02 -0.38344745508E+02  0.20065102662E+03  0.20531889417E+03  0.41800000000E+01 0.  1.
        -11    1    3    3    0    0 -0.51069834207E+02  0.72656345682E+01  0.84272867835E+02  0.98807052708E+02  0.00000000000E+00 0.  1.
         11    1    3    3    0    0  0.40265620651E+02 -0.92702960683E+01  0.82757118083E+02  0.92498644255E+02  0.00000000000E+00 0. -1.
</event>
<event>
 7    1  0.6988825E-006  0.2047012E+03  0.7561462E-02  0.1145832E+00
         -3   -1    0    0    0  501 -0.00000000000E+00  0.00000000000E+00  0.42034343898E+03  0.42034343898E+03  0.00000000000E+00 0.  1.
          3   -1    0    0  501    0  0.00000000000E+00 -0.00000000000E+00 -0.10910532747E+03  0.10910532747E+03  0.00000000000E+00 0. -1.
         23    2    1    2    0    0  0.16127717500E+03 -0.75043829911E+02  0.20628561744E+03  0.28735527581E+03  0.91528110372E+02 0.  0.
          5    1    1    2  502    0 -0.16647870782E+03  0.94937517143E+02  0.10930229711E+03  0.22066435342E+03  0.41800000000E+01 0. -1.
         -5    1    1    2    0  502  0.52015328208E+01 -0.19893687232E+02 -0.43498030487E+01  0.21429137218E+02  0.41800000000E+01 0.  1.
        -11    1    3    3    0    0  0.91370271068E+02 -0.86579770695E+02  0.15610546877E+03  0.20053304094E+03  0.00000000000E+00 0. -1.
         11    1    3    3    0    0  0.69906903929E+02  0.11535940784E+02  0.50180148674E+02  0.86822234869E+02  0.00000000000E+00 0.  1.
</event>
<event>
 7    1  0.6988825E-006  0.7620213E+02  0.7561462E-02  0.1340188E+00
         -4   -1    0    0    0  501 -0.00000000000E+00  0.00000000000E+00  0.58776714336E+03  0.58776714336E+03  0.00000000000E+00 0.  1.
          4   -1    0    0  501    0  0.00000000000E+00 -0.00000000000E+00 -0.25832400711E+02  0.25832400711E+02  0.00000000000E+00 0. -1.
         23    2    1    2    0    0 -0.40909523255E+02  0.37364203214E+02  0.28992050663E+03  0.30912462981E+03  0.91839336992E+02 0.  0.
          5    1    1    2  502    0  0.26227889409E+02 -0.17547504792E+02  0.27712202394E+03  0.27894426981E+03  0.41800000000E+01 0. -1.
         -5    1    1    2    0  502  0.14681633846E+02 -0.19816698422E+02 -0.51077879140E+01  0.25530644452E+02  0.41800000000E+01 0. -1.
        -11    1    3    3    0    0 -0.26203203997E+02  0.61750521672E+02  0.12594882706E+03  0.14269842979E+03  0.00000000000E+00 0. -1.
         11    1    3    3    0    0 -0.14706319258E+02 -0.24386318458E+02  0.16397167957E+03  0.16642620003E+03  0.00000000000E+00 0.  1.
</event>
<event>
 7    1  0.6988825E-006  0.2158703E+03  0.7561462E-02  0.1137000E+00
          2   -1    0    0  501    0  0.00000000000E+00  0.00000000000E+00  0.20211263723E+04  0.20211263723E+04  0.00000000000E+00 0.  1.
         -2   -1    0    0    0  501 -0.00000000000E+00 -0.00000000000E+00 -0.49782311005E+02  0.49782311005E+02  0.00000000000E+00 0. -1.
         23    2    1    2    0    0  0.71458694253E+02 -0.17528193155E+03  0.21419979192E+03  0.29917694785E+03  0.88290400124E+02 0.  0.
          5    1    1    2  502    0 -0.64544995536E+02  0.19292189815E+03  0.16756886366E+04  0.16879972732E+04  0.41800000000E+01 0.  1.
         -5    1    1    2    0  502 -0.69136987171E+01 -0.17639966605E+02  0.81455632825E+02  0.83734462265E+02  0.41800000000E+01 0.  1.
        -11    1    3    3    0    0  0.17150609555E+02 -0.14630680418E+03  0.15024428894E+03  0.21041190726E+03  0.00000000000E+00 0.  1.
         11    1    3    3    0    0  0.54308084698E+02 -0.28975127369E+02  0.63955502971E+02  0.88765040584E+02  0.00000000000E+00 0. -1.
</event>
<event>
 7    1  0.6988825E-006  0.1114055E+03  0.7561462E-02  0.1257989E+00
          1   -1    0    0  501    0  0.00000000000E+00  0.00000000000E+00  0.13740558988E+04  0.13740558988E+04  0.00000000000E+00 0. -1.
         -1   -1    0    0    0  501 -0.00000000000E+00 -0.00000000000E+00 -0.15895655667E+02  0.15895655667E+02  0.00000000000E+00 0.  1.
         23    2    1    2    0    0  0.69022648351E+02  0.34231046431E+02  0.35061120938E+03  0.37174828115E+03  0.96605765207E+02 0.  0.
          5    1    1    2  502    0 -0.77773949450E+02 -0.43224386563E+02  0.37198261321E+03  0.38249924410E+03  0.41800000000E+01 0. -1.
         -5    1    1    2    0  502  0.87513010988E+01  0.89933401318E+01  0.63556642057E+03  0.63570402924E+03  0.41800000000E+01 0. -1.
        -11    1    3    3    0    0  0.39483990267E+02  0.66137976997E+02  0.18216975733E+03  0.19778533306E+03  0.00000000000E+00 0.  1.
         11    1    3    3    0    0  0.29538658084E+02 -0.31906930566E+02  0.16844145205E+03  0.17396294809E+03  0.00000000000E+00 0. -1.
</event>
<event>
 7    1  0.6988825E-006  0.1156726E+03  0.7561462E-02  0.1250411E+00
          2   -1    0    0  501    0  0.00000000000E+00  0.00000000000E+00  0.65560818838E+02  0.65560818838E+02  0.00000000000E+00 0.  1.
         -2   -1    0    0    0  501 -0.00000000000E+00 -0.00000000000E+00 -0.30665928380E+03  0.30665928380E+03  0.00000000000E+00 0. -1.
         23    2    1    2    0    0 -0.79150709323E+02 -0.46115490565E+02 -0.15440454654E+03  0.20309171432E+03  0.94942125407E+02 0.  0.
          5    1    1    2  502    0  0.21501054833E+02 -0.49383974783E+01  0.24868556337E+02  0.33505232768E+02  0.41800000000E+01 0. -1.
         -5    1    1    2    0  502  0.57649654491E+02  0.51053888043E+02 -0.11156247476E+03  0.13562315555E+03  0.41800000000E+01 0.  1.
        -11    1    3    3    0    0 -0.87729931151E+02 -0.29681275678E+01 -0.10747735466E+03  0.13876862889E+03  0.00000000000E+00 0. -1.
         11    1    3    3    0    0  0.85792218272E+01 -0.43147362997E+02 -0.46927191882E+02  0.64323085425E+02  0.00000000000E+00 0.  1.
</event>
<event>
 7    1  0.6988825E-006  0.1000740E+03  0.7561462E-02  0.1280140E+00
          1   -1    0    0  501    0  0.00000000000E+00  0.00000000000E+00  0.58286253527E+02  0.58286253527E+02  0.00000000000E+00 0. -1.
         -1   -1    0    0    0  501 -0.00000000000E+00 -0.00000000000E+00 -0.40406375202E+03  0.40406375202E+03  0.00000000000E+00 0.  1.
         23    2    1    2    0    0  0.27394378542E+02 -0.42658018436E+01 -0.31878374129E+03  0.33141599454E+03  0.86283478624E+02 0.  0.
          5    1    1    2  502    0  0.22667340394E+02  0.53135350429E+02 -0.15002463041E+02  0.59830762013E+02  0.41800000000E+01 0. -1.
         -5    1    1    2    0  502 -0.50061718936E+02 -0.48869548585E+02 -0.11991294160E+02  0.71103248994E+02  0.41800000000E+01 0. -1.
        -11    1    3    3    0    0  0.49002773578E+02 -0.94892910886E+01 -0.29364828063E+03  0.29786008659E+03  0.00000000000E+00 0.  1.
         11    1    3    3    0    0 -0.21608395035E+02  0.52234892450E+01 -0.25135460659E+02  0.33555907952E+02  0.00000000000E+00 0. -1.
</event>
<event>
 7    1  0.6988825E-006  0.2130588E+03  0.7561462E-02  0.1139166E+00
          1   -1    0    0  501    0  0.00000000000E+00  0.00000000000E+00  0.57715550513E+02  0.57715550513E+02  0.00000000000E+00 0. -1.
         -1   -1    0    0    0  501 -0.00000000000E+00 -0.00000000000E+00 -0.95902859463E+03  0.95902859463E+03  0.00000000000E+00 0.  1.
         23    2    1    2    0    0  0.19058008878E+03 -0.71188624851E+02 -0.53277608268E+03  0.57759133607E+03  0.91503041890E+02 0.  0.
          5    1    1    2  502    0 -0.40139545394E+02  0.10444587187E+02 -0.62203880128E+01  0.42147812909E+02  0.41800000000E+01 0. -1.
         -5    1    1    2    0  502 -0.15044054338E+03  0.60744037665E+02 -0.36231657342E+03  0.39700499617E+03  0.41800000000E+01 0. -1.
        -11    1    3    3    0    0  0.18726745016E+03 -0.40918864599E+02 -0.47638993322E+03  0.51350834448E+03  0.00000000000E+00 0.  1.
         11    1    3    3    0    0  0.33126386130E+01 -0.30269760253E+02 -0.56386149461E+02  0.64082991592E+02  0.00000000000E+00 0. -1.
</event>
<event>
 7    1  0.6988825E-006  0.5446455E+02  0.7561462E-02  0.1422648E+00
          1   -1    0    0  501    0  0.00000000000E+00  0.00000000000E+00  0.73026344089E+02  0.73026344089E+02  0.00000000000E+00 0. -1.
         -1   -1    0    0    0  501 -0.00000000000E+00 -0.00000000000E+00 -0.17895450503E+03  0.17895450503E+03  0.00000000000E+00 0.  1.
         23    2    1    2    0    0 -0.47231937568E+01  0.38526979427E+02 -0.47557316338E+02  0.10858247805E+03  0.89564610752E+02 0.  0.
          5    1    1    2  502    0  0.60056808089E+01 -0.97669129287E+01  0.39475655053E+02  0.41319009330E+02  0.41800000000E+01 0. -1.
         -5    1    1    2    0  502 -0.12824870522E+01 -0.28760066498E+02 -0.97846499654E+02  0.10207936174E+03  0.41800000000E+01 0. -1.
        -11    1    3    3    0    0  0.18792330260E+02 -0.38386611398E+01  0.18507309851E+02  0.26653470953E+02  0.00000000000E+00 0. -1.
         11    1    3    3    0    0 -0.23515524016E+02  0.42365640566E+02 -0.66064626189E+02  0.81929007097E+02  0.00000000000E+00 0.  1.
</event>
<event>
 7    1  0.6988825E-006  0.1239894E+03  0.7561462E-02  0.1236657E+00
         -1   -1    0    0    0  501 -0.00000000000E+00  0.00000000000E+00  0.32537820853E+02  0.32537820853E+02  0.00000000000E+00 0.  1.
          1   -1    0    0  501    0  0.00000000000E+00 -0.00000000000E+00 -0.76540640283E+03  0.76540640283E+03  0.00000000000E+00 0. -1.
         23    2    1    2    0    0 -0.88444517403E+02  0.61438517700E+02 -0.22805726454E+03  0.26683370053E+03  0.87137728413E+02 0.  0.
          5    1    1    2  502    0  0.35793920308E+02 -0.26787983750E+01 -0.39040757751E+03  0.39207643345E+03  0.41800000000E+01 0.  1.
         -5    1    1    2    0  502  0.52650597094E+02 -0.58759719325E+02 -0.11440373992E+03  0.13903408970E+03  0.41800000000E+01 0.  1.
        -11    1    3    3    0    0 -0.97915148179E+02  0.69762469235E+02 -0.22280978439E+03  0.25317657549E+03  0.00000000000E+00 0.  1.
         11    1    3    3    0    0  0.94706307760E+01 -0.83239515352E+01 -0.52474801518E+01  0.13657125041E+02  0.00000000000E+00 0. -1.
</event>
<event>
 7    1  0.6988825E-006  0.2339425E+03  0.7561462E-02  0.1123895E+00
          2   -1    0    0  501    0  0.00000000000E+00  0.00000000000E+00  0.11143130770E+04  0.11143130770E+04  0.00000000000E+00 0. -1.
         -2   -1    0    0    0  501 -0.00000000000E+00 -0.00000000000E+00 -0.64376252938E+02  0.64376252938E+02  0.00000000000E+00 0.  1.
         23    2    1    2    0    0 -0.16094890959E+03  0.13589299265E+03  0.23874341463E+03  0.33130995319E+03  0.91631927323E+02 0.  0.
          5    1    1    2  502    0  0.31476680805E+02 -0.10175575608E+03  0.44078264001E+03  0.45348850422E+03  0.41800000000E+01 0. -1.
         -5    1    1    2    0  502  0.12947222879E+03 -0.34137236569E+02  0.37041076938E+03  0.39389087248E+03  0.41800000000E+01 0. -1.
        -11    1    3    3    0    0 -0.25314415578E+01  0.44230403730E+02  0.29055459950E+02  0.52980718789E+02  0.00000000000E+00 0. -1.
         11    1    3    3    0    0 -0.15841746804E+03  0.91662588922E+02  0.20968795468E+03  0.27832923440E+03  0.00000000000E+00 0.  1.
</event>
<event>
 7    1  0.6988825E-006  0.1192186E+03  0.7561462E-02  0.1244392E+00
         -3   -1    0    0    0  501 -0.00000000000E+00  0.00000000000E+00  0.51657154983E+03  0.51657154983E+03  0.00000000000E+00 0.  1.
          3   -1    0    0  501    0  0.00000000000E+00 -0.00000000000E+00 -0.34777272635E+02  0.34777272635E+02  0.00000000000E+00 0. -1.
         23    2    1    2    0    0 -0.45917053620E+02  0.53116623097E+02  0.28942528716E+03  0.31138376796E+03  0.90901609662E+02 0.  0.
          5    1    1    2  502    0 -0.98866826003E-01 -0.75087438766E+02  0.54404824064E+02  0.92819666647E+02  0.41800000000E+01 0.  1.
         -5    1    1    2    0  502  0.46015920446E+02  0.21970815669E+02  0.13796416598E+03  0.14714538786E+03  0.41800000000E+01 0.  1.
        -11    1    3    3    0    0 -0.69899055687E+00  0.65249288843E+02  0.13371268923E+03  0.14878521950E+03  0.00000000000E+00 0.  1.
         11    1    3    3    0    0 -0.45218063063E+02 -0.12132665746E+02  0.15571259793E+03  0.16259854846E+03  0.00000000000E+00 0. -1.
</event>
<event>
 7    1  0.6988825E-006  0.9927706E+02  0.7561462E-02  0.1281824E+00
         -3   -1    0    0    0  501 -0.00000000000E+00  0.00000000000E+00  0.10674967801E+03  0.10674967801E+03  0.00000000000E+00 0.  1.
          3   -1    0    0  501    0  0.00000000000E+00 -0.00000000000E+00 -0.11811561794E+03  0.11811561794E+03  0.00000000000E+00 0. -1.
         23    2    1    2    0    0  0.21092374019E+02  0.17276412808E+02  0.63697744019E+01  0.95617215907E+02  0.91426009814E+02 0.  0.
          5    1    1    2  502    0 -0.24871440418E+02  0.43959012011E+02  0.22824194871E+02  0.55582367321E+02  0.41800000000E+01 0.  1.
         -5    1    1    2    0  502  0.37790663990E+01 -0.61235424819E+02 -0.40559909205E+02  0.73665712719E+02  0.41800000000E+01 0.  1.
        -11    1    3    3    0    0  0.14880602430E+02  0.50465992193E+02  0.23651593654E+02  0.57685757160E+02  0.00000000000E+00 0.  1.
         11    1    3    3    0    0  0.62117715886E+01 -0.33189579385E+02 -0.17281819252E+02  0.37931458747E+02  0.00000000000E+00 0. -1.
</event>
<event>
 7    1  0.6988825E-006  0.7312421E+02  0.7561462E-02  0.1349780E+00
         -1   -1    0    0    0  501 -0.00000000000E+00  0.00000000000E+00  0.30114127780E+02  0.30114127780E+02  0.00000000000E+00 0.  1.
          1   -1    0    0  501    0  0.00000000000E+00 -0.00000000000E+00 -0.43915713120E+03  0.43915713120E+03  0.00000000000E+00 0. -1.
         23    2    1    2    0    0  0.10391572820E+02  0.24991056419E+02 -0.11432913522E+03  0.14796693466E+03  0.89947345184E+02 0.  0.
          5    1    1    2  502    0 -0.41025509766E+02 -0.19985656150E+02 -0.28478419803E+03  0.28844762220E+03  0.41800000000E+01 0. -1.
         -5    1    1    2    0  502  0.30633936945E+02 -0.50054002691E+01 -0.99296701654E+01  0.32856702120E+02  0.41800000000E+01 0. -1.
        -11    1    3    3    0    0  0.36593107631E+02  0.22082740937E+02 -0.15152665030E+02  0.45346512886E+02  0.00000000000E+00 0.  1.
         11    1    3    3    0    0 -0.26201534811E+02  0.29083154822E+01 -0.99176470195E+02  0.10262042178E+03  0.00000000000E+00 0. -1.
</event>
<event>
 7    1  0.6988825E-006  0.9196918E+02  0.7561462E-02  0.1298152E+00
         -1   -1    0    0    0  501 -0.00000000000E+00  0.00000000000E+00  0.26338364511E+02  0.26338364511E+02  0.00000000000E+00 0.  1.
          1   -1    0    0  501    0  0.00000000000E+00 -0.00000000000E+00 -0.86713400573E+03  0.86713400573E+03  0.00000000000E+00 0. -1.
         23    2    1    2    0    0  0.45525420119E+01 -0.32158676575E+02 -0.89013253281E+02  0.13065987282E+03  0.89965198758E+02 0.  0.
          5    1    1    2  502    0  0.20709913072E+02  0.71159637206E+02 -0.31900324460E+03  0.32752578056E+03  0.41800000000E+01 0. -1.
         -5    1    1    2    0  502 -0.25262455084E+02 -0.39000960631E+02 -0.43277914334E+03  0.43528671686E+03  0.41800000000E+01 0. -1.
        -11    1    3    3    0    0  0.22855287245E+02  0.33551577085E+01 -0.87693833957E+02  0.90685333723E+02  0.00000000000E+00 0. -1.
         11    1    3    3    0    0 -0.18302745233E+02 -0.35513834283E+02 -0.13194193232E+01  0.39974539096E+02  0.00000000000E+00 0.  1.
</event>
<event>
 7    1  0.6988825E-006  0.1048440E+03  0.7561462E-02  0.1270427E+00
         -2   -1    0    0    0  501 -0.00000000000E+00  0.00000000000E+00  0.60246997056E+02  0.60246997056E+02  0.00000000000E+00 0.  1.
          2   -1    0    0  501    0  0.00000000000E+00 -0.00000000000E+00 -0.43966580277E+03  0.43966580277E+03  0.00000000000E+00 0. -1.
         23    2    1    2    0    0 -0.76579270070E+02 -0.36046596006E+02 -0.45508949381E+02  0.13343112980E+03  0.92569218629E+02 0.  0.
          5    1    1    2  502    0  0.62572143696E+02  0.40600437994E+02 -0.70797953379E+02  0.10292468768E+03  0.41800000000E+01 0. -1.
         -5    1    1    2    0  502  0.14007126374E+02 -0.45538419874E+01 -0.26311190296E+03  0.26355698235E+03  0.41800000000E+01 0. -1.
        -11    1    3    3    0    0 -0.28570113292E+02 -0.59675149295E+02 -0.44827633131E+02  0.79918029937E+02  0.00000000000E+00 0. -1.
         11    1    3    3    0    0 -0.48009156778E+02  0.23628553288E+02 -0.68131625044E+00  0.53513099862E+02  0.00000000000E+00 0.  1.
</event>
<event>
 7    1  0.6988825E-006  0.1006312E+03  0.7561462E-02  0.1278974E+00
          2   -1    0    0  501    0  0.00000000000E+00  0.00000000000E+00  0.51930532001E+03  0.51930532001E+03  0.00000000000E+00 0. -1.
         -2   -1    0    0    0  501 -0.00000000000E+00 -0.00000000000E+00 -0.24636692693E+02  0.24636692693E+02  0.00000000000E+00 0.  1.
         23    2    1    2    0    0  0.30913041649E+02 -0.20098375650E+02  0.16489479455E+03  0.18931787007E+03  0.85389705527E+02 0.  0.
          5    1    1    2  502    0  0.36257486199E+01  0.60899491771E+02  0.89206029939E+02  0.10815305048E+03  0.41800000000E+01 0. -1.
         -5    1    1    2    0  502 -0.34538790269E+02 -0.40801116121E+02  0.24056780282E+03  0.24647109215E+03  0.41800000000E+01 0. -1.
        -11    1    3    3    0    0  0.85011667934E+01  0.30228023225E+02  0.29254182214E+02  0.42916318598E+02  0.00000000000E+00 0.  1.
         11    1    3    3    0    0  0.22411874855E+02 -0.50326398875E+02  0.13564061234E+03  0.14640155147E+03  0.00000000000E+00 0. -1.
</event>
<event>
 7    1  0.6988825E-006  0.1127809E+03  0.7561462E-02  0.1255505E+00
          2   -1    0    0  501    0  0.00000000000E+00  0.00000000000E+00  0.19009669694E+03  0.19009669694E+03  0.00000000000E+00 0. -1.
         -2   -1    0    0    0  501 -0.00000000000E+00 -0.00000000000E+00 -0.95572216166E+02  0.95572216166E+02  0.00000000000E+00 0.  1.
         23    2    1    2    0    0 -0.71818501816E+02  0.12150013671E+01  0.66652609893E+01  0.11677096941E+03  0.91824071799E+02 0.  0.
          5    1    1    2  502    0  0.56038971486E+02  0.39057528225E+02  0.10232313243E+03  0.12309895478E+03  0.41800000000E+01 0.  1.
         -5    1    1    2    0  502  0.15779530330E+02 -0.40272529592E+02 -0.14463912645E+02  0.45798988921E+02  0.41800000000E+01 0.  1.
        -11    1    3    3    0    0 -0.19159900145E+02 -0.41602370491E+02  0.15444209834E+02  0.48336141979E+02  0.00000000000E+00 0. -1.
         11    1    3    3    0    0 -0.52658601671E+02  0.42817371858E+02 -0.87789488448E+01  0.68434827432E+02  0.00000000000E+00 0.  1.
</event>
<event>
 7    1  0.6988825E-006  0.7419200E+02  0.7561462E-02  0.1346392E+00
         -2   -1    0    0    0  501 -0.00000000000E+00  0.00000000000E+00  0.90001985802E+02  0.90001985802E+02  0.00000000000E+00 0. -1.
          2   -1    0    0  501    0  0.00000000000E+00 -0.00000000000E+00 -0.19022502758E+03  0.19022502758E+03  0.00000000000E+00 0.  1.
         23    2    1    2    0    0 -0.30766052497E+02 -0.63505982081E+02 -0.40365918425E+02  0.12462659908E+03  0.94460690666E+02 0.  0.
          5    1    1    2  502    0  0.94162261885E+01  0.25517298852E+02  0.38857162863E+02  0.47614591903E+02  0.41800000000E+01 0.  1.
         -5    1    1    2    0  502  0.21349826309E+02  0.37988683228E+02 -0.98714286219E+02  0.10798582241E+03  0.41800000000E+01 0.  1.
        -11    1    3    3    0    0  0.61977218878E+01 -0.13953232275E+02 -0.58292866471E+02  0.60259129839E+02  0.00000000000E+00 0.  1.
         11    1    3    3    0    0 -0.36963774385E+02 -0.49552749805E+02  0.17926948045E+02  0.64367469239E+02  0.00000000000E+00 0. -1.
</event>
<event>
 7    1  0.6988825E-006  0.2137129E+03  0.7561462E-02  0.1138659E+00
          2   -1    0    0  501    0  0.00000000000E+00  0.00000000000E+00  0.22764850726E+04  0.22764850726E+04  0.00000000000E+00 0. -1.
         -2   -1    0    0    0  501 -0.00000000000E+00 -0.00000000000E+00 -0.25419424337E+02  0.25419424337E+02  0.00000000000E+00 0.  1.
         23    2    1    2    0    0  0.19554539265E+03  0.56552961434E+02  0.77030869922E+03  0.80199660737E+03  0.91579627207E+02 0.  0.
          5    1    1    2  502    0 -0.10140950543E+03  0.17816220970E+02  0.95897820855E+03  0.96449882447E+03  0.41800000000E+01 0. -1.
         -5    1    1    2    0  502 -0.94135887215E+02 -0.74369182404E+02  0.52177874052E+03  0.53540906512E+03  0.41800000000E+01 0. -1.
        -11    1    3    3    0    0  0.73932712639E+02  0.30433321217E+02  0.15681654315E+03  0.17602176355E+03  0.00000000000E+00 0.  1.
         11    1    3    3    0    0  0.12161268001E+03  0.26119640217E+02  0.61349215607E+03  0.62597484382E+03  0.00000000000E+00 0. -1.
</event>
<event>
 7    1  0.6988825E-006  0.8858743E+02  0.7561462E-02  0.1306309E+00
         -2   -1    0    0    0  501 -0.00000000000E+00  0.00000000000E+00  0.20481375520E+02  0.20481375520E+02  0.00000000000E+00 0.  1.
          2   -1    0    0  501    0  0.00000000000E+00 -0.00000000000E+00 -0.21620565297E+04  0.21620565297E+04  0.00000000000E+00 0. -1.
         23    2    1    2    0    0 -0.53402742257E+02 -0.39648582499E+02 -0.16642250643E+03  0.20137092946E+03  0.91814691686E+02 0.  0.
          5    1    1    2  502    0  0.38609704847E+02  0.17918782716E+02 -0.19139373773E+04  0.19144151976E+04  0.41800000000E+01 0. -1.
         -5    1    1    2    0  502  0.14793037410E+02  0.21729799783E+02 -0.61215270398E+02  0.66751778136E+02  0.41800000000E+01 0.  1.
        -11    1    3    3    0    0 -0.68731039452E+01  0.26240298985E+02 -0.18336557806E+02  0.32741750118E+02  0.00000000000E+00 0. -1.
         11    1    3    3    0    0 -0.46529638311E+02 -0.65888881483E+02 -0.14808594863E+03  0.16862917934E+03  0.00000000000E+00 0.  1.
</event>
<event>
 7    1  0.6988825E-006  0.7271611E+02  0.7561462E-02  0.1351093E+00
         -1   -1    0    0    0  501 -0.00000000000E+00  0.00000000000E+00  0.28525264649E+02  0.28525264649E+02  0.00000000000E+00 0.  1.
          1   -1    0    0  501    0  0.00000000000E+00 -0.00000000000E+00 -0.95390201733E+03  0.95390201733E+03  0.00000000000E+00 0. -1.
         23    2    1    2    0    0 -0.13152527573E+02  0.47599447409E+02 -0.88383505925E+02  0.13469862808E+03  0.88844695468E+02 0.  0.
          5    1    1    2  502    0  0.18658123073E+02 -0.65967696437E+02 -0.22108753616E+03  0.23151033146E+03  0.41800000000E+01 0.  1.
         -5    1    1    2    0  502 -0.55055955002E+01  0.18368249028E+02 -0.61590571060E+03  0.61621832243E+03  0.41800000000E+01 0.  1.
        -11    1    3    3    0    0  0.66478057321E+01  0.29689859510E+02  0.10568358005E+02  0.32208248473E+02  0.00000000000E+00 0.  1.
         11    1    3    3    0    0 -0.19800333305E+02  0.17909587899E+02 -0.98951863929E+02  0.10249037961E+03  0.00000000000E+00 0. -1.
</event>
<event>
 7    1  0.6988825E-006  0.1197736E+03  0.7561462E-02  0.1243471E+00
         -1   -1    0    0    0  501 -0.00000000000E+00  0.00000000000E+00  0.34032281816E+02  0.34032281816E+02  0.00000000000E+00 0.  1.
          1   -1    0    0  501    0  0.00000000000E+00 -0.00000000000E+00 -0.59609848842E+03  0.59609848842E+03  0.00000000000E+00 0. -1.
         23    2    1    2    0    0  0.13932398476E+02  0.89099369901E+02 -0.29143505463E+03  0.31864765329E+03  0.92027856851E+02 0.  0.
          5    1    1    2  502    0 -0.55404542142E+02 -0.28955241349E+02 -0.53618100230E+02  0.82464794693E+02  0.41800000000E+01 0. -1.
         -5    1    1    2    0  502  0.41472143666E+02 -0.60144128552E+02 -0.21701305175E+03  0.22901832225E+03  0.41800000000E+01 0. -1.
        -11    1    3    3    0    0 -0.19528196896E+02  0.29792407535E+02 -0.20763751510E+03  0.21067101295E+03  0.00000000000E+00 0. -1.
         11    1    3    3    0    0  0.33460595372E+02  0.59306962366E+02 -0.83797539525E+02  0.10797664034E+03  0.00000000000E+00 0.  1.
</event>
<event>
 7    1  0.1548071E-005  0.1360321E+03  0.7561462E-02  0.1218770E+00
          1   -1    0    0  501    0  0.00000000000E+00  0.00000000000E+00  0.18673322576E+04  0.18673322576E+04  0.00000000000E+00 0. -1.
         -1   -1    0    0    0  501 -0.00000000000E+00 -0.00000000000E+00 -0.17478754076E+02  0.17478754076E+02  0.00000000000E+00 0.  1.
         23    2    1    2    0    0  0.72456948756E+02 -0.94539434373E+02  0.33229334179E+03  0.35745250220E+03  0.56264662599E+02 0.  0.
          5    1    1    2  502    0 -0.19727611214E+02  0.94750212616E+02  0.12942057549E+04  0.12978261786E+04  0.41800000000E+01 0. -1.
         -5    1    1    2    0  502 -0.52729337543E+02 -0.21077824256E+00  0.22335440678E+03  0.22953233082E+03  0.41800000000E+01 0. -1.
        -11    1    3    3    0    0  0.13420766236E+02 -0.38989225446E+02  0.56196762457E+02  0.69701885039E+02  0.00000000000E+00 0.  1.
         11    1    3    3    0    0  0.59036182520E+02 -0.55550208927E+02  0.27609657933E+03  0.28775061716E+03  0.00000000000E+00 0. -1.
</event>
<event>
 7    1  0.6988825E-006  0.8887570E+02  0.7561462E-02  0.1305597E+00
         -2   -1    0    0    0  501 -0.00000000000E+00  0.00000000000E+00  0.37570995449E+02  0.37570995449E+02  0.00000000000E+00 0.  1.
          2   -1    0    0  501    0  0.00000000000E+00 -0.00000000000E+00 -0.47469012395E+03  0.47469012395E+03  0.00000000000E+00 0. -1.
         23    2    1    2    0    0 -0.48357198882E+02  0.38685898201E+02 -0.10332560970E+03  0.15045850210E+03  0.90147444944E+02 0.  0.
          5    1    1    2  502    0  0.30284671147E+02 -0.62785450162E+02 -0.79991935217E+02  0.10618547998E+03  0.41800000000E+01 0. -1.
         -5    1    1    2    0  502  0.18072527735E+02  0.24099551961E+02 -0.25380158359E+03  0.25561713733E+03  0.41800000000E+01 0. -1.
        -11    1    3    3    0    0 -0.49544718761E+02  0.12240255627E+02 -0.81637190882E+01  0.51683162870E+02  0.00000000000E+00 0.  1.
         11    1    3    3    0    0  0.11875198786E+01  0.26445642574E+02 -0.95161890611E+02  0.98775339226E+02  0.00000000000E+00 0. -1.
</event>
<event>
 7    1  0.6988825E-006  0.5835843E+03  0.7561462E-02  0.9940061E-01
         -2   -1    0    0    0  501 -0.00000000000E+00  0.00000000000E+00  0.34397497725E+03  0.34397497725E+03  0.00000000000E+00 0.  1.
          2   -1    0    0  501    0  0.00000000000E+00 -0.00000000000E+00 -0.16923068917E+04  0.16923068917E+04  0.00000000000E+00 0. -1.
         23    2    1    2    0    0 -0.44898016310E+03 -0.81645724484E+02 -0.15033867021E+03  0.48914331599E+03  0.91707451373E+02 0.  0.
          5    1    1    2  502    0 -0.24211889382E+02  0.21042836630E+03 -0.99342074962E+03  0.10157600952E+04  0.41800000000E+01 0. -1.
         -5    1    1    2    0  502  0.47319205248E+03 -0.12878264181E+03 -0.20457249462E+03  0.53137845771E+03  0.41800000000E+01 0.  1.
        -11    1    3    3    0    0 -0.68050832269E+01  0.11168200300E+02 -0.84742446264E+01  0.15583667016E+02  0.00000000000E+00 0. -1.
         11    1    3    3    0    0 -0.44217507987E+03 -0.92813924784E+02 -0.14186442558E+03  0.47355964898E+03  0.00000000000E+00 0.  1.
</event>
<event>
 7    1  0.6988825E-006  0.1099805E+03  0.7561462E-02  0.1260606E+00
          1   -1    0    0  501    0  0.00000000000E+00  0.00000000000E+00  0.12662618322E+04  0.12662618322E+04  0.00000000000E+00 0. -1.
         -1   -1    0    0    0  501 -0.00000000000E+00 -0.00000000000E+00 -0.14442697357E+02  0.14442697357E+02  0.00000000000E+00 0.  1.
         23    2    1    2    0    0  0.32061987084E+02  0.29182117289E+02  0.22012471157E+03  0.24055045041E+03  0.86775938869E+02 0.  0.
          5    1    1    2  502    0 -0.13800232216E+02  0.49262570531E+02  0.36207780964E+03  0.36569804470E+03  0.41800000000E+01 0.  1.
         -5    1    1    2    0  502 -0.18261754869E+02 -0.78444687820E+02  0.66961661366E+03  0.67445603447E+03  0.41800000000E+01 0.  1.
        -11    1    3    3    0    0  0.53549173134E+02  0.37029735413E+02  0.10791847714E+03  0.12603615734E+03  0.00000000000E+00 0.  1.
         11    1    3    3    0    0 -0.21487186050E+02 -0.78476181236E+01  0.11220623443E+03  0.11451429308E+03  0.00000000000E+00 0. -1.
</event>
<event>
 7    1  0.6988825E-006  0.8053814E+02  0.7561462E-02  0.1327531E+00
         -1   -1    0    0    0  501 -0.00000000000E+00  0.00000000000E+00  0.13235123406E+02  0.13235123406E+02  0.00000000000E+00 0.  1.
          1   -1    0    0  501    0  0.00000000000E+00 -0.00000000000E+00 -0.11207514064E+04  0.11207514064E+04  0.00000000000E+00 0. -1.
         23    2    1    2    0    0  0.29362061110E+02 -0.43716821011E+02 -0.41561227815E+03  0.42889644390E+03  0.91898328441E+02 0.  0.
          5    1    1    2  502    0 -0.73303701805E+00  0.27836889405E+02 -0.25867924727E+02  0.38236784445E+02  0.41800000000E+01 0. -1.
         -5    1    1    2    0  502 -0.28629024092E+02  0.15879931606E+02 -0.66603608013E+03  0.66685330147E+03  0.41800000000E+01 0. -1.
        -11    1    3    3    0    0  0.58836978855E+02 -0.20203804644E+02 -0.32240288171E+03  0.32834981641E+03  0.00000000000E+00 0. -1.
         11    1    3    3    0    0 -0.29474917745E+02 -0.23513016367E+02 -0.93209396435E+02  0.10054662748E+03  0.00000000000E+00 0.  1.
</event>
<event>
 7    1  0.6988825E-006  0.2851658E+03  0.7561462E-02  0.1092900E+00
          2   -1    0    0  501    0  0.00000000000E+00  0.00000000000E+00  0.80798798202E+03  0.80798798202E+03  0.00000000000E+00 0. -1.
         -2   -1    0    0    0  501 -0.00000000000E+00 -0.00000000000E+00 -0.17581176292E+03  0.17581176292E+03  0.00000000000E+00 0.  1.
         23    2    1    2    0    0  0.24542854732E+03 -0.13559782948E+03  0.94958750671E+02  0.30712248107E+03  0.81762527188E+02 0.  0.
          5    1    1    2  502    0 -0.41172360984E+02  0.11418381471E+02  0.39740801082E+03  0.39972007982E+03  0.41800000000E+01 0. -1.
         -5    1    1    2    0  502 -0.20425618634E+03  0.12417944801E+03  0.13980945760E+03  0.27695718405E+03  0.41800000000E+01 0.  1.
        -11    1    3    3    0    0  0.24016886507E+03 -0.11355544252E+03  0.72863498529E+02  0.27547234288E+03  0.00000000000E+00 0. -1.
         11    1    3    3    0    0  0.52596822501E+01 -0.22042386962E+02  0.22095252142E+02  0.31650138192E+02  0.00000000000E+00 0.  1.
</event>
<event>
 7    1  0.6988825E-006  0.1517892E+03  0.7561462E-02  0.1198292E+00
         -1   -1    0    0    0  501 -0.00000000000E+00  0.00000000000E+00  0.99047889375E+02  0.99047889375E+02  0.00000000000E+00 0.  1.
          1   -1    0    0  501    0  0.00000000000E+00 -0.00000000000E+00 -0.27592284297E+03  0.27592284297E+03  0.00000000000E+00 0. -1.
         23    2    1    2    0    0 -0.85769581926E+02 -0.74801794437E+02 -0.25403584394E+02  0.14793807775E+03  0.91041765762E+02 0.  0.
          5    1    1    2  502    0 -0.10828241968E+02  0.60473474985E+02 -0.97667309195E+02  0.11545851067E+03  0.41800000000E+01 0.  1.
         -5    1    1    2    0  502  0.96597823894E+02  0.14328319452E+02 -0.53804060004E+02  0.11157414392E+03  0.41800000000E+01 0.  1.
        -11    1    3    3    0    0  0.10266771012E+02  0.11304892263E+02  0.36926920040E+01  0.15711242800E+02  0.00000000000E+00 0.  1.
         11    1    3    3    0    0 -0.96036352938E+02 -0.86106686700E+02 -0.29096276398E+02  0.13222683495E+03  0.00000000000E+00 0. -1.
</event>
<event>
 7    1  0.6988825E-006  0.9558804E+02  0.7561462E-02  0.1289857E+00
         -2   -1    0    0    0  501 -0.00000000000E+00  0.00000000000E+00  0.74429205445E+02  0.74429205445E+02  0.00000000000E+00 0.  1.
          2   -1    0    0  501    0  0.00000000000E+00 -0.00000000000E+00 -0.16215176353E+03  0.16215176353E+03  0.00000000000E+00 0. -1.
         23    2    1    2    0    0  0.21260159897E+02 -0.23762570271E+01 -0.41888995249E+02  0.10165331479E+03  0.90116965602E+02 0.  0.
          5    1    1    2  502    0  0.49211397758E+02  0.17175234664E+02 -0.32525699771E+02  0.61580385681E+02  0.41800000000E+01 0.  1.
         -5    1    1    2    0  502 -0.70471557654E+02 -0.14798977636E+02 -0.13307863068E+02  0.73347268502E+02  0.41800000000E+01 0.  1.
        -11    1    3    3    0    0  0.37927698703E+02  0.16685162977E+02 -0.58266585128E+02  0.71497551950E+02  0.00000000000E+00 0. -1.
         11    1    3    3    0    0 -0.16667538806E+02 -0.19061420004E+02  0.16377589879E+02  0.30155762843E+02  0.00000000000E+00 0.  1.
</event>
<event>
 7    1  0.6988825E-006  0.1056401E+03  0.7561462E-02  0.1268863E+00
         -2   -1    0    0    0  501 -0.00000000000E+00  0.00000000000E+00  0.37206646046E+02  0.37206646046E+02  0.00000000000E+00 0.  1.
          2   -1    0    0  501    0  0.00000000000E+00 -0.00000000000E+00 -0.30445168087E+03  0.30445168087E+03  0.00000000000E+00 0. -1.
         23    2    1    2    0    0 -0.52205631068E+01  0.78133361368E+01 -0.10212475754E+03  0.13429317341E+03  0.86699987440E+02 0.  0.
          5    1    1    2  502    0  0.63029324241E+02  0.11679789971E+02 -0.81572455158E+02  0.10382991404E+03  0.41800000000E+01 0. -1.
         -5    1    1    2    0  502 -0.57808761135E+02 -0.19493126108E+02 -0.83547822129E+02  0.10353523947E+03  0.41800000000E+01 0. -1.
        -11    1    3    3    0    0 -0.44617403899E+02  0.12190085546E+02 -0.43289413061E+02  0.63350486971E+02  0.00000000000E+00 0.  1.
         11    1    3    3    0    0  0.39396840792E+02 -0.43767494095E+01 -0.58835344475E+02  0.70942686439E+02  0.00000000000E+00 0. -1.
</event>
<event>
 7    1  0.6988825E-006  0.2576207E+03  0.7561462E-02  0.1108581E+00
          1   -1    0    0  501    0  0.00000000000E+00  0.00000000000E+00  0.25649275385E+04  0.25649275385E+04  0.00000000000E+00 0. -1.
         -1   -1    0    0    0  501 -0.00000000000E+00 -0.00000000000E+00 -0.41275516610E+02  0.41275516610E+02  0.00000000000E+00 0.  1.
         23    2    1    2    0    0  0.24744018939E+03 -0.23008869468E+02  0.51777947434E+03  0.58112799914E+03  0.88645992236E+02 0.  0.
          5    1    1    2  502    0 -0.19183273274E+01 -0.95304240133E+00  0.42831476405E+03  0.42834051614E+03  0.41800000000E+01 0.  1.
         -5    1    1    2    0  502 -0.24552186206E+03  0.23961911870E+02  0.15775577835E+04  0.15967345398E+04  0.41800000000E+01 0.  1.
        -11    1    3    3    0    0  0.41649255136E+02  0.29980076888E+02  0.10385874300E+03  0.11584517237E+03  0.00000000000E+00 0.  1.
         11    1    3    3    0    0  0.20579093426E+03 -0.52988946356E+02  0.41392073134E+03  0.46528282677E+03  0.00000000000E+00 0. -1.
</event>
<event>
 7    1  0.6988825E-006  0.6298308E+02  0.7561462E-02  0.1385723E+00
          2   -1    0    0  501    0  0.00000000000E+00  0.00000000000E+00  0.19803306832E+03  0.19803306832E+03  0.00000000000E+00 0. -1.
         -2   -1    0    0    0  501 -0.00000000000E+00 -0.00000000000E+00 -0.75260909945E+02  0.75260909945E+02  0.00000000000E+00 0.  1.
         23    2    1    2    0    0 -0.21145918714E+02 -0.22123717779E+02  0.18845270783E+01  0.96665386941E+02  0.91673533932E+02 0.  0.
          5    1    1    2  502    0 -0.13129316437E+02  0.93155594487E+01 -0.22841956683E+02  0.28255724784E+02  0.41800000000E+01 0. -1.
         -5    1    1    2    0  502  0.34275235151E+02  0.12808158330E+02  0.14372958798E+03  0.14837286654E+03  0.41800000000E+01 0. -1.
        -11    1    3    3    0    0  0.10543765867E+02 -0.36292301382E+02  0.32905993979E+02  0.50110942698E+02  0.00000000000E+00 0. -1.
         11    1    3    3    0    0 -0.31689684581E+02  0.14168583603E+02 -0.31021466901E+02  0.46554444244E+02  0.00000000000E+00 0.  1.
</event>
<event>
 7    1  0.6988825E-006  0.2582550E+03  0.7561462E-02  0.1108196E+00
         -2   -1    0    0    0  501 -0.00000000000E+00  0.00000000000E+00  0.41915503900E+02  0.41915503900E+02  0.00000000000E+00 0.  1.
          2   -1    0    0  501    0  0.00000000000E+00 -0.00000000000E+00 -0.20198550847E+04  0.20198550847E+04  0.00000000000E+00 0. -1.
         23    2    1    2    0    0 -0.21432016230E+03 -0.10548099056E+03 -0.52580125378E+03  0.58480990553E+03  0.92066800674E+02 0.  0.
          5    1    1    2  502    0  0.31101350136E+02  0.70344433554E+02 -0.57927232417E+03  0.58437105614E+03  0.41800000000E+01 0.  1.
         -5    1    1    2    0  502  0.18321881216E+03  0.35136557002E+02 -0.87286600281E+03  0.89258962689E+03  0.41800000000E+01 0.  1.
        -11    1    3    3    0    0 -0.93324810000E+02 -0.92147293602E+02 -0.22697630952E+03  0.26214287891E+03  0.00000000000E+00 0.  1.
         11    1    3    3    0    0 -0.12099535230E+03 -0.13333696954E+02 -0.29882494426E+03  0.32266702662E+03  0.00000000000E+00 0. -1.
</event>
<event>
 7    1  0.6988825E-006  0.8853897E+02  0.7561462E-02  0.1306429E+00
          3   -1    0    0  501    0  0.00000000000E+00  0.00000000000E+00  0.96620073533E+02  0.96620073533E+02  0.00000000000E+00 0. -1.
         -3   -1    0    0    0  501 -0.00000000000E+00 -0.00000000000E+00 -0.13050550570E+03  0.13050550570E+03  0.00000000000E+00 0.  1.
         23    2    1    2    0    0  0.11009835113E+02  0.55918236144E+01 -0.40715791236E+02  0.10123442028E+03  0.91859388376E+02 0.  0.
          5    1    1    2  502    0 -0.60851675734E+02 -0.28946905814E+02  0.17322033152E+02  0.69702044650E+02  0.41800000000E+01 0.  1.
         -5    1    1    2    0  502  0.49841840622E+02  0.23355082199E+02 -0.10491674084E+02  0.56189114303E+02  0.41800000000E+01 0.  1.
        -11    1    3    3    0    0 -0.14622106511E+01  0.28361927603E+02  0.20310675563E+02  0.34915047461E+02  0.00000000000E+00 0. -1.
         11    1    3    3    0    0  0.12472045764E+02 -0.22770103989E+02 -0.61026466799E+02  0.66319372819E+02  0.00000000000E+00 0.  1.
</event>
<event>
 7    1  0.6988825E-006  0.9259294E+02  0.7561462E-02  0.1296691E+00
          2   -1    0    0  501    0  0.00000000000E+00  0.00000000000E+00  0.30741514834E+03  0.30741514834E+03  0.00000000000E+00 0. -1.
         -2   -1    0    0    0  501 -0.00000000000E+00 -0.00000000000E+00 -0.52921788168E+02  0.52921788168E+02  0.00000000000E+00 0.  1.
         23    2    1    2    0    0  0.39661658440E+02  0.27209806167E+02  0.45628065885E+02  0.11217332804E+03  0.90484885061E+02 0.  0.
          5    1    1    2  502    0  0.23922354154E+02 -0.16321026482E+02  0.17049786143E+03  0.17299031212E+03  0.41800000000E+01 0. -1.
         -5    1    1    2    0  502 -0.63584012595E+02 -0.10888779684E+02  0.38367432852E+02  0.75173296351E+02  0.41800000000E+01 0. -1.
        -11    1    3    3    0    0 -0.64247755885E+01  0.42301629192E+02  0.47130834211E+02  0.63655487644E+02  0.00000000000E+00 0.  1.
         11    1    3    3    0    0  0.46086434029E+02 -0.15091823026E+02 -0.15027683266E+01  0.48517840393E+02  0.00000000000E+00 0. -1.
</event>
<event>
 7    1  0.6988825E-006  0.1123095E+03  0.7561462E-02  0.1256352E+00
         -1   -1    0    0    0  501 -0.00000000000E+00  0.00000000000E+00  0.17306995070E+02  0.17306995070E+02  0.00000000000E+00 0.  1.
          1   -1    0    0  501    0  0.00000000000E+00 -0.00000000000E+00 -0.84641984893E+03  0.84641984893E+03  0.00000000000E+00 0. -1.
         23    2    1    2    0    0  0.40390445365E+02  0.38157802859E+02 -0.32449969184E+03  0.34088050653E+03  0.88385879684E+02 0.  0.
          5    1    1    2  502    0  0.69382768419E+01 -0.73205674540E+02 -0.34215289321E+03  0.34999040730E+03  0.41800000000E+01 0.  1.
         -5    1    1    2    0  502 -0.47328722207E+02  0.35047871681E+02 -0.16246026881E+03  0.17285593017E+03  0.41800000000E+01 0.  1.
        -11    1    3    3    0    0  0.41360862952E+01  0.52700946610E+02 -0.10104958860E+03  0.11404173069E+03  0.00000000000E+00 0.  1.
         11    1    3    3    0    0  0.36254359070E+02 -0.14543143751E+02 -0.22345010324E+03  0.22683877583E+03  0.00000000000E+00 0. -1.
</event>
<event>
 7    1  0.6988825E-006  0.2077349E+03  0.7561462E-02  0.1143372E+00
          4   -1    0    0  501    0  0.00000000000E+00  0.00000000000E+00  0.10677639562E+03  0.10677639562E+03  0.00000000000E+00 0. -1.
         -4   -1    0    0    0  501 -0.00000000000E+00 -0.00000000000E+00 -0.51007669824E+03  0.51007669824E+03  0.00000000000E+00 0.  1.
         23    2    1    2    0    0 -0.18461204872E+02  0.18763750453E+03 -0.30722660134E+03  0.37103565808E+03  0.87923977421E+02 0.  0.
          5    1    1    2  502    0  0.48484626891E+02 -0.28589010786E+02 -0.54934332794E+02  0.78761309677E+02  0.41800000000E+01 0. -1.
         -5    1    1    2    0  502 -0.30023422019E+02 -0.15904849374E+03 -0.41139368487E+02  0.16705612611E+03  0.41800000000E+01 0. -1.
        -11    1    3    3    0    0  0.80474859469E+01  0.15437271423E+03 -0.28198072317E+03  0.32157242601E+03  0.00000000000E+00 0. -1.
         11    1    3    3    0    0 -0.26508690819E+02  0.33264790292E+02 -0.25245878165E+02  0.49463232066E+02  0.00000000000E+00 0.  1.
</event>
<event>
 7    1  0.6988825E-006  0.9778196E+02  0.7561462E-02  0.1285031E+00
         -2   -1    0    0    0  501 -0.00000000000E+00  0.00000000000E+00  0.13050678490E+03  0.13050678490E+03  0.00000000000E+00 0. -1.
          2   -1    0    0  501    0  0.00000000000E+00 -0.00000000000E+00 -0.12379041848E+03  0.12379041848E+03  0.00000000000E+00 0.  1.
         23    2    1    2    0    0  0.17743571007E+02 -0.52054847284E+02  0.39711816822E+02  0.11372403324E+03  0.91277521347E+02 0.  0.
          5    1    1    2  502    0 -0.69104335801E+02  0.46952744575E+02 -0.11225502479E+02  0.84400555421E+02  0.41800000000E+01 0. -1.
         -5    1    1    2    0  502  0.51360764794E+02  0.51021027093E+01 -0.21769947927E+02  0.56172614724E+02  0.41800000000E+01 0. -1.
        -11    1    3    3    0    0 -0.60506100145E+01 -0.13968144766E+02  0.61821545109E+02  0.63668064125E+02  0.00000000000E+00 0. -1.
         11    1    3    3    0    0  0.23794181021E+02 -0.38086702518E+02 -0.22109728286E+02  0.50055969115E+02  0.00000000000E+00 0.  1.
</event>
<event>
 7    1  0.6988825E-006  0.7753838E+02  0.7561462E-02  0.1336186E+00
         -2   -1    0    0    0  501 -0.00000000000E+00  0.00000000000E+00  0.14891835700E+02  0.14891835700E+02  0.00000000000E+00 0.  1.
          2   -1    0    0  501    0  0.00000000000E+00 -0.00000000000E+00 -0.69345163749E+03  0.69345163749E+03  0.00000000000E+00 0. -1.
         23    2    1    2    0    0  0.10513638866E+02 -0.78250939154E+01 -0.23521726517E+03  0.24949775476E+03  0.82159595295E+02 0.  0.
          5    1    1    2  502    0  0.14914104941E+02 -0.38716110143E+02 -0.68113095905E+02  0.79863846292E+02  0.41800000000E+01 0. -1.
         -5    1    1    2    0  502 -0.25427743807E+02  0.46541204059E+02 -0.37522944071E+03  0.37898187214E+03  0.41800000000E+01 0.  1.
        -11    1    3    3    0    0  0.32609094913E+02 -0.16371046013E+02 -0.21581004428E+03  0.21887288418E+03  0.00000000000E+00 0. -1.
         11    1    3    3    0    0 -0.22095456047E+02  0.85459520972E+01 -0.19407220891E+02  0.30624870577E+02  0.00000000000E+00 0.  1.
</event>
<event>
 7    1  0.6988825E-006  0.9705776E+02  0.7561462E-02  0.1286608E+00
          1   -1    0    0  501    0  0.00000000000E+00  0.00000000000E+00  0.39822444469E+02  0.39822444469E+02  0.00000000000E+00 0. -1.
         -1   -1    0    0    0  501 -0.00000000000E+00 -0.00000000000E+00 -0.31435542362E+03  0.31435542362E+03  0.00000000000E+00 0.  1.
         23    2    1    2    0    0 -0.65394588732E+01  0.17878258217E+02 -0.12949944580E+03  0.16171019529E+03  0.94961487774E+02 0.  0.
          5    1    1    2  502    0 -0.39534613600E+02  0.36296105270E+02 -0.48240129145E+02  0.72283991244E+02  0.41800000000E+01 0.  1.
         -5    1    1    2    0  502  0.46074072473E+02 -0.54174363487E+02 -0.96793404213E+02  0.12018368156E+03  0.41800000000E+01 0.  1.
        -11    1    3    3    0    0  0.63094448272E+01  0.41594523735E+02 -0.12795395495E+03  0.13469271727E+03  0.00000000000E+00 0.  1.
         11    1    3    3    0    0 -0.12848903700E+02 -0.23716265518E+02 -0.15454908438E+01  0.27017478016E+02  0.00000000000E+00 0. -1.
</event>
<event>
 7    1  0.6988825E-006  0.1010121E+03  0.7561462E-02  0.1278182E+00
         -2   -1    0    0    0  501 -0.00000000000E+00  0.00000000000E+00  0.37718500958E+02  0.37718500958E+02  0.00000000000E+00 0.  1.
          2   -1    0    0  501    0  0.00000000000E+00 -0.00000000000E+00 -0.53328947138E+03  0.53328947138E+03  0.00000000000E+00 0. -1.
         23    2    1    2    0    0  0.22495400986E+02  0.69277243601E+02 -0.10849444637E+03  0.15775073157E+03  0.88367804495E+02 0.  0.
          5    1    1    2  502    0 -0.10140493757E+02  0.51172608692E+01  0.56334234637E+01  0.13350049901E+02  0.41800000000E+01 0.  1.
         -5    1    1    2    0  502 -0.12354907229E+02 -0.74394504470E+02 -0.39270994752E+03  0.39990719087E+03  0.41800000000E+01 0.  1.
        -11    1    3    3    0    0 -0.15458170409E+02 -0.15262564120E+02 -0.23577023290E+02  0.32058960107E+02  0.00000000000E+00 0. -1.
         11    1    3    3    0    0  0.37953571395E+02  0.84539807720E+02 -0.84917423075E+02  0.12569177146E+03  0.00000000000E+00 0.  1.
</event>
<event>
 7    1  0.6988825E-006  0.1549366E+03  0.7561462E-02  0.1194535E+00
          1   -1    0    0  501    0  0.00000000000E+00  0.00000000000E+00  0.73129207481E+03  0.73129207481E+03  0.00000000000E+00 0. -1.
         -1   -1    0    0    0  501 -0.00000000000E+00 -0.00000000000E+00 -0.48135819548E+02  0.48135819548E+02  0.00000000000E+00 0.  1.
         23    2    1    2    0    0  0.35621214573E+02 -0.12772320279E+03  0.17073065105E+03  0.23554398923E+03  0.93541050859E+02 0.  0.
          5    1    1    2  502    0  0.32394529158E+02  0.31637164362E+02  0.54149156022E+02  0.70710106676E+02  0.41800000000E+01 0.  1.
         -5    1    1    2    0  502 -0.68015743732E+02  0.96086038426E+02  0.45827644819E+03  0.47317379845E+03  0.41800000000E+01 0.  1.
        -11    1    3    3    0    0 -0.28483312412E+01 -0.97864142973E+02  0.15686429843E+03  0.18491055024E+03  0.00000000000E+00 0. -1.
         11    1    3    3    0    0  0.38469545815E+02 -0.29859059816E+02  0.13866352621E+02  0.50633438983E+02  0.00000000000E+00 0.  1.
</event>
<event>
 7    1  0.6988825E-006  0.1479778E+03  0.7561462E-02  0.1202980E+00
          1   -1    0    0  501    0  0.00000000000E+00  0.00000000000E+00  0.30544067894E+03  0.30544067894E+03  0.00000000000E+00 0. -1.
         -1   -1    0    0    0  501 -0.00000000000E+00 -0.00000000000E+00 -0.80269810347E+02  0.80269810347E+02  0.00000000000E+00 0.  1.
         23    2    1    2    0    0 -0.98119596365E+02 -0.40942793446E+02  0.44881660124E+02  0.14188562738E+03  0.82543323866E+02 0.  0.
          5    1    1    2  502    0 -0.28479178704E+02  0.17144713684E+01  0.51212991752E+02  0.58772833485E+02  0.41800000000E+01 0. -1.
         -5    1    1    2    0  502  0.12659877507E+03  0.39228322077E+02  0.12907621671E+03  0.18505202842E+03  0.41800000000E+01 0. -1.
        -11    1    3    3    0    0 -0.49028103910E+02 -0.63720108330E+02  0.29259389709E+02  0.85557694363E+02  0.00000000000E+00 0. -1.
         11    1    3    3    0    0 -0.49091492455E+02  0.22777314884E+02  0.15622270415E+02  0.56327933015E+02  0.00000000000E+00 0.  1.
</event>
<event>
 7    1  0.6988825E-006  0.1330390E+03  0.7561462E-02  0.1223015E+00
         -1   -1    0    0    0  501 -0.00000000000E+00  0.00000000000E+00  0.49334333572E+02  0.49334333572E+02  0.00000000000E+00 0.  1.
          1   -1    0    0  501    0  0.00000000000E+00 -0.00000000000E+00 -0.43347998150E+03  0.43347998150E+03  0.00000000000E+00 0. -1.
         23    2    1    2    0    0 -0.26470168405E+02 -0.94160745366E+02 -0.14801580280E+03  0.19825860284E+03  0.88492259194E+02 0.  0.
          5    1    1    2  502    0  0.51912419448E+02  0.15368228888E+02 -0.29238259145E+02  0.61671954322E+02  0.41800000000E+01 0. -1.
         -5    1    1    2    0  502 -0.25442251043E+02  0.78792516477E+02 -0.20689158598E+03  0.22288375791E+03  0.41800000000E+01 0. -1.
        -11    1    3    3    0    0 -0.54283768713E+02 -0.38185589805E+02 -0.55020428646E+02  0.86209711650E+02  0.00000000000E+00 0.  1.
         11    1    3    3    0    0  0.27813600308E+02 -0.55975155561E+02 -0.92995374158E+02  0.11204889119E+03  0.00000000000E+00 0. -1.
</event>
<event>
 7    1  0.6988825E-006  0.1313519E+03  0.7561462E-02  0.1225463E+00
          2   -1    0    0  501    0  0.00000000000E+00  0.00000000000E+00  0.20364499986E+03  0.20364499986E+03  0.00000000000E+00 0. -1.
         -2   -1    0    0    0  501 -0.00000000000E+00 -0.00000000000E+00 -0.10154442959E+03  0.10154442959E+03  0.00000000000E+00 0.  1.
         23    2    1    2    0    0 -0.79364846444E+01  0.82859481356E+02  0.59349682423E+02  0.13752203696E+03  0.91985022734E+02 0.  0.
          5    1    1    2  502    0  0.35701960275E+02 -0.11430889071E+03  0.34644706344E+02  0.12473524178E+03  0.41800000000E+01 0. -1.
         -5    1    1    2    0  502 -0.27765475631E+02  0.31449409358E+02  0.81061814985E+01  0.42932150709E+02  0.41800000000E+01 0.  1.
        -11    1    3    3    0    0 -0.96921978251E+01 -0.62869949512E+01 -0.16716655544E+02  0.20320225805E+02  0.00000000000E+00 0. -1.
         11    1    3    3    0    0  0.17557131807E+01  0.89146476308E+02  0.76066337966E+02  0.11720181116E+03  0.00000000000E+00 0.  1.
</event>
<event>
 7    1  0.6988825E-006  0.1544590E+03  0.7561462E-02  0.1195098E+00
         -1   -1    0    0    0  501 -0.00000000000E+00  0.00000000000E+00  0.58759643987E+03  0.58759643987E+03  0.00000000000E+00 0.  1.
          1   -1    0    0  501    0  0.00000000000E+00 -0.00000000000E+00 -0.41792675545E+02  0.41792675545E+02  0.00000000000E+00 0. -1.
         23    2    1    2    0    0 -0.76033960216E+02  0.80237872373E+02  0.25543516192E+03  0.29445723133E+03  0.96117947695E+02 0.  0.
          5    1    1    2  502    0 -0.33916247743E+02 -0.30591946628E+02  0.70503221774E+02  0.84109189390E+02  0.41800000000E+01 0. -1.
         -5    1    1    2    0  502  0.10995020796E+03 -0.49645925745E+02  0.21986538063E+03  0.25082269469E+03  0.41800000000E+01 0. -1.
        -11    1    3    3    0    0 -0.88983570746E+02  0.35562410676E+02  0.20223859862E+03  0.22379278739E+03  0.00000000000E+00 0.  1.
         11    1    3    3    0    0  0.12949610530E+02  0.44675461696E+02  0.53196563302E+02  0.70664443943E+02  0.00000000000E+00 0. -1.
</event>
<event>
 7    1  0.6988825E-006  0.1049015E+03  0.7561462E-02  0.1270314E+00
          2   -1    0    0  501    0  0.00000000000E+00  0.00000000000E+00  0.14460601688E+03  0.14460601688E+03  0.00000000000E+00 0.  1.
         -2   -1    0    0    0  501 -0.00000000000E+00 -0.00000000000E+00 -0.11258017709E+03  0.11258017709E+03  0.00000000000E+00 0. -1.
         23    2    1    2    0    0  0.46262777582E+02  0.47747619330E+02  0.34160617117E+01  0.11275037709E+03  0.90999441288E+02 0.  0.
          5    1    1    2  502    0 -0.81228891000E+02 -0.47177112845E+02 -0.70798270660E+01  0.94294268440E+02  0.41800000000E+01 0.  1.
         -5    1    1    2    0  502  0.34966113418E+02 -0.57050648549E+00  0.35689605146E+02  0.50141548447E+02  0.41800000000E+01 0.  1.
        -11    1    3    3    0    0 -0.91865714178E+01  0.93569736988E+01  0.35661456798E+02  0.37995862303E+02  0.00000000000E+00 0.  1.
         11    1    3    3    0    0  0.55449349000E+02  0.38390645631E+02 -0.32245395086E+02  0.74754514785E+02  0.00000000000E+00 0. -1.
</event>
<event>
 7    1  0.6988825E-006  0.8542168E+02  0.7561462E-02  0.1314333E+00
          1   -1    0    0  501    0  0.00000000000E+00  0.00000000000E+00  0.34859468037E+03  0.34859468037E+03  0.00000000000E+00 0. -1.
         -1   -1    0    0    0  501 -0.00000000000E+00 -0.00000000000E+00 -0.34925401111E+02  0.34925401111E+02  0.00000000000E+00 0.  1.
         23    2    1    2    0    0 -0.11859113912E+02 -0.16436742403E+02  0.11845889189E+03  0.15078585150E+03  0.91066233377E+02 0.  0.
          5    1    1    2  502    0  0.56453033955E+02  0.42014982417E+02  0.80770085985E+02  0.10720766288E+03  0.41800000000E+01 0. -1.
         -5    1    1    2    0  502 -0.44593920042E+02 -0.25578240014E+02  0.11444030139E+03  0.12552656710E+03  0.41800000000E+01 0. -1.
        -11    1    3    3    0    0 -0.17282010091E+02  0.11207429305E+02 -0.73435303842E+01  0.21867825290E+02  0.00000000000E+00 0.  1.
         11    1    3    3    0    0  0.54228961785E+01 -0.27644171708E+02  0.12580242227E+03  0.12891802621E+03  0.00000000000E+00 0. -1.
</event>
<event>
 7    1  0.6988825E-006  0.1060539E+03  0.7561462E-02  0.1268057E+00
         -2   -1    0    0    0  501 -0.00000000000E+00  0.00000000000E+00  0.28060701189E+02  0.28060701189E+02  0.00000000000E+00 0.  1.
          2   -1    0    0  501    0  0.00000000000E+00 -0.00000000000E+00 -0.50099321126E+03  0.50099321126E+03  0.00000000000E+00 0. -1.
         23    2    1    2    0    0 -0.14440858151E+01  0.19324348687E+02 -0.21247260307E+03  0.23946723445E+03  0.10874021099E+03 0.  0.
          5    1    1    2  502    0 -0.60877097404E+02 -0.10417052989E+02 -0.10622926582E+03  0.12294984871E+03  0.41800000000E+01 0.  1.
         -5    1    1    2    0  502  0.62321183219E+02 -0.89072956983E+01 -0.15423064118E+03  0.16663682928E+03  0.41800000000E+01 0.  1.
        -11    1    3    3    0    0 -0.38798842761E+02  0.29099542620E+02 -0.40416985830E+02  0.63132133846E+02  0.00000000000E+00 0.  1.
         11    1    3    3    0    0  0.37354756946E+02 -0.97751939330E+01 -0.17205561724E+03  0.17633510061E+03  0.00000000000E+00 0. -1.
</event>
<event>
 7    1  0.6988825E-006  0.6906859E+02  0.7561462E-02  0.1363289E+00
         -2   -1    0    0    0  501 -0.00000000000E+00  0.00000000000E+00  0.30381728158E+02  0.30381728158E+02  0.00000000000E+00 0.  1.
          2   -1    0    0  501    0  0.00000000000E+00 -0.00000000000E+00 -0.44113261468E+03  0.44113261468E+03  0.00000000000E+00 0. -1.
         23    2    1    2    0    0  0.19315359532E+02 -0.18456006544E+02 -0.17291405703E+03  0.20146241643E+03  0.99870550335E+02 0.  0.
          5    1    1    2  502    0  0.99549971030E+01  0.33393714937E+02 -0.56906653811E+01  0.35554159210E+02  0.41800000000E+01 0. -1.
         -5    1    1    2    0  502 -0.29270356635E+02 -0.14937708393E+02 -0.23214616411E+03  0.23449776719E+03  0.41800000000E+01 0. -1.
        -11    1    3    3    0    0 -0.22246544232E+02 -0.17562512488E+02 -0.15256909639E+03  0.15517950814E+03  0.00000000000E+00 0. -1.
         11    1    3    3    0    0  0.41561903764E+02 -0.89349405637E+00 -0.20344960647E+02  0.46282908291E+02  0.00000000000E+00 0.  1.
</event>
<event>
 7    1  0.6988825E-006  0.1136670E+03  0.7561462E-02  0.1253926E+00
         -1   -1    0    0    0  501 -0.00000000000E+00  0.00000000000E+00  0.40332391359E+02  0.40332391359E+02  0.00000000000E+00 0.  1.
          1   -1    0    0  501    0  0.00000000000E+00 -0.00000000000E+00 -0.55450839422E+03  0.55450839422E+03  0.00000000000E+00 0. -1.
         23    2    1    2    0    0 -0.86980964284E+02  0.38206649422E+02 -0.16100242843E+03  0.20831695430E+03  0.91917002134E+02 0.  0.
          5    1    1    2  502    0  0.72562524088E+02 -0.89047841978E+01 -0.69536220788E+02  0.10098204536E+03  0.41800000000E+01 0. -1.
         -5    1    1    2    0  502  0.14418440196E+02 -0.29301865225E+02 -0.28363735364E+03  0.28554178592E+03  0.41800000000E+01 0. -1.
        -11    1    3    3    0    0  0.70023226746E+01 -0.12549587386E+02 -0.58635388600E+02  0.60370799752E+02  0.00000000000E+00 0. -1.
         11    1    3    3    0    0 -0.93983286958E+02  0.50756236808E+02 -0.10236703983E+03  0.14794615455E+03  0.00000000000E+00 0.  1.
</event>
<event>
 7    1  0.6988825E-006  0.9942279E+02  0.7561462E-02  0.1281514E+00
         -4   -1    0    0    0  501 -0.00000000000E+00  0.00000000000E+00  0.24536243098E+02  0.24536243098E+02  0.00000000000E+00 0.  1.
          4   -1    0    0  501    0  0.00000000000E+00 -0.00000000000E+00 -0.73294502358E+03  0.73294502358E+03  0.00000000000E+00 0. -1.
         23    2    1    2    0    0 -0.42313202321E+02 -0.62011166287E+02 -0.25257636860E+03  0.27887195689E+03  0.91317876268E+02 0.  0.
          5    1    1    2  502    0  0.26731641158E+02  0.32887593775E+01 -0.38169535326E+03  0.38266723361E+03  0.41800000000E+01 0.  1.
         -5    1    1    2    0  502  0.15581561163E+02  0.58722406909E+02 -0.74137058616E+02  0.95942076180E+02  0.41800000000E+01 0.  1.
        -11    1    3    3    0    0 -0.65628197770E+02 -0.56816007583E+02 -0.23066434431E+03  0.24645721494E+03  0.00000000000E+00 0. -1.
         11    1    3    3    0    0  0.23314995449E+02 -0.51951587033E+01 -0.21912024290E+02  0.32414741943E+02  0.00000000000E+00 0.  1.
</event>
<event>
 7    1  0.6988825E-006  0.1395800E+03  0.7561462E-02  0.1213895E+00
          1   -1    0    0  501    0  0.00000000000E+00  0.00000000000E+00  0.47087731522E+03  0.47087731522E+03  0.00000000000E+00 0. -1.
         -1   -1    0    0    0  501 -0.00000000000E+00 -0.00000000000E+00 -0.57392482987E+02  0.57392482987E+02  0.00000000000E+00 0.  1.
         23    2    1    2    0    0  0.10179493230E+03  0.66200475079E+02  0.22351847943E+03  0.27042959502E+03  0.91798388200E+02 0.  0.
          5    1    1    2  502    0 -0.56850698057E+02 -0.13847698972E+02  0.17834515237E+03  0.18774511022E+03  0.41800000000E+01 0.  1.
         -5    1    1    2    0  502 -0.44944234245E+02 -0.52352776106E+02  0.11621200431E+02  0.70095092962E+02  0.41800000000E+01 0.  1.
        -11    1    3    3    0    0  0.82780085951E+02  0.29652360607E+00  0.10791471943E+03  0.13600815132E+03  0.00000000000E+00 0.  1.
         11    1    3    3    0    0  0.19014846351E+02  0.65903951473E+02  0.11560375999E+03  0.13442144370E+03  0.00000000000E+00 0. -1.
</event>
<event>
 7    1  0.6988825E-006  0.7174319E+02  0.7561462E-02  0.1354264E+00
         -2   -1    0    0    0  501 -0.00000000000E+00  0.00000000000E+00  0.27902970257E+03  0.27902970257E+03  0.00000000000E+00 0.  1.
          2   -1    0    0  501    0  0.00000000000E+00 -0.00000000000E+00 -0.55705062441E+02  0.55705062441E+02  0.00000000000E+00 0. -1.
         23    2    1    2    0    0 -0.26540012030E+02  0.47280210809E+02  0.13774272090E+03  0.17376174766E+03  0.90996138461E+02 0.  0.
          5    1    1    2  502    0  0.26352720496E+01  0.75230021385E+01 -0.29704076070E+02  0.31037795591E+02  0.41800000000E+01 0.  1.
         -5    1    1    2    0  502  0.23904739980E+02 -0.54803212948E+02  0.11528599529E+03  0.12993522176E+03  0.41800000000E+01 0.  1.
        -11    1    3    3    0    0  0.64407353559E+01  0.40334714476E+02  0.13371901827E+03  0.13981826816E+03  0.00000000000E+00 0.  1.
         11    1    3    3    0    0 -0.32980747386E+02  0.69454963329E+01  0.40237026286E+01  0.33943479495E+02  0.00000000000E+00 0. -1.
</event>
<event>
 7    1  0.6988825E-006  0.8708507E+02  0.7561462E-02  0.1310068E+00
          4   -1    0    0  501    0  0.00000000000E+00  0.00000000000E+00  0.58455088356E+02  0.58455088356E+02  0.00000000000E+00 0. -1.
         -4   -1    0    0    0  501 -0.00000000000E+00 -0.00000000000E+00 -0.21494003927E+03  0.21494003927E+03  0.00000000000E+00 0.  1.
         23    2    1    2    0    0  0.28817374848E+02 -0.73137912159E+01 -0.79325130458E+02  0.12344772495E+03  0.89793829623E+02 0.  0.
          5    1    1    2  502    0  0.81790204176E+01  0.35983004151E+02  0.19884100792E+02  0.42125085484E+02  0.41800000000E+01 0.  1.
         -5    1    1    2    0  502 -0.36996395266E+02 -0.28669212935E+02 -0.97043921249E+02  0.10782231719E+03  0.41800000000E+01 0.  1.
        -11    1    3    3    0    0  0.39644022211E+02 -0.39573060135E+02 -0.66825335915E+02  0.87196909955E+02  0.00000000000E+00 0.  1.
         11    1    3    3    0    0 -0.10826647363E+02  0.32259268919E+02 -0.12499794543E+02  0.36250814997E+02  0.00000000000E+00 0. -1.
</event>
<event>
 7    1  0.6988825E-006  0.1036383E+03  0.7561462E-02  0.1272826E+00
         -1   -1    0    0    0  501 -0.00000000000E+00  0.00000000000E+00  0.23377440113E+02  0.23377440113E+02  0.00000000000E+00 0.  1.
          1   -1    0    0  501    0  0.00000000000E+00 -0.00000000000E+00 -0.18171749462E+04  0.18171749462E+04  0.00000000000E+00 0. -1.
         23    2    1    2    0    0 -0.59960823788E+02 -0.26813083575E+02 -0.13204461768E+03  0.17280440318E+03  0.90062971644E+02 0.  0.
          5    1    1    2  502    0 -0.10992798351E+02  0.61164850700E+02 -0.75592959724E+03  0.75849127151E+03  0.41800000000E+01 0.  1.
         -5    1    1    2    0  502  0.70953622139E+02 -0.34351767126E+02 -0.90582329120E+03  0.90925671165E+03  0.41800000000E+01 0.  1.
        -11    1    3    3    0    0 -0.38132684895E+02 -0.13346352920E+02 -0.22105389603E+01  0.40461256481E+02  0.00000000000E+00 0.  1.
         11    1    3    3    0    0 -0.21828138893E+02 -0.13466730655E+02 -0.12983407872E+03  0.13234314670E+03  0.00000000000E+00 0. -1.
</event>
<event>
 7    1  0.6988825E-006  0.1042961E+03  0.7561462E-02  0.1271513E+00
          1   -1    0    0  501    0  0.00000000000E+00  0.00000000000E+00  0.77015410599E+03  0.77015410599E+03  0.00000000000E+00 0. -1.
         -1   -1    0    0    0  501 -0.00000000000E+00 -0.00000000000E+00 -0.16815841938E+02  0.16815841938E+02  0.00000000000E+00 0.  1.
         23    2    1    2    0    0  0.27985665055E+02 -0.17040047469E+02  0.29777977202E+03  0.31341489156E+03  0.92100710962E+02 0.  0.
          5    1    1    2  502    0 -0.12320010750E+02  0.62478243083E+02  0.13427220014E+03  0.14866677387E+03  0.41800000000E+01 0. -1.
         -5    1    1    2    0  502 -0.15665654305E+02 -0.45438195614E+02  0.32128629189E+03  0.32488828249E+03  0.41800000000E+01 0. -1.
        -11    1    3    3    0    0  0.18636744989E+02 -0.54668081801E+02  0.15317619111E+03  0.16370361314E+03  0.00000000000E+00 0. -1.
         11    1    3    3    0    0  0.93489200668E+01  0.37628034331E+02  0.14460358091E+03  0.14971127842E+03  0.00000000000E+00 0.  1.
</event>
<event>
 7    1  0.6988825E-006  0.2412658E+03  0.7561462E-02  0.1118952E+00
         -2   -1    0    0    0  501 -0.00000000000E+00  0.00000000000E+00  0.18084344507E+03  0.18084344507E+03  0.00000000000E+00 0.  1.
          2   -1    0    0  501    0  0.00000000000E+00 -0.00000000000E+00 -0.41258476159E+03  0.41258476159E+03  0.00000000000E+00 0. -1.
         23    2    1    2    0    0  0.22333552692E+03  0.83238912270E+02 -0.31051537432E+02  0.25767216940E+03  0.92861589512E+02 0.  0.
          5    1    1    2  502    0 -0.63208870512E+02 -0.95368791452E+01 -0.13162981429E+03  0.14639055224E+03  0.41800000000E+01 0. -1.
         -5    1    1    2    0  502 -0.16012665641E+03 -0.73702033125E+02 -0.69059964796E+02  0.18936548502E+03  0.41800000000E+01 0. -1.
        -11    1    3    3    0    0  0.66600916428E+02  0.46315580776E+02  0.28507457312E+02  0.85985406983E+02  0.00000000000E+00 0.  1.
         11    1    3    3    0    0  0.15673461049E+03  0.36923331493E+02 -0.59558994744E+02  0.17168676242E+03  0.00000000000E+00 0. -1.
</event>
<event>
 7    1  0.6988825E-006  0.1823307E+03  0.7561462E-02  0.1165566E+00
         -2   -1    0    0    0  501 -0.00000000000E+00  0.00000000000E+00  0.54373686697E+03  0.54373686697E+03  0.00000000000E+00 0.  1.
          2   -1    0    0  501    0  0.00000000000E+00 -0.00000000000E+00 -0.70159372415E+02  0.70159372415E+02  0.00000000000E+00 0. -1.
         23    2    1    2    0    0  0.14175771685E+03 -0.77319004108E+02  0.22765372812E+03  0.29420698531E+03  0.93048651767E+02 0.  0.
          5    1    1    2  502    0 -0.48173012184E+02  0.69552524147E+02  0.19540166584E+03  0.21297294695E+03  0.41800000000E+01 0.  1.
         -5    1    1    2    0  502 -0.93584704664E+02  0.77664799609E+01  0.50522100591E+02  0.10671630712E+03  0.41800000000E+01 0.  1.
        -11    1    3    3    0    0  0.64752435232E+02 -0.86880123950E+02  0.12293820368E+03  0.16387445112E+03  0.00000000000E+00 0. -1.
         11    1    3    3    0    0  0.77005281615E+02  0.95611198420E+01  0.10471552443E+03  0.13033253418E+03  0.00000000000E+00 0.  1.
</event>
<event>
 7    1  0.6988825E-006  0.9413323E+02  0.7561462E-02  0.1293140E+00
         -1   -1    0    0    0  501 -0.00000000000E+00  0.00000000000E+00  0.20334563190E+02  0.20334563190E+02  0.00000000000E+00 0.  1.
          1   -1    0    0  501    0  0.00000000000E+00 -0.00000000000E+00 -0.71263289200E+03  0.71263289200E+03  0.00000000000E+00 0. -1.
         23    2    1    2    0    0 -0.31628805113E+02  0.13324254638E+02 -0.30914211367E+03  0.32845284994E+03  0.10552019292E+03 0.  0.
          5    1    1    2  502    0 -0.11174824576E+02 -0.38011445196E+02 -0.35568255731E+02  0.53407114563E+02  0.41800000000E+01 0. -1.
         -5    1    1    2    0  502  0.42803629689E+02  0.24687190558E+02 -0.34758795941E+03  0.35110749069E+03  0.41800000000E+01 0. -1.
        -11    1    3    3    0    0 -0.57323697866E+02  0.33297459960E+02 -0.12533817510E+03  0.14178993376E+03  0.00000000000E+00 0.  1.
         11    1    3    3    0    0  0.25694892752E+02 -0.19973205322E+02 -0.18380393857E+03  0.18666291618E+03  0.00000000000E+00 0. -1.
</event>
<event>
 7    1  0.6988825E-006  0.1273604E+03  0.7561462E-02  0.1231426E+00
         -1   -1    0    0    0  501 -0.00000000000E+00  0.00000000000E+00  0.47500349319E+02  0.47500349319E+02  0.00000000000E+00 0.  1.
          1   -1    0    0  501    0  0.00000000000E+00 -0.00000000000E+00 -0.38001517972E+03  0.38001517972E+03  0.00000000000E+00 0. -1.
         23    2    1    2    0    0 -0.78132312908E+02 -0.48076212144E+01 -0.12802273411E+03  0.17533905223E+03  0.90698353041E+02 0.  0.
          5    1    1    2  502    0  0.99970434205E+02 -0.27060107215E+02 -0.17500370652E+03  0.20339642773E+03  0.41800000000E+01 0. -1.
         -5    1    1    2    0  502 -0.21838121297E+02  0.31867728430E+02 -0.29488389758E+02  0.48780049073E+02  0.41800000000E+01 0. -1.
        -11    1    3    3    0    0  0.11056630596E+02  0.17106781816E+02 -0.35893071161E+01  0.20682702672E+02  0.00000000000E+00 0.  1.
         11    1    3    3    0    0 -0.89188943505E+02 -0.21914403031E+02 -0.12443342700E+03  0.15465634956E+03  0.00000000000E+00 0. -1.
</event>
<event>
 7    1  0.6988825E-006  0.8485082E+02  0.7561462E-02  0.1315823E+00
          1   -1    0    0  501    0  0.00000000000E+00  0.00000000000E+00  0.24468519653E+03  0.24468519653E+03  0.00000000000E+00 0. -1.
         -1   -1    0    0    0  501 -0.00000000000E+00 -0.00000000000E+00 -0.58585780482E+02  0.58585780482E+02  0.00000000000E+00 0.  1.
         23    2    1    2    0    0 -0.21431452441E+02 -0.13688742330E+02  0.27522626325E+02  0.99700665060E+02  0.92390685858E+02 0.  0.
          5    1    1    2  502    0 -0.93987043772E+01 -0.52999521815E+02  0.63746789335E+02  0.83536881119E+02  0.41800000000E+01 0. -1.
         -5    1    1    2    0  502  0.30830156818E+02  0.66688264144E+02  0.94830000386E+02  0.12003343083E+03  0.41800000000E+01 0. -1.
        -11    1    3    3    0    0  0.64778815633E+01 -0.12630800203E+02  0.57207500627E+02  0.58942329368E+02  0.00000000000E+00 0. -1.
         11    1    3    3    0    0 -0.27909334005E+02 -0.10579421265E+01 -0.29684874302E+02  0.40758335693E+02  0.00000000000E+00 0.  1.
</event>
<event>
 7    1  0.6988825E-006  0.8698502E+02  0.7561462E-02  0.1310322E+00
         -3   -1    0    0    0  501 -0.00000000000E+00  0.00000000000E+00  0.20584697461E+02  0.20584697461E+02  0.00000000000E+00 0.  1.
          3   -1    0    0  501    0  0.00000000000E+00 -0.00000000000E+00 -0.71364414311E+03  0.71364414311E+03  0.00000000000E+00 0. -1.
         23    2    1    2    0    0 -0.37938607737E+02  0.22304269144E+02 -0.21092446933E+03  0.23419083760E+03  0.91757279126E+02 0.  0.
          5    1    1    2  502    0  0.45960722775E+02  0.98548701124E+01 -0.45375844764E+03  0.45620577342E+03  0.41800000000E+01 0.  1.
         -5    1    1    2    0  502 -0.80221150385E+01 -0.32159139256E+02 -0.28376528678E+02  0.43832229548E+02  0.41800000000E+01 0.  1.
        -11    1    3    3    0    0  0.72159053142E+01  0.43070831491E+02 -0.14621425077E+03  0.15259676583E+03  0.00000000000E+00 0. -1.
         11    1    3    3    0    0 -0.45154513051E+02 -0.20766562348E+02 -0.64710218565E+02  0.81594071766E+02  0.00000000000E+00 0.  1.
</event>
<event>
 7    1  0.6988825E-006  0.9882253E+02  0.7561462E-02  0.1282792E+00
         -1   -1    0    0    0  501 -0.00000000000E+00  0.00000000000E+00  0.87575757432E+03  0.87575757432E+03  0.00000000000E+00 0.  1.
          1   -1    0    0  501    0  0.00000000000E+00 -0.00000000000E+00 -0.17387810841E+02  0.17387810841E+02  0.00000000000E+00 0. -1.
         23    2    1    2    0    0  0.84878337380E+01  0.60750669987E+02  0.37123787833E+03  0.38648198083E+03  0.88250053670E+02 0.  0.
          5    1    1    2  502    0  0.10055751209E+02  0.13997997647E+02  0.50351404694E+01  0.18436027502E+02  0.41800000000E+01 0.  1.
         -5    1    1    2    0  502 -0.18543584947E+02 -0.74748667634E+02  0.48209674468E+03  0.48822737683E+03  0.41800000000E+01 0.  1.
        -11    1    3    3    0    0  0.33678619572E+02  0.68579488124E+02  0.31822801773E+03  0.32727124359E+03  0.00000000000E+00 0.  1.
         11    1    3    3    0    0 -0.25190785834E+02 -0.78288181367E+01  0.53009860596E+02  0.59210737243E+02  0.00000000000E+00 0. -1.
</event>
<event>
 7    1  0.6988825E-006  0.2084726E+03  0.7561462E-02  0.1142781E+00
          2   -1    0    0  501    0  0.00000000000E+00  0.00000000000E+00  0.17168233760E+04  0.17168233760E+04  0.00000000000E+00 0. -1.
         -2   -1    0    0    0  501 -0.00000000000E+00 -0.00000000000E+00 -0.37864458142E+02  0.37864458142E+02  0.00000000000E+00 0.  1.
         23    2    1    2    0    0  0.18330145737E+03 -0.60429188524E+02  0.38807345194E+03  0.44347319627E+03  0.93895477033E+02 0.  0.
          5    1    1    2  502    0 -0.36841507696E+01 -0.16750189788E+02  0.33862262102E+03  0.33908242905E+03  0.41800000000E+01 0. -1.
         -5    1    1    2    0  502 -0.17961730660E+03  0.77179378312E+02  0.95226284493E+03  0.97213220886E+03  0.41800000000E+01 0. -1.
        -11    1    3    3    0    0  0.10656779186E+03 -0.79741731948E+00  0.13245351026E+03  0.17000371324E+03  0.00000000000E+00 0.  1.
         11    1    3    3    0    0  0.76733665502E+02 -0.59631771204E+02  0.25561994169E+03  0.27346948302E+03  0.00000000000E+00 0. -1.
</event>
<event>
 7    1  0.6988825E-006  0.1072301E+03  0.7561462E-02  0.1265787E+00
          2   -1    0    0  501    0  0.00000000000E+00  0.00000000000E+00  0.10006968718E+04  0.10006968718E+04  0.00000000000E+00 0. -1.
         -2   -1    0    0    0  501 -0.00000000000E+00 -0.00000000000E+00 -0.20562401146E+02  0.20562401146E+02  0.00000000000E+00 0.  1.
         23    2    1    2    0    0 -0.23949198009E+02 -0.41244909523E+02  0.16184375390E+03  0.19208729857E+03  0.91811888939E+02 0.  0.
          5    1    1    2  502    0  0.61445531549E+02 -0.16547339787E+02  0.34023838825E+03  0.34616325779E+03  0.41800000000E+01 0.  1.
         -5    1    1    2    0  502 -0.37496333540E+02  0.57792249310E+02  0.47805232846E+03  0.48300871654E+03  0.41800000000E+01 0.  1.
        -11    1    3    3    0    0 -0.22383218480E+02 -0.59385179310E+02  0.16188415124E+03  0.17387951694E+03  0.00000000000E+00 0. -1.
         11    1    3    3    0    0 -0.15659795290E+01  0.18140269787E+02 -0.40397340862E-01  0.18207781627E+02  0.00000000000E+00 0.  1.
</event>
<event>
 7    1  0.6988825E-006  0.1118646E+03  0.7561462E-02  0.1257155E+00
         -2   -1    0    0    0  501 -0.00000000000E+00  0.00000000000E+00  0.63924037450E+02  0.63924037450E+02  0.00000000000E+00 0.  1.
          2   -1    0    0  501    0  0.00000000000E+00 -0.00000000000E+00 -0.22107934273E+03  0.22107934273E+03  0.00000000000E+00 0. -1.
         23    2    1    2    0    0  0.33241292705E+02  0.16772987188E+02 -0.27922446203E+02  0.10134773876E+03  0.90029908974E+02 0.  0.
          5    1    1    2  502    0 -0.74848138937E+02  0.13975797651E+02 -0.59482564823E+02  0.96712019626E+02  0.41800000000E+01 0.  1.
         -5    1    1    2    0  502  0.41606846232E+02 -0.30748784839E+02 -0.69750294257E+02  0.86943621798E+02  0.41800000000E+01 0.  1.
        -11    1    3    3    0    0  0.63367565439E+02  0.63288206357E+01 -0.91229718396E+01  0.64332969273E+02  0.00000000000E+00 0.  1.
         11    1    3    3    0    0 -0.30126272734E+02  0.10444166552E+02 -0.18799474364E+02  0.37014769487E+02  0.00000000000E+00 0. -1.
</event>
<event>
 7    1  0.6988825E-006  0.6105101E+02  0.7561462E-02  0.1393473E+00
         -2   -1    0    0    0  501 -0.00000000000E+00  0.00000000000E+00  0.37115525782E+02  0.37115525782E+02  0.00000000000E+00 0.  1.
          2   -1    0    0  501    0  0.00000000000E+00 -0.00000000000E+00 -0.77301584290E+03  0.77301584290E+03  0.00000000000E+00 0. -1.
         23    2    1    2    0    0 -0.43207296570E+02 -0.26329135970E+02 -0.64924824941E+02  0.12572242511E+03  0.95030528800E+02 0.  0.
          5    1    1    2  502    0  0.49109310632E+01 -0.87505343021E+01 -0.57582199629E+03  0.57592458960E+03  0.41800000000E+01 0. -1.
         -5    1    1    2    0  502  0.38296365507E+02  0.35079670272E+02 -0.95153495888E+02  0.10848435397E+03  0.41800000000E+01 0. -1.
        -11    1    3    3    0    0 -0.46461388766E+01 -0.19402486415E+02 -0.80965599430E+02  0.83387477337E+02  0.00000000000E+00 0. -1.
         11    1    3    3    0    0 -0.38561157694E+02 -0.69266495547E+01  0.16040774489E+02  0.42334947773E+02  0.00000000000E+00 0.  1.
</event>
<event>
 7    1  0.6988825E-006  0.8350034E+02  0.7561462E-02  0.1319402E+00
         -1   -1    0    0    0  501 -0.00000000000E+00  0.00000000000E+00  0.78341711330E+02  0.78341711330E+02  0.00000000000E+00 0.  1.
          1   -1    0    0  501    0  0.00000000000E+00 -0.00000000000E+00 -0.37667559943E+03  0.37667559943E+03  0.00000000000E+00 0. -1.
         23    2    1    2    0    0  0.22878165301E+02 -0.22869080768E+02  0.36633737448E+02  0.10048014784E+03  0.87794214435E+02 0.  0.
          5    1    1    2  502    0  0.25956010272E+02  0.34090779542E+02 -0.26443890163E+03  0.26792032550E+03  0.41800000000E+01 0. -1.
         -5    1    1    2    0  502 -0.48834175572E+02 -0.11221698774E+02 -0.70528723915E+02  0.86616837418E+02  0.41800000000E+01 0.  1.
        -11    1    3    3    0    0  0.21014799582E+02 -0.45942378928E+02  0.52153425733E+02  0.72610631445E+02  0.00000000000E+00 0. -1.
         11    1    3    3    0    0  0.18633657188E+01  0.23073298160E+02 -0.15519688285E+02  0.27869516398E+02  0.00000000000E+00 0.  1.
</event>
<event>
 7    1  0.6988825E-006  0.8938551E+02  0.7561462E-02  0.1304347E+00
          3   -1    0    0  501    0  0.00000000000E+00  0.00000000000E+00  0.45960301556E+03  0.45960301556E+03  0.00000000000E+00 0. -1.
         -3   -1    0    0    0  501 -0.00000000000E+00 -0.00000000000E+00 -0.35353729216E+02  0.35353729216E+02  0.00000000000E+00 0.  1.
         23    2    1    2    0    0  0.27035915778E+02 -0.33737236953E+02  0.90808366950E+02  0.13621001023E+03  0.91857854750E+02 0.  0.
          5    1    1    2  502    0  0.49303114878E+01  0.66770780195E+02  0.28095145241E+03  0.28884915798E+03  0.41800000000E+01 0. -1.
         -5    1    1    2    0  502 -0.31966227266E+02 -0.33033543241E+02  0.52489466991E+02  0.69897576565E+02  0.41800000000E+01 0. -1.
        -11    1    3    3    0    0  0.25225457796E+02  0.58556770467E+01  0.92977447160E+02  0.96516414951E+02  0.00000000000E+00 0. -1.
         11    1    3    3    0    0  0.18104579823E+01 -0.39592914000E+02 -0.21690802100E+01  0.39693595278E+02  0.00000000000E+00 0.  1.
</event>
<event>
 7    1  0.6988825E-006  0.1078566E+03  0.7561462E-02  0.1264591E+00
          2   -1    0    0  501    0  0.00000000000E+00  0.00000000000E+00  0.38260450503E+03  0.38260450503E+03  0.00000000000E+00 0. -1.
         -2   -1    0    0    0  501 -0.00000000000E+00 -0.00000000000E+00 -0.70062039519E+02  0.70062039519E+02  0.00000000000E+00 0.  1.
         23    2    1    2    0    0  0.61215909547E+02  0.49747313737E+02  0.15835294697E+02  0.12114809124E+03  0.90575496941E+02 0.  0.
          5    1    1    2  502    0 -0.27431354033E+02 -0.79446563280E+02  0.10500501388E+03  0.13456508069E+03  0.41800000000E+01 0.  1.
         -5    1    1    2    0  502 -0.33784555513E+02  0.29699249543E+02  0.19170215694E+03  0.19695337263E+03  0.41800000000E+01 0.  1.
        -11    1    3    3    0    0  0.37668392047E+01  0.22477821996E+02 -0.33600186600E+02  0.40600666236E+02  0.00000000000E+00 0.  1.
         11    1    3    3    0    0  0.57449070342E+02  0.27269491740E+02  0.49435481297E+02  0.80547424999E+02  0.00000000000E+00 0. -1.
</event>
<event>
 7    1  0.6988825E-006  0.3291430E+03  0.7561462E-02  0.1071517E+00
          1   -1    0    0  501    0  0.00000000000E+00  0.00000000000E+00  0.61144331498E+03  0.61144331498E+03  0.00000000000E+00 0. -1.
         -1   -1    0    0    0  501 -0.00000000000E+00 -0.00000000000E+00 -0.25864196316E+03  0.25864196316E+03  0.00000000000E+00 0.  1.
         23    2    1    2    0    0 -0.13038692727E+03  0.29437525146E+03 -0.48884126948E+02  0.34031479121E+03  0.98827930141E+02 0.  0.
          5    1    1    2  502    0  0.20522913321E+02 -0.59938412496E+02  0.17308495078E+03  0.18436289174E+03  0.41800000000E+01 0.  1.
         -5    1    1    2    0  502  0.10986401395E+03 -0.23443683896E+03  0.22860052799E+03  0.34540759520E+03  0.41800000000E+01 0.  1.
        -11    1    3    3    0    0 -0.97958832615E+02  0.10450898511E+03 -0.83776639519E+01  0.14348604848E+03  0.00000000000E+00 0. -1.
         11    1    3    3    0    0 -0.32428094656E+02  0.18986626634E+03 -0.40506462996E+02  0.19682874273E+03  0.00000000000E+00 0.  1.
</event>
<event>
 7    1  0.6988825E-006  0.1387985E+03  0.7561462E-02  0.1214955E+00
          1   -1    0    0  501    0  0.00000000000E+00  0.00000000000E+00  0.13548454056E+03  0.13548454056E+03  0.00000000000E+00 0. -1.
         -1   -1    0    0    0  501 -0.00000000000E+00 -0.00000000000E+00 -0.39614296844E+03  0.39614296844E+03  0.00000000000E+00 0.  1.
         23    2    1    2    0    0  0.77784796689E+02 -0.86983051577E+02 -0.31894521686E+03  0.35090456216E+03  0.88269102930E+02 0.  0.
          5    1    1    2  502    0 -0.13289397063E+02  0.79742897829E+02 -0.15441369541E+02  0.82410230687E+02  0.41800000000E+01 0.  1.
         -5    1    1    2    0  502 -0.64495399626E+02  0.72401537476E+01  0.73728158514E+02  0.98312716152E+02  0.41800000000E+01 0.  1.
        -11    1    3    3    0    0  0.33568181303E+02 -0.80116446663E+02 -0.12735424933E+03  0.15415762272E+03  0.00000000000E+00 0. -1.
         11    1    3    3    0    0  0.44216615387E+02 -0.68666049140E+01 -0.19159096753E+03  0.19674693944E+03  0.00000000000E+00 0.  1.
</event>
<event>
 7    1  0.6988825E-006  0.9631484E+02  0.7561462E-02  0.1288242E+00
          1   -1    0    0  501    0  0.00000000000E+00  0.00000000000E+00  0.20593417591E+03  0.20593417591E+03  0.00000000000E+00 0. -1.
         -1   -1    0    0    0  501 -0.00000000000E+00 -0.00000000000E+00 -0.69519374986E+02  0.69519374986E+02  0.00000000000E+00 0.  1.
         23    2    1    2    0    0 -0.18865438189E+02 -0.43843956383E+02  0.42290469829E+02  0.11179068130E+03  0.91817619864E+02 0.  0.
          5    1    1    2  502    0  0.18704803432E+02 -0.42768178500E+02  0.38393466479E+02  0.60584795386E+02  0.41800000000E+01 0. -1.
         -5    1    1    2    0  502  0.16063475699E+00  0.86612134883E+02  0.55730864618E+02  0.10307807421E+03  0.41800000000E+01 0. -1.
        -11    1    3    3    0    0 -0.11916161817E+02  0.25104882670E+01 -0.26145175231E+02  0.28842115936E+02  0.00000000000E+00 0.  1.
         11    1    3    3    0    0 -0.69492763716E+01 -0.46354444650E+02  0.68435645060E+02  0.82948565363E+02  0.00000000000E+00 0. -1.
</event>
<event>
 7    1  0.6988825E-006  0.9612112E+02  0.7561462E-02  0.1288671E+00
          2   -1    0    0  501    0  0.00000000000E+00  0.00000000000E+00  0.21749338955E+03  0.21749338955E+03  0.00000000000E+00 0. -1.
         -2   -1    0    0    0  501 -0.00000000000E+00 -0.00000000000E+00 -0.62321857238E+02  0.62321857238E+02  0.00000000000E+00 0.  1.
         23    2    1    2    0    0 -0.29573615064E+02  0.78913861367E+01  0.15019382994E+02  0.89483604164E+02  0.82733674314E+02 0.  0.
          5    1    1    2  502    0  0.63227358263E+02 -0.38085777580E+02  0.49583402211E+02  0.89018040091E+02  0.41800000000E+01 0.  1.
         -5    1    1    2    0  502 -0.33653743198E+02  0.30194391443E+02  0.90568747112E+02  0.10131360254E+03  0.41800000000E+01 0.  1.
        -11    1    3    3    0    0 -0.33214291402E+02  0.33420419682E+02  0.33452409091E+02  0.57785614811E+02  0.00000000000E+00 0. -1.
         11    1    3    3    0    0  0.36406763383E+01 -0.25529033545E+02 -0.18433026097E+02  0.31697989353E+02  0.00000000000E+00 0.  1.
</event>
<event>
 7    1  0.6988825E-006  0.6966101E+02  0.7561462E-02  0.1361250E+00
          2   -1    0    0  501    0  0.00000000000E+00  0.00000000000E+00  0.41416463526E+02  0.41416463526E+02  0.00000000000E+00 0. -1.
         -2   -1    0    0    0  501 -0.00000000000E+00 -0.00000000000E+00 -0.29523803006E+03  0.29523803006E+03  0.00000000000E+00 0.  1.
         23    2    1    2    0    0  0.15302133649E+02  0.13438268258E+01 -0.13610036950E+03  0.16419555354E+03  0.90558865165E+02 0.  0.
          5    1    1    2  502    0 -0.13448575839E+02 -0.23862903458E+02 -0.13864168323E+03  0.14138348942E+03  0.41800000000E+01 0. -1.
         -5    1    1    2    0  502 -0.18535578091E+01  0.22519076632E+02  0.20920486192E+02  0.31075450623E+02  0.41800000000E+01 0. -1.
        -11    1    3    3    0    0 -0.14343405957E+02 -0.37280657839E+02 -0.83240132077E+02  0.92328220667E+02  0.00000000000E+00 0.  1.
         11    1    3    3    0    0  0.29645539606E+02  0.38624484664E+02 -0.52860237423E+02  0.71867332875E+02  0.00000000000E+00 0. -1.
</event>
<event>
 7    1  0.6988825E-006  0.9382977E+02  0.7561462E-02  0.1293834E+00
         -1   -1    0    0    0  501 -0.00000000000E+00  0.00000000000E+00  0.17487710229E+03  0.17487710229E+03  0.00000000000E+00 0.  1.
          1   -1    0    0  501    0  0.00000000000E+00 -0.00000000000E+00 -0.74587141432E+02  0.74587141432E+02  0.00000000000E+00 0. -1.
         23    2    1    2    0    0 -0.41606358295E+02  0.12598307972E+01  0.51634782082E+02  0.10893941030E+03  0.86423192320E+02 0.  0.
          5    1    1    2  502    0 -0.24273352673E+02  0.19965545765E+02  0.62254185962E+02  0.69863257421E+02  0.41800000000E+01 0. -1.
         -5    1    1    2    0  502  0.65879710968E+02 -0.21225376562E+02 -0.13599007183E+02  0.70661576007E+02  0.41800000000E+01 0. -1.
        -11    1    3    3    0    0 -0.45596478645E+01 -0.34691190983E+02  0.44832420915E+02  0.56870159887E+02  0.00000000000E+00 0.  1.
         11    1    3    3    0    0 -0.37046710430E+02  0.35951021780E+02  0.68023611669E+01  0.52069250409E+02  0.00000000000E+00 0. -1.
</event>
<event>
 7    1  0.6988825E-006  0.1058136E+03  0.7561462E-02  0.1268525E+00
         -2   -1    0    0    0  501 -0.00000000000E+00  0.00000000000E+00  0.66814433656E+02  0.66814433656E+02  0.00000000000E+00 0.  1.
          2   -1    0    0  501    0  0.00000000000E+00 -0.00000000000E+00 -0.18589162828E+03  0.18589162828E+03  0.00000000000E+00 0. -1.
         23    2    1    2    0    0 -0.11462909854E+02 -0.21332721593E+02 -0.34224190134E+02  0.99630009871E+02  0.90378981869E+02 0.  0.
          5    1    1    2  502    0 -0.28756872628E+02 -0.37597942201E+02 -0.61848231208E+02  0.77995122185E+02  0.41800000000E+01 0. -1.
         -5    1    1    2    0  502  0.40219782483E+02  0.58930663794E+02 -0.23004773285E+02  0.75080929883E+02  0.41800000000E+01 0. -1.
        -11    1    3    3    0    0 -0.24065779278E+02 -0.53188966948E+02 -0.14715328532E+02  0.60206053109E+02  0.00000000000E+00 0. -1.
         11    1    3    3    0    0  0.12602869423E+02  0.31856245354E+02 -0.19508861602E+02  0.39423956762E+02  0.00000000000E+00 0.  1.
</event>
<event>
 7    1  0.6988825E-006  0.1241260E+03  0.7561462E-02  0.1236442E+00
         -2   -1    0    0    0  501 -0.00000000000E+00  0.00000000000E+00  0.55230356533E+03  0.55230356533E+03  0.00000000000E+00 0.  1.
          2   -1    0    0  501    0  0.00000000000E+00 -0.00000000000E+00 -0.47099747140E+02  0.47099747140E+02  0.00000000000E+00 0. -1.
         23    2    1    2    0    0  0.11490267098E+03  0.67745026505E+01  0.17808534529E+03  0.23075221542E+03  0.91014707773E+02 0.  0.
          5    1    1    2  502    0 -0.10876491493E+03 -0.14028373993E+01  0.33760720812E+03  0.35472224916E+03  0.41800000000E+01 0.  1.
         -5    1    1    2    0  502 -0.61377560452E+01 -0.53716652512E+01 -0.10488735224E+02  0.13928847886E+02  0.41800000000E+01 0.  1.
        -11    1    3    3    0    0  0.13917255698E+02  0.24043918031E+02  0.94593751826E+02  0.98588933887E+02  0.00000000000E+00 0. -1.
         11    1    3    3    0    0  0.10098541528E+03 -0.17269415381E+02  0.83491593466E+02  0.13216328154E+03  0.00000000000E+00 0.  1.
</event>
<event>
 7    1  0.6988825E-006  0.9585096E+02  0.7561462E-02  0.1289271E+00
          2   -1    0    0  501    0  0.00000000000E+00  0.00000000000E+00  0.10477818778E+04  0.10477818778E+04  0.00000000000E+00 0. -1.
         -2   -1    0    0    0  501 -0.00000000000E+00 -0.00000000000E+00 -0.14808926391E+02  0.14808926391E+02  0.00000000000E+00 0.  1.
         23    2    1    2    0    0 -0.45976471579E+02  0.18274922268E+02  0.29664903526E+03  0.31408020337E+03  0.90542339845E+02 0.  0.
          5    1    1    2  502    0  0.50952128675E+01  0.37043358546E+02  0.52257505947E+03  0.52392779730E+03  0.41800000000E+01 0. -1.
         -5    1    1    2    0  502  0.40881258711E+02 -0.55318280814E+02  0.21374885672E+03  0.22458280356E+03  0.41800000000E+01 0. -1.
        -11    1    3    3    0    0 -0.20023900669E+02 -0.26618850474E+02  0.39109063818E+02  0.51371574545E+02  0.00000000000E+00 0.  1.
         11    1    3    3    0    0 -0.25952570909E+02  0.44893772742E+02  0.25753997145E+03  0.26270862883E+03  0.00000000000E+00 0. -1.
</event>
<event>
 7    1  0.6988825E-006  0.1024657E+03  0.7561462E-02  0.1275195E+00
         -1   -1    0    0    0  501 -0.00000000000E+00  0.00000000000E+00  0.32087410649E+02  0.32087410649E+02  0.00000000000E+00 0.  1.
          1   -1    0    0  501    0  0.00000000000E+00 -0.00000000000E+00 -0.45806311852E+03  0.45806311852E+03  0.00000000000E+00 0. -1.
         23    2    1    2    0    0  0.23678995242E+02 -0.45752768756E+02 -0.19362065348E+03  0.22128059801E+03  0.93926220709E+02 0.  0.
          5    1    1    2  502    0 -0.15607044838E+02  0.81281950748E+02 -0.92084457035E+02  0.12388444210E+03  0.41800000000E+01 0.  1.
         -5    1    1    2    0  502 -0.80719504041E+01 -0.35529181992E+02 -0.14027059735E+03  0.14498548906E+03  0.41800000000E+01 0.  1.
        -11    1    3    3    0    0 -0.21111901567E+02 -0.32355349019E+02 -0.15758799415E+03  0.16225460517E+03  0.00000000000E+00 0. -1.
         11    1    3    3    0    0  0.44790896809E+02 -0.13397419737E+02 -0.36032659330E+02  0.59025992842E+02  0.00000000000E+00 0.  1.
</event>
<event>
 7    1  0.6988825E-006  0.1326869E+03  0.7561462E-02  0.1223522E+00
         -1   -1    0    0    0  501 -0.00000000000E+00  0.00000000000E+00  0.75175497976E+02  0.75175497976E+02  0.00000000000E+00 0.  1.
          1   -1    0    0  501    0  0.00000000000E+00 -0.00000000000E+00 -0.24816942663E+03  0.24816942663E+03  0.00000000000E+00 0. -1.
         23    2    1    2    0    0  0.72806399875E+02 -0.45229274876E+02 -0.71821677018E+02  0.14105325550E+03  0.85972137522E+02 0.  0.
          5    1    1    2  502    0 -0.93259469413E+02 -0.83619260880E+01 -0.69048650760E+02  0.11641494326E+03  0.41800000000E+01 0. -1.
         -5    1    1    2    0  502  0.20453069538E+02  0.53591200964E+02 -0.32123600879E+02  0.65876725842E+02  0.41800000000E+01 0. -1.
        -11    1    3    3    0    0  0.34538610156E+02 -0.63072459882E+02 -0.67469650509E+02  0.98606310786E+02  0.00000000000E+00 0. -1.
         11    1    3    3    0    0  0.38267789719E+02  0.17843185007E+02 -0.43520265092E+01  0.42446944718E+02  0.00000000000E+00 0.  1.
</event>
<event>
 7    1  0.6988825E-006  0.1354485E+03  0.7561462E-02  0.1219588E+00
          1   -1    0    0  501    0  0.00000000000E+00  0.00000000000E+00  0.82400619269E+03  0.82400619269E+03  0.00000000000E+00 0. -1.
         -1   -1    0    0    0  501 -0.00000000000E+00 -0.00000000000E+00 -0.24190560777E+02  0.24190560777E+02  0.00000000000E+00 0.  1.
         23    2    1    2    0    0 -0.43403340066E+02  0.72780881703E+02  0.27894011320E+03  0.30585020897E+03  0.92497875152E+02 0.  0.
          5    1    1    2  502    0  0.86920268519E+02 -0.38969965739E+02  0.30856265801E+03  0.32295847663E+03  0.41800000000E+01 0.  1.
         -5    1    1    2    0  502 -0.43516928453E+02 -0.33810915964E+02  0.21231286070E+03  0.21938806786E+03  0.41800000000E+01 0.  1.
        -11    1    3    3    0    0 -0.43908290572E+01  0.80411112692E+02  0.22400727091E+03  0.23804302940E+03  0.00000000000E+00 0.  1.
         11    1    3    3    0    0 -0.39012511009E+02 -0.76302309883E+01  0.54932842284E+02  0.67807179572E+02  0.00000000000E+00 0. -1.
</event>
<event>
 7    1  0.6988825E-006  0.1103944E+03  0.7561462E-02  0.1259841E+00
          2   -1    0    0  501    0  0.00000000000E+00  0.00000000000E+00  0.51947819435E+02  0.51947819435E+02  0.00000000000E+00 0. -1.
         -2   -1    0    0    0  501 -0.00000000000E+00 -0.00000000000E+00 -0.51803320795E+03  0.51803320795E+03  0.00000000000E+00 0.  1.
         23    2    1    2    0    0 -0.99022749537E+02 -0.22600980710E+02 -0.33985116186E+03  0.36528998077E+03  0.87302053673E+02 0.  0.
          5    1    1    2  502    0  0.18475988425E+02 -0.86080048229E+01 -0.11571519250E+03  0.11757099162E+03  0.41800000000E+01 0.  1.
         -5    1    1    2    0  502  0.80546761112E+02  0.31208985533E+02 -0.10519034156E+02  0.87120055000E+02  0.41800000000E+01 0.  1.
        -11    1    3    3    0    0 -0.30069173254E+02 -0.31996592300E+02 -0.23747953398E+03  0.24150458827E+03  0.00000000000E+00 0.  1.
         11    1    3    3    0    0 -0.68953576283E+02  0.93956115902E+01 -0.10237162789E+03  0.12378539250E+03  0.00000000000E+00 0. -1.
</event>
<event>
 7    1  0.6988825E-006  0.9650505E+02  0.7561462E-02  0.1287822E+00
          1   -1    0    0  501    0  0.00000000000E+00  0.00000000000E+00  0.35826068591E+02  0.35826068591E+02  0.00000000000E+00 0. -1.
         -1   -1    0    0    0  501 -0.00000000000E+00 -0.00000000000E+00 -0.35278443216E+03  0.35278443216E+03  0.00000000000E+00 0.  1.
         23    2    1    2    0    0  0.26344801878E+02 -0.48635512307E+01 -0.14386147247E+03  0.17337089080E+03  0.92971177254E+02 0.  0.
          5    1    1    2  502    0 -0.30627388365E+02  0.62626413868E+02 -0.96216486261E+02  0.11889150205E+03  0.41800000000E+01 0.  1.
         -5    1    1    2    0  502  0.42825864867E+01 -0.57762862637E+02 -0.76880404838E+02  0.96348107896E+02  0.41800000000E+01 0.  1.
        -11    1    3    3    0    0  0.44512145652E+02  0.43574529368E+01 -0.14617715771E+03  0.15286621583E+03  0.00000000000E+00 0.  1.
         11    1    3    3    0    0 -0.18167343774E+02 -0.92210041675E+01  0.23156852373E+01  0.20504674974E+02  0.00000000000E+00 0. -1.
</event>
<event>
 7    1  0.6988825E-006  0.9212191E+02  0.7561462E-02  0.1297793E+00
         -1   -1    0    0    0  501 -0.00000000000E+00  0.00000000000E+00  0.67129693018E+02  0.67129693018E+02  0.00000000000E+00 0.  1.
          1   -1    0    0  501    0  0.00000000000E+00 -0.00000000000E+00 -0.22072065936E+03  0.22072065936E+03  0.00000000000E+00 0. -1.
         23    2    1    2    0    0 -0.58026668554E+01 -0.52336483223E+02 -0.48856222504E+02  0.11641554447E+03  0.91612608838E+02 0.  0.
          5    1    1    2  502    0  0.31214816533E+02  0.80162392284E+02 -0.10188853471E+03  0.13341334196E+03  0.41800000000E+01 0.  1.
         -5    1    1    2    0  502 -0.25412149678E+02 -0.27825909061E+02 -0.28462091258E+01  0.38021465946E+02  0.41800000000E+01 0.  1.
        -11    1    3    3    0    0  0.97264636307E+01 -0.37441925977E+02  0.20512234584E+02  0.43786455477E+02  0.00000000000E+00 0.  1.
         11    1    3    3    0    0 -0.15529130486E+02 -0.14894557246E+02 -0.69368457088E+02  0.72629088993E+02  0.00000000000E+00 0. -1.
</event>
<event>
 7    1  0.6988825E-006  0.6878770E+02  0.7561462E-02  0.1364265E+00
         -2   -1    0    0    0  501 -0.00000000000E+00  0.00000000000E+00  0.24999715095E+02  0.24999715095E+02  0.00000000000E+00 0.  1.
          2   -1    0    0  501    0  0.00000000000E+00 -0.00000000000E+00 -0.55632082280E+03  0.55632082280E+03  0.00000000000E+00 0. -1.
         23    2    1    2    0    0  0.21199267171E+02 -0.99671686331E-01 -0.12530786613E+03  0.15593176622E+03  0.90350625572E+02 0.  0.
          5    1    1    2  502    0  0.25871645893E+00  0.20111670408E+02 -0.23931749873E+01  0.20682018938E+02  0.41800000000E+01 0.  1.
         -5    1    1    2    0  502 -0.21457983630E+02 -0.20011998722E+02 -0.40362006659E+03  0.40470675274E+03  0.41800000000E+01 0.  1.
        -11    1    3    3    0    0  0.54211513664E+02  0.25865997850E+01 -0.10164149150E+03  0.11522400577E+03  0.00000000000E+00 0.  1.
         11    1    3    3    0    0 -0.33012246494E+02 -0.26862714714E+01 -0.23666374633E+02  0.40707760455E+02  0.00000000000E+00 0. -1.
</event>
<event>
 7    1  0.6988825E-006  0.9070181E+02  0.7561462E-02  0.1301161E+00
          1   -1    0    0  501    0  0.00000000000E+00  0.00000000000E+00  0.93518820273E+03  0.93518820273E+03  0.00000000000E+00 0. -1.
         -1   -1    0    0    0  501 -0.00000000000E+00 -0.00000000000E+00 -0.15424331997E+02  0.15424331997E+02  0.00000000000E+00 0.  1.
         23    2    1    2    0    0 -0.46036634541E+02 -0.17788276532E+01  0.33165642232E+03  0.34758619539E+03  0.93261164526E+02 0.  0.
          5    1    1    2  502    0  0.98090473132E+01 -0.34336580835E+02  0.45471352587E+02  0.57968392239E+02  0.41800000000E+01 0.  1.
         -5    1    1    2    0  502  0.36227587228E+02  0.36115408489E+02  0.54263609583E+03  0.54505794710E+03  0.41800000000E+01 0.  1.
        -11    1    3    3    0    0 -0.27563831382E+02 -0.41786262657E+02  0.10061406599E+03  0.11237903195E+03  0.00000000000E+00 0.  1.
         11    1    3    3    0    0 -0.18472803159E+02  0.40007435003E+02  0.23104235633E+03  0.23520716344E+03  0.00000000000E+00 0. -1.
</event>
<event>
 7    1  0.6988825E-006  0.1193100E+03  0.7561462E-02  0.1244240E+00
          1   -1    0    0  501    0  0.00000000000E+00  0.00000000000E+00  0.17749967772E+03  0.17749967772E+03  0.00000000000E+00 0. -1.
         -1   -1    0    0    0  501 -0.00000000000E+00 -0.00000000000E+00 -0.12662933793E+03  0.12662933793E+03  0.00000000000E+00 0.  1.
         23    2    1    2    0    0  0.42298807833E+02  0.51305609297E+02 -0.39365643258E+02  0.13616751948E+03  0.11211817339E+03 0.  0.
          5    1    1    2  502    0  0.38463776041E+02 -0.40257358378E+02  0.57122268890E+02  0.79878301021E+02  0.41800000000E+01 0. -1.
         -5    1    1    2    0  502 -0.80762583874E+02 -0.11048250919E+02  0.33113714155E+02  0.88083195148E+02  0.41800000000E+01 0. -1.
        -11    1    3    3    0    0  0.55704703008E+02  0.85530321814E+01  0.21731619198E+02  0.60402248051E+02  0.00000000000E+00 0. -1.
         11    1    3    3    0    0 -0.13405895174E+02  0.42752577116E+02 -0.61097262456E+02  0.75765271431E+02  0.00000000000E+00 0.  1.
</event>
<event>
 7    1  0.6988825E-006  0.6422547E+02  0.7561462E-02  0.1380909E+00
          1   -1    0    0  501    0  0.00000000000E+00  0.00000000000E+00  0.32539768322E+03  0.32539768322E+03  0.00000000000E+00 0. -1.
         -1   -1    0    0    0  501 -0.00000000000E+00 -0.00000000000E+00 -0.42549632320E+02  0.42549632320E+02  0.00000000000E+00 0.  1.
         23    2    1    2    0    0 -0.30064922996E+02 -0.26665593132E+02  0.77901936618E+02  0.12450156743E+03  0.88413659073E+02 0.  0.
          5    1    1    2  502    0 -0.23180212378E+02  0.25679603770E+02  0.34813125667E+01  0.35019369395E+02  0.41800000000E+01 0. -1.
         -5    1    1    2    0  502  0.53245135374E+02  0.98598936209E+00  0.20146480172E+03  0.20842637872E+03  0.41800000000E+01 0. -1.
        -11    1    3    3    0    0 -0.19832168930E+02 -0.17464025460E+02  0.97240069452E+02  0.10076675154E+03  0.00000000000E+00 0. -1.
         11    1    3    3    0    0 -0.10232754067E+02 -0.92015676723E+01 -0.19338132834E+02  0.23734815881E+02  0.00000000000E+00 0.  1.
</event>
<event>
 7    1  0.6988825E-006  0.8118878E+02  0.7561462E-02  0.1325711E+00
          1   -1    0    0  501    0  0.00000000000E+00  0.00000000000E+00  0.62983331137E+02  0.62983331137E+02  0.00000000000E+00 0. -1.
         -1   -1    0    0    0  501 -0.00000000000E+00 -0.00000000000E+00 -0.22439996275E+03  0.22439996275E+03  0.00000000000E+00 0.  1.
         23    2    1    2    0    0  0.41229572778E+02  0.24121653294E+02 -0.84290443299E+02  0.13286057676E+03  0.90913817413E+02 0.  0.
          5    1    1    2  502    0 -0.11890407453E+02 -0.44617470598E+02  0.20325356892E+02  0.50623048157E+02  0.41800000000E+01 0.  1.
         -5    1    1    2    0  502 -0.29339165325E+02  0.20495817304E+02 -0.97451545202E+02  0.10389966897E+03  0.41800000000E+01 0.  1.
        -11    1    3    3    0    0  0.24736264094E+02  0.46210425665E+02 -0.90518544021E+02  0.10459872376E+03  0.00000000000E+00 0.  1.
         11    1    3    3    0    0  0.16493308684E+02 -0.22088772371E+02  0.62281007222E+01  0.28261852997E+02  0.00000000000E+00 0. -1.
</event>
<event>
 7    1  0.6988825E-006  0.1134120E+03  0.7561462E-02  0.1254379E+00
         -1   -1    0    0    0  501 -0.00000000000E+00  0.00000000000E+00  0.16538600145E+03  0.16538600145E+03  0.00000000000E+00 0.  1.
          1   -1    0    0  501    0  0.00000000000E+00 -0.00000000000E+00 -0.84127966464E+02  0.84127966464E+02  0.00000000000E+00 0. -1.
         23    2    1    2    0    0 -0.31974557998E+02  0.16151004607E+02  0.65231278164E+02  0.11841347554E+03  0.92105397393E+02 0.  0.
          5    1    1    2  502    0  0.45288767917E+02 -0.64461713938E+02  0.17434644840E+02  0.80794952219E+02  0.41800000000E+01 0.  1.
         -5    1    1    2    0  502 -0.13314209919E+02  0.48310709332E+02 -0.14078880186E+01  0.50305540158E+02  0.41800000000E+01 0.  1.
        -11    1    3    3    0    0 -0.55891077139E+02  0.36071808061E+02  0.52672621621E+02  0.84849236349E+02  0.00000000000E+00 0. -1.
         11    1    3    3    0    0  0.23916519141E+02 -0.19920803454E+02  0.12558656543E+02  0.33564239188E+02  0.00000000000E+00 0.  1.
</event>
<event>
 7    1  0.6988825E-006  0.8816864E+02  0.7561462E-02  0.1307348E+00
          1   -1    0    0  501    0  0.00000000000E+00  0.00000000000E+00  0.12056647516E+03  0.12056647516E+03  0.00000000000E+00 0. -1.
         -1   -1    0    0    0  501 -0.00000000000E+00 -0.00000000000E+00 -0.12273151512E+03  0.12273151512E+03  0.00000000000E+00 0.  1.
         23    2    1    2    0    0  0.47133264684E+02 -0.17404364100E+02 -0.25526184694E+02  0.10649123266E+03  0.90356737424E+02 0.  0.
          5    1    1    2  502    0 -0.72267398456E+02  0.36457545298E+02 -0.19562234260E+02  0.83377952109E+02  0.41800000000E+01 0. -1.
         -5    1    1    2    0  502  0.25134133772E+02 -0.19053181198E+02  0.42923378994E+02  0.53428805512E+02  0.41800000000E+01 0. -1.
        -11    1    3    3    0    0  0.13594886833E+02  0.12551226253E+02 -0.51387206325E+02  0.54616839916E+02  0.00000000000E+00 0.  1.
         11    1    3    3    0    0  0.33538377851E+02 -0.29955590353E+02  0.25861021631E+02  0.51874392740E+02  0.00000000000E+00 0. -1.
</event>
<event>
 7    1  0.6988825E-006  0.1462817E+03  0.7561462E-02  0.1205118E+00
         -2   -1    0    0    0  501 -0.00000000000E+00  0.00000000000E+00  0.27102870870E+02  0.27102870870E+02  0.00000000000E+00 0.  1.
          2   -1    0    0  501    0  0.00000000000E+00 -0.00000000000E+00 -0.91902619500E+03  0.91902619500E+03  0.00000000000E+00 0. -1.
         23    2    1    2    0    0 -0.82163941366E+02 -0.79885135653E+02 -0.39445038448E+03  0.42052600069E+03  0.90102515391E+02 0.  0.
          5    1    1    2  502    0  0.67098309344E+02  0.11246664991E+03 -0.42292909048E+03  0.44276113022E+03  0.41800000000E+01 0.  1.
         -5    1    1    2    0  502  0.15065632022E+02 -0.32581514253E+02 -0.74543849168E+02  0.82841934961E+02  0.41800000000E+01 0.  1.
        -11    1    3    3    0    0 -0.76387264575E+02 -0.42195199794E+02 -0.35536161665E+03  0.36591983775E+03  0.00000000000E+00 0. -1.
         11    1    3    3    0    0 -0.57766767909E+01 -0.37689935859E+02 -0.39088767830E+02  0.54606162933E+02  0.00000000000E+00 0.  1.
</event>
<event>
 7    1  0.6988825E-006  0.1538620E+03  0.7561462E-02  0.1195806E+00
         -2   -1    0    0    0  501 -0.00000000000E+00  0.00000000000E+00  0.87080819756E+02  0.87080819756E+02  0.00000000000E+00 0.  1.
          2   -1    0    0  501    0  0.00000000000E+00 -0.00000000000E+00 -0.45810582623E+03  0.45810582623E+03  0.00000000000E+00 0. -1.
         23    2    1    2    0    0  0.28357115909E+02 -0.13022992337E+03 -0.37195671073E+02  0.16459031627E+03  0.89120678305E+02 0.  0.
          5    1    1    2  502    0 -0.71795827319E+02  0.73045928842E+02 -0.13750969229E+03  0.17151307943E+03  0.41800000000E+01 0. -1.
         -5    1    1    2    0  502  0.43438711410E+02  0.57183994525E+02 -0.19631964311E+03  0.20908325028E+03  0.41800000000E+01 0. -1.
        -11    1    3    3    0    0  0.13707404918E+02 -0.61448012359E+02 -0.63581777720E+02  0.89478453442E+02  0.00000000000E+00 0.  1.
         11    1    3    3    0    0  0.14649710991E+02 -0.68781911008E+02  0.26386106646E+02  0.75111862831E+02  0.00000000000E+00 0. -1.
</event>
<event>
 7    1  0.6988825E-006  0.1271445E+03  0.7561462E-02  0.1231755E+00
          4   -1    0    0  501    0  0.00000000000E+00  0.00000000000E+00  0.19892044974E+03  0.19892044974E+03  0.00000000000E+00 0. -1.
         -4   -1    0    0    0  501 -0.00000000000E+00 -0.00000000000E+00 -0.11533960374E+03  0.11533960374E+03  0.00000000000E+00 0.  1.
         23    2    1    2    0    0 -0.10201206920E+03 -0.22332832942E+02  0.33432276262E+02  0.14376812430E+03  0.92985691265E+02 0.  0.
          5    1    1    2  502    0  0.11616802557E+03  0.10864032949E+01  0.71904930436E+02  0.13668936264E+03  0.41800000000E+01 0.  1.
         -5    1    1    2    0  502 -0.14155956367E+02  0.21246429648E+02 -0.21756360701E+02  0.33802566536E+02  0.41800000000E+01 0.  1.
        -11    1    3    3    0    0 -0.36008185808E+02  0.11762093935E+02  0.54661788890E+02  0.66504492056E+02  0.00000000000E+00 0. -1.
         11    1    3    3    0    0 -0.66003883394E+02 -0.34094926877E+02 -0.21229512629E+02  0.77263632249E+02  0.00000000000E+00 0.  1.
</event>
<event>
 7    1  0.6988825E-006  0.1973587E+03  0.7561462E-02  0.1151987E+00
          2   -1    0    0  501    0  0.00000000000E+00  0.00000000000E+00  0.18358440910E+04  0.18358440910E+04  0.00000000000E+00 0. -1.
         -2   -1    0    0    0  501 -0.00000000000E+00 -0.00000000000E+00 -0.26607502770E+02  0.26607502770E+02  0.00000000000E+00 0.  1.
         23    2    1    2    0    0 -0.15163270889E+03 -0.93023291634E+02  0.56136960529E+03  0.59577582509E+03  0.90372500366E+02 0.  0.
          5    1    1    2  502    0  0.48362804359E+01  0.52467388885E+02  0.54104438194E+03  0.54362000712E+03  0.41800000000E+01 0. -1.
         -5    1    1    2    0  502  0.14679642845E+03  0.40555902749E+02  0.70682260098E+03  0.72305576155E+03  0.41800000000E+01 0. -1.
        -11    1    3    3    0    0 -0.11099343256E+03 -0.30795454306E+02  0.24403126066E+03  0.26985025154E+03  0.00000000000E+00 0.  1.
         11    1    3    3    0    0 -0.40639276333E+02 -0.62227837328E+02  0.31733834463E+03  0.32592557354E+03  0.00000000000E+00 0. -1.
</event>
<event>
 7    1  0.6988825E-006  0.1257951E+03  0.7561462E-02  0.1233832E+00
          2   -1    0    0  501    0  0.00000000000E+00  0.00000000000E+00  0.12279203617E+04  0.12279203617E+04  0.00000000000E+00 0. -1.
         -2   -1    0    0    0  501 -0.00000000000E+00 -0.00000000000E+00 -0.16656055595E+02  0.16656055595E+02  0.00000000000E+00 0.  1.
         23    2    1    2    0    0 -0.87066654271E+02  0.68533712788E+01  0.43608353526E+03  0.45452553576E+03  0.93792547408E+02 0.  0.
          5    1    1    2  502    0 -0.31753352101E+02 -0.81945778074E+01  0.14138557072E+03  0.14519909946E+03  0.41800000000E+01 0. -1.
         -5    1    1    2    0  502  0.11882000637E+03  0.13412065286E+01  0.63379520013E+03  0.64485178208E+03  0.41800000000E+01 0. -1.
        -11    1    3    3    0    0 -0.15852643680E+02  0.21711192116E+02  0.23897453275E+02  0.35969020668E+02  0.00000000000E+00 0.  1.
         11    1    3    3    0    0 -0.71214010591E+02 -0.14857820837E+02  0.41218608198E+03  0.41855651509E+03  0.00000000000E+00 0. -1.
</event>
<event>
 7    1  0.6988825E-006  0.1474775E+03  0.7561462E-02  0.1203607E+00
         -2   -1    0    0    0  501 -0.00000000000E+00  0.00000000000E+00  0.24056596296E+03  0.24056596296E+03  0.00000000000E+00 0.  1.
          2   -1    0    0  501    0  0.00000000000E+00 -0.00000000000E+00 -0.11202403529E+03  0.11202403529E+03  0.00000000000E+00 0. -1.
         23    2    1    2    0    0  0.49406207303E+02 -0.94062675140E+02  0.12467148984E+03  0.18842129634E+03  0.93117368751E+02 0.  0.
          5    1    1    2  502    0 -0.61532810288E+02  0.11714052259E+03  0.18995528495E+02  0.13374038761E+03  0.41800000000E+01 0. -1.
         -5    1    1    2    0  502  0.12126602984E+02 -0.23077847454E+02 -0.15125090665E+02  0.30428314292E+02  0.41800000000E+01 0. -1.
        -11    1    3    3    0    0  0.36748850999E+02  0.42948794781E+01  0.13348393471E+02  0.39333238460E+02  0.00000000000E+00 0. -1.
         11    1    3    3    0    0  0.12657356304E+02 -0.98357554618E+02  0.11132309637E+03  0.14908805788E+03  0.00000000000E+00 0.  1.
</event>
<event>
 7    1  0.6988825E-006  0.9578493E+02  0.7561462E-02  0.1289418E+00
         -2   -1    0    0    0  501 -0.00000000000E+00  0.00000000000E+00  0.84268027114E+02  0.84268027114E+02  0.00000000000E+00 0.  1.
          2   -1    0    0  501    0  0.00000000000E+00 -0.00000000000E+00 -0.16694586806E+03  0.16694586806E+03  0.00000000000E+00 0. -1.
         23    2    1    2    0    0 -0.89759904091E+01  0.29394082740E+02 -0.11328437119E+02  0.10396054240E+03  0.98665497434E+02 0.  0.
          5    1    1    2  502    0  0.61132943834E+02  0.11572700315E+02 -0.34731463232E+02  0.71378646335E+02  0.41800000000E+01 0.  1.
         -5    1    1    2    0  502 -0.52156953425E+02 -0.40966783055E+02 -0.36617940595E+02  0.75874706443E+02  0.41800000000E+01 0.  1.
        -11    1    3    3    0    0 -0.32531317057E+01 -0.16342923728E+02  0.34902994199E+02  0.38676776312E+02  0.00000000000E+00 0.  1.
         11    1    3    3    0    0 -0.57228587034E+01  0.45737006468E+02 -0.46231431318E+02  0.65283766084E+02  0.00000000000E+00 0. -1.
</event>
<event>
 7    1  0.6988825E-006  0.1058992E+03  0.7561462E-02  0.1268358E+00
          1   -1    0    0  501    0  0.00000000000E+00  0.00000000000E+00  0.25878413007E+03  0.25878413007E+03  0.00000000000E+00 0. -1.
         -1   -1    0    0    0  501 -0.00000000000E+00 -0.00000000000E+00 -0.18285096016E+03  0.18285096016E+03  0.00000000000E+00 0.  1.
         23    2    1    2    0    0  0.49277221237E+02 -0.81059749841E+02 -0.12857139058E+03  0.18382019129E+03  0.90886372310E+02 0.  0.
          5    1    1    2  502    0  0.81384471452E+01  0.30974329906E+01  0.14236246132E+03  0.14268977261E+03  0.41800000000E+01 0. -1.
         -5    1    1    2    0  502 -0.57415668382E+02  0.77962316850E+02  0.62142099172E+02  0.11512512634E+03  0.41800000000E+01 0. -1.
        -11    1    3    3    0    0 -0.84211885931E+01 -0.17264888976E+02  0.92801956749E+01  0.21333420739E+02  0.00000000000E+00 0. -1.
         11    1    3    3    0    0  0.57698409830E+02 -0.63794860865E+02 -0.13785158626E+03  0.16248677055E+03  0.00000000000E+00 0.  1.
</event>
<event>
 7    1  0.6988825E-006  0.9704139E+02  0.7561462E-02  0.1286643E+00
          2   -1    0    0  501    0  0.00000000000E+00  0.00000000000E+00  0.11908790758E+03  0.11908790758E+03  0.00000000000E+00 0. -1.
         -2   -1    0    0    0  501 -0.00000000000E+00 -0.00000000000E+00 -0.15322616631E+03  0.15322616631E+03  0.00000000000E+00 0.  1.
         23    2    1    2    0    0  0.15922537628E+02 -0.60635111425E+02  0.34546454937E+02  0.11644497048E+03  0.91846772718E+02 0.  0.
          5    1    1    2  502    0  0.38215049555E+02 -0.11272314984E+02 -0.49611347281E+02  0.63766866606E+02  0.41800000000E+01 0. -1.
         -5    1    1    2    0  502 -0.54137587183E+02  0.71907426409E+02 -0.19073366391E+02  0.92102236803E+02  0.41800000000E+01 0. -1.
        -11    1    3    3    0    0  0.17947133076E+01 -0.31344242063E+02  0.64814818773E+02  0.72018353487E+02  0.00000000000E+00 0. -1.
         11    1    3    3    0    0  0.14127824320E+02 -0.29290869362E+02 -0.30268363835E+02  0.44426616991E+02  0.00000000000E+00 0.  1.
</event>
<event>
 7    1  0.1922208E-005  0.1724136E+03  0.7561462E-02  0.1175354E+00
          1   -1    0    0  501    0  0.00000000000E+00  0.00000000000E+00  0.42821663091E+03  0.42821663091E+03  0.00000000000E+00 0. -1.
         -1   -1    0    0    0  501 -0.00000000000E+00 -0.00000000000E+00 -0.83441917210E+02  0.83441917210E+02  0.00000000000E+00 0.  1.
         23    2    1    2    0    0 -0.12521022842E+03  0.94703093423E+02  0.14266568266E+03  0.22680445393E+03  0.80252639255E+02 0.  0.
          5    1    1    2  502    0  0.79093094876E+02 -0.17427283850E+02  0.17150036785E+03  0.18970839848E+03  0.41800000000E+01 0. -1.
         -5    1    1    2    0  502  0.46117133547E+02 -0.77275809573E+02  0.30608663197E+02  0.95145695722E+02  0.41800000000E+01 0. -1.
        -11    1    3    3    0    0 -0.30695783398E+01  0.39476110104E+02  0.17088516892E+02  0.43125433211E+02  0.00000000000E+00 0. -1.
         11    1    3    3    0    0 -0.12214065008E+03  0.55226983319E+02  0.12557716576E+03  0.18367902071E+03  0.00000000000E+00 0.  1.
</event>
<event>
 7    1  0.6988825E-006  0.1536637E+03  0.7561462E-02  0.1196042E+00
          4   -1    0    0  501    0  0.00000000000E+00  0.00000000000E+00  0.16281440767E+04  0.16281440767E+04  0.00000000000E+00 0. -1.
         -4   -1    0    0    0  501 -0.00000000000E+00 -0.00000000000E+00 -0.16231276455E+02  0.16231276455E+02  0.00000000000E+00 0.  1.
         23    2    1    2    0    0  0.18562879338E+02  0.11182164891E+03  0.53298167800E+03  0.55231875447E+03  0.90210175715E+02 0.  0.
          5    1    1    2  502    0 -0.38431563922E+02 -0.13052495873E+03  0.77412888920E+03  0.78600684440E+03  0.41800000000E+01 0. -1.
         -5    1    1    2    0  502  0.19868684584E+02  0.18703309819E+02  0.30480223302E+03  0.30604975426E+03  0.41800000000E+01 0. -1.
        -11    1    3    3    0    0 -0.10278231665E+02 -0.12377636851E+02  0.86702015841E+02  0.88182126823E+02  0.00000000000E+00 0. -1.
         11    1    3    3    0    0  0.28841111003E+02  0.12419928576E+03  0.44627966216E+03  0.46413662765E+03  0.00000000000E+00 0.  1.
</event>
<event>
 7    1  0.6988825E-006  0.1851417E+03  0.7561462E-02  0.1162918E+00
          2   -1    0    0  501    0  0.00000000000E+00  0.00000000000E+00  0.22588640730E+03  0.22588640730E+03  0.00000000000E+00 0.  1.
         -2   -1    0    0    0  501 -0.00000000000E+00 -0.00000000000E+00 -0.16672368390E+03  0.16672368390E+03  0.00000000000E+00 0. -1.
         23    2    1    2    0    0 -0.15990867828E+03  0.42497877964E+01  0.53020932659E+01  0.18252105947E+03  0.87732427697E+02 0.  0.
          5    1    1    2  502    0  0.15492129124E+03 -0.38866144666E+02  0.65945291069E+02  0.17285091118E+03  0.41800000000E+01 0. -1.
         -5    1    1    2    0  502  0.49873870402E+01  0.34616356870E+02 -0.12084660935E+02  0.37238120554E+02  0.41800000000E+01 0. -1.
        -11    1    3    3    0    0 -0.10525530088E+03  0.36999997096E+02 -0.21110229653E+02  0.11354875581E+03  0.00000000000E+00 0. -1.
         11    1    3    3    0    0 -0.54653377397E+02 -0.32750209299E+02  0.26412322919E+02  0.68972303659E+02  0.00000000000E+00 0.  1.
</event>
<event>
 7    1  0.6988825E-006  0.1028699E+03  0.7561462E-02  0.1274374E+00
         -2   -1    0    0    0  501 -0.00000000000E+00  0.00000000000E+00  0.52820323928E+03  0.52820323928E+03  0.00000000000E+00 0.  1.
          2   -1    0    0  501    0  0.00000000000E+00 -0.00000000000E+00 -0.38276275260E+02  0.38276275260E+02  0.00000000000E+00 0. -1.
         23    2    1    2    0    0 -0.87289389314E+02 -0.26330002476E+02  0.19848663471E+03  0.23648282444E+03  0.90633744163E+02 0.  0.
          5    1    1    2  502    0  0.19265860756E+02  0.40121857360E+02  0.18571355872E+02  0.48407690376E+02  0.41800000000E+01 0.  1.
         -5    1    1    2    0  502  0.68023528559E+02 -0.13791854884E+02  0.27286897344E+03  0.28158899972E+03  0.41800000000E+01 0.  1.
        -11    1    3    3    0    0 -0.47316483299E+02 -0.18295756474E+02  0.21909344481E+02  0.55259421571E+02  0.00000000000E+00 0. -1.
         11    1    3    3    0    0 -0.39972906015E+02 -0.80342460023E+01  0.17657729023E+03  0.18122340287E+03  0.00000000000E+00 0.  1.
</event>
<event>
 7    1  0.6988825E-006  0.1066608E+03  0.7561462E-02  0.1266882E+00
          2   -1    0    0  501    0  0.00000000000E+00  0.00000000000E+00  0.25441022966E+03  0.25441022966E+03  0.00000000000E+00 0. -1.
         -2   -1    0    0    0  501 -0.00000000000E+00 -0.00000000000E+00 -0.93906229872E+02  0.93906229872E+02  0.00000000000E+00 0.  1.
         23    2    1    2    0    0 -0.81529727105E+02  0.21781085246E+02 -0.45220488032E+01  0.12470520595E+03  0.91702930099E+02 0.  0.
          5    1    1    2  502    0  0.30195168715E+02 -0.58077740104E+02  0.14219377567E+03  0.15659282981E+03  0.41800000000E+01 0. -1.
         -5    1    1    2    0  502  0.51334558390E+02  0.36296654858E+02  0.22832272930E+02  0.67018423781E+02  0.41800000000E+01 0. -1.
        -11    1    3    3    0    0 -0.33895118308E+02  0.12891365541E+02 -0.47619545156E+02  0.59855554726E+02  0.00000000000E+00 0.  1.
         11    1    3    3    0    0 -0.47634608796E+02  0.88897197052E+01  0.43097496353E+02  0.64849651221E+02  0.00000000000E+00 0. -1.
</event>
<event>
 7    1  0.6988825E-006  0.1434806E+03  0.7561462E-02  0.1208721E+00
         -1   -1    0    0    0  501 -0.00000000000E+00  0.00000000000E+00  0.51515666972E+02  0.51515666972E+02  0.00000000000E+00 0.  1.
          1   -1    0    0  501    0  0.00000000000E+00 -0.00000000000E+00 -0.80786170757E+03  0.80786170757E+03  0.00000000000E+00 0. -1.
         23    2    1    2    0    0  0.11221455186E+03 -0.51799018541E+02 -0.11021004858E+03  0.18973862001E+03  0.92624214668E+02 0.  0.
          5    1    1    2  502    0 -0.10664654789E+03  0.81738010518E+01 -0.26276630962E+03  0.28373209736E+03  0.41800000000E+01 0. -1.
         -5    1    1    2    0  502 -0.55680039687E+01  0.43625217489E+02 -0.38336968240E+03  0.38590665717E+03  0.41800000000E+01 0. -1.
        -11    1    3    3    0    0  0.42534436313E+02 -0.50533168122E+02 -0.87203089356E+01  0.66624493551E+02  0.00000000000E+00 0.  1.
         11    1    3    3    0    0  0.69680115549E+02 -0.12658504185E+01 -0.10148973964E+03  0.12311412646E+03  0.00000000000E+00 0. -1.
</event>
<event>
 7    1  0.6988825E-006  0.1031934E+03  0.7561462E-02  0.1273721E+00
         -1   -1    0    0    0  501 -0.00000000000E+00  0.00000000000E+00  0.21559956151E+02  0.21559956151E+02  0.00000000000E+00 0.  1.
          1   -1    0    0  501    0  0.00000000000E+00 -0.00000000000E+00 -0.12439073930E+04  0.12439073930E+04  0.00000000000E+00 0. -1.
         23    2    1    2    0    0  0.38269465856E+02  0.23230188811E+00 -0.11967998761E+03  0.15506748011E+03  0.90873637381E+02 0.  0.
          5    1    1    2  502    0 -0.78941445846E+02  0.19340555379E+02 -0.56593783405E+03  0.57175948909E+03  0.41800000000E+01 0.  1.
         -5    1    1    2    0  502  0.40671979990E+02 -0.19572857267E+02 -0.53672961518E+03  0.53864037995E+03  0.41800000000E+01 0.  1.
        -11    1    3    3    0    0  0.17780261310E+02 -0.34805869464E+02 -0.13428031201E+02  0.41326725776E+02  0.00000000000E+00 0.  1.
         11    1    3    3    0    0  0.20489204547E+02  0.35038171352E+02 -0.10625195641E+03  0.11374075433E+03  0.00000000000E+00 0. -1.
</event>
<event>
 7    1  0.6988825E-006  0.9778892E+02  0.7561462E-02  0.1285015E+00
          2   -1    0    0  501    0  0.00000000000E+00  0.00000000000E+00  0.23260932443E+03  0.23260932443E+03  0.00000000000E+00 0. -1.
         -2   -1    0    0    0  501 -0.00000000000E+00 -0.00000000000E+00 -0.64463592256E+02  0.64463592256E+02  0.00000000000E+00 0.  1.
         23    2    1    2    0    0 -0.36546588664E+02 -0.38031738411E+02  0.31820936218E+02  0.10468457880E+03  0.84641731954E+02 0.  0.
          5    1    1    2  502    0 -0.31030393923E+02  0.18446296757E+02  0.11212589031E+03  0.11786788743E+03  0.41800000000E+01 0. -1.
         -5    1    1    2    0  502  0.67576982587E+02  0.19585441654E+02  0.24198905649E+02  0.74520450448E+02  0.41800000000E+01 0. -1.
        -11    1    3    3    0    0 -0.35456930008E+02  0.12960632950E+02 -0.96307364361E+01  0.38960531007E+02  0.00000000000E+00 0. -1.
         11    1    3    3    0    0 -0.10896586556E+01 -0.50992371361E+02  0.41451672654E+02  0.65724047797E+02  0.00000000000E+00 0.  1.
</event>
<event>
 7    1  0.6988825E-006  0.4677713E+02  0.7561462E-02  0.1463543E+00
         -2   -1    0    0    0  501 -0.00000000000E+00  0.00000000000E+00  0.20593525821E+02  0.20593525821E+02  0.00000000000E+00 0.  1.
          2   -1    0    0  501    0  0.00000000000E+00 -0.00000000000E+00 -0.59354536968E+03  0.59354536968E+03  0.00000000000E+00 0. -1.
         23    2    1    2    0    0 -0.89319205126E+01  0.11887078549E+02 -0.19771498093E+03  0.21832169792E+03  0.91389650713E+02 0.  0.
          5    1    1    2  502    0  0.27146624542E+01  0.31051058028E+01 -0.37866484549E+03  0.37871037573E+03  0.41800000000E+01 0.  1.
         -5    1    1    2    0  502  0.62172580585E+01 -0.14992184352E+02  0.34279825639E+01  0.17106821851E+02  0.41800000000E+01 0.  1.
        -11    1    3    3    0    0 -0.32297185829E+02  0.27831951999E+02 -0.17992024633E+03  0.18490273336E+03  0.00000000000E+00 0. -1.
         11    1    3    3    0    0  0.23365265316E+02 -0.15944873450E+02 -0.17794734598E+02  0.33418964557E+02  0.00000000000E+00 0.  1.
</event>
<event>
 7    1  0.6988825E-006  0.7334329E+02  0.7561462E-02  0.1349079E+00
          1   -1    0    0  501    0  0.00000000000E+00  0.00000000000E+00  0.65985035429E+03  0.65985035429E+03  0.00000000000E+00 0. -1.
         -1   -1    0    0    0  501 -0.00000000000E+00 -0.00000000000E+00 -0.19644287322E+02  0.19644287322E+02  0.00000000000E+00 0.  1.
         23    2    1    2    0    0  0.32339009938E+02 -0.30179050625E+01  0.25304586712E+03  0.27132561393E+03  0.92360481796E+02 0.  0.
          5    1    1    2  502    0  0.15047787388E+01  0.20400741378E+02  0.36146672893E+03  0.36206922422E+03  0.41800000000E+01 0. -1.
         -5    1    1    2    0  502 -0.33843788677E+02 -0.17382836316E+02  0.25693470926E+02  0.46099803455E+02  0.41800000000E+01 0. -1.
        -11    1    3    3    0    0 -0.12017080192E+02  0.29946619114E+02  0.40881042980E+02  0.52081377553E+02  0.00000000000E+00 0.  1.
         11    1    3    3    0    0  0.44356090130E+02 -0.32964524176E+02  0.21216482414E+03  0.21924423638E+03  0.00000000000E+00 0. -1.
</event>
<event>
 7    1  0.6988825E-006  0.1076993E+03  0.7561462E-02  0.1264891E+00
          2   -1    0    0  501    0  0.00000000000E+00  0.00000000000E+00  0.22835468336E+04  0.22835468336E+04  0.00000000000E+00 0. -1.
         -2   -1    0    0    0  501 -0.00000000000E+00 -0.00000000000E+00 -0.98018570733E+01  0.98018570733E+01  0.00000000000E+00 0.  1.
         23    2    1    2    0    0 -0.92978904947E+01 -0.28724929791E+02  0.28758561265E+03  0.30302479396E+03  0.90592321952E+02 0.  0.
          5    1    1    2  502    0  0.56498641968E+02 -0.16450788022E+02  0.69218830034E+03  0.69469766122E+03  0.41800000000E+01 0. -1.
         -5    1    1    2    0  502 -0.47200751473E+02  0.45175717814E+02  0.12939710636E+04  0.12956262355E+04  0.41800000000E+01 0. -1.
        -11    1    3    3    0    0 -0.28940526375E+02  0.22121892951E+02  0.72463656569E+02  0.81104338589E+02  0.00000000000E+00 0. -1.
         11    1    3    3    0    0  0.19642635880E+02 -0.50846822743E+02  0.21512195608E+03  0.22192045538E+03  0.00000000000E+00 0.  1.
</event>
<event>
 7    1  0.6988825E-006  0.8465826E+02  0.7561462E-02  0.1316329E+00
         -1   -1    0    0    0  501 -0.00000000000E+00  0.00000000000E+00  0.13350544653E+03  0.13350544653E+03  0.00000000000E+00 0.  1.
          1   -1    0    0  501    0  0.00000000000E+00 -0.00000000000E+00 -0.10297142259E+03  0.10297142259E+03  0.00000000000E+00 0. -1.
         23    2    1    2    0    0 -0.19474729481E+02 -0.18630797162E+02  0.42104729571E+02  0.10804605838E+03  0.95785023821E+02 0.  0.
          5    1    1    2  502    0  0.57475623724E+02 -0.29207311847E+02 -0.17422645271E+02  0.66914388259E+02  0.41800000000E+01 0.  1.
         -5    1    1    2    0  502 -0.38000894243E+02  0.47838109009E+02  0.58519396415E+01  0.61516422477E+02  0.41800000000E+01 0.  1.
        -11    1    3    3    0    0 -0.41184707687E+01  0.10093399909E+02 -0.28378797717E+02  0.30400570439E+02  0.00000000000E+00 0. -1.
         11    1    3    3    0    0 -0.15356258713E+02 -0.28724197071E+02  0.70483527287E+02  0.77645487943E+02  0.00000000000E+00 0.  1.
</event>
<event>
 7    1  0.6988825E-006  0.1035571E+03  0.7561462E-02  0.1272989E+00
         -1   -1    0    0    0  501 -0.00000000000E+00  0.00000000000E+00  0.43865713223E+02  0.43865713223E+02  0.00000000000E+00 0.  1.
          1   -1    0    0  501    0  0.00000000000E+00 -0.00000000000E+00 -0.30266410892E+03  0.30266410892E+03  0.00000000000E+00 0. -1.
         23    2    1    2    0    0 -0.42590885414E+02  0.23429747960E+02 -0.10246971653E+03  0.14049908626E+03  0.82927762685E+02 0.  0.
          5    1    1    2  502    0  0.23943607531E+02 -0.66617327115E+02 -0.42206907990E+02  0.82523088258E+02  0.41800000000E+01 0.  1.
         -5    1    1    2    0  502  0.18647277883E+02  0.43187579155E+02 -0.11412177118E+03  0.12350764763E+03  0.41800000000E+01 0.  1.
        -11    1    3    3    0    0 -0.59800197843E+02 -0.12817933586E+00 -0.41143175388E+02  0.72586782357E+02  0.00000000000E+00 0.  1.
         11    1    3    3    0    0  0.17209312429E+02  0.23557927295E+02 -0.61326541138E+02  0.67912303898E+02  0.00000000000E+00 0. -1.
</event>
<event>
 7    1  0.6988825E-006  0.1307793E+03  0.7561462E-02  0.1226304E+00
          1   -1    0    0  501    0  0.00000000000E+00  0.00000000000E+00  0.58813226846E+03  0.58813226846E+03  0.00000000000E+00 0. -1.
         -1   -1    0    0    0  501 -0.00000000000E+00 -0.00000000000E+00 -0.49885825766E+02  0.49885825766E+02  0.00000000000E+00 0.  1.
         23    2    1    2    0    0 -0.12669742590E+03  0.11947588498E+02  0.18274211218E+03  0.24024189856E+03  0.90147144500E+02 0.  0.
          5    1    1    2  502    0  0.11800393043E+03 -0.18503361469E+01  0.14588354050E+03  0.18769078595E+03  0.41800000000E+01 0.  1.
         -5    1    1    2    0  502  0.86934954607E+01 -0.10097252351E+02  0.20962079002E+03  0.21008540972E+03  0.41800000000E+01 0.  1.
        -11    1    3    3    0    0 -0.11927500991E+03  0.50697961527E+01  0.19228612892E+03  0.22633202645E+03  0.00000000000E+00 0. -1.
         11    1    3    3    0    0 -0.74224159853E+01  0.68777923450E+01 -0.95440167409E+01  0.13909872111E+02  0.00000000000E+00 0.  1.
</event>
<event>
 7    1  0.6988825E-006  0.8646280E+02  0.7561462E-02  0.1311651E+00
          1   -1    0    0  501    0  0.00000000000E+00  0.00000000000E+00  0.34393994601E+02  0.34393994601E+02  0.00000000000E+00 0. -1.
         -1   -1    0    0    0  501 -0.00000000000E+00 -0.00000000000E+00 -0.43588711217E+03  0.43588711217E+03  0.00000000000E+00 0.  1.
         23    2    1    2    0    0 -0.18994454686E+02 -0.53116161273E+02 -0.17428789980E+03  0.20485385570E+03  0.91688135987E+02 0.  0.
          5    1    1    2  502    0 -0.16282754477E+02 -0.76747554073E+01  0.78316020794E+01  0.20070783618E+02  0.41800000000E+01 0. -1.
         -5    1    1    2    0  502  0.35277209163E+02  0.60790916681E+02 -0.23503681985E+03  0.24535646746E+03  0.41800000000E+01 0. -1.
        -11    1    3    3    0    0  0.14432244552E+02 -0.48120855061E+02 -0.16079784888E+03  0.16846321432E+03  0.00000000000E+00 0.  1.
         11    1    3    3    0    0 -0.33426699238E+02 -0.49953062119E+01 -0.13490050918E+02  0.36390641377E+02  0.00000000000E+00 0. -1.
</event>
<event>
 7    1  0.9460129E-006  0.1540302E+03  0.7561462E-02  0.1195606E+00
         -2   -1    0    0    0  501 -0.00000000000E+00  0.00000000000E+00  0.27110031447E+02  0.27110031447E+02  0.00000000000E+00 0.  1.
          2   -1    0    0  501    0  0.00000000000E+00 -0.00000000000E+00 -0.10994063157E+04  0.10994063157E+04  0.00000000000E+00 0. -1.
         23    2    1    2    0    0  0.12713481656E+03 -0.38374342710E+02 -0.39035873154E+03  0.42059698270E+03  0.82982111352E+02 0.  0.
          5    1    1    2  502    0  0.70546966845E+01 -0.25060294834E+02 -0.47405124479E+02  0.54244864728E+02  0.41800000000E+01 0. -1.
         -5    1    1    2    0  502 -0.13418951325E+03  0.63434637545E+02 -0.63453242822E+03  0.65167449970E+03  0.41800000000E+01 0. -1.
        -11    1    3    3    0    0  0.10814220319E+03 -0.36433110902E+02 -0.38380750701E+03  0.40041267477E+03  0.00000000000E+00 0. -1.
         11    1    3    3    0    0  0.18992613375E+02 -0.19412318081E+01 -0.65512245338E+01  0.20184307931E+02  0.00000000000E+00 0.  1.
</event>
<event>
 7    1  0.6988825E-006  0.1134745E+03  0.7561462E-02  0.1254268E+00
         -2   -1    0    0    0  501 -0.00000000000E+00  0.00000000000E+00  0.14034687492E+02  0.14034687492E+02  0.00000000000E+00 0.  1.
          2   -1    0    0  501    0  0.00000000000E+00 -0.00000000000E+00 -0.16369150363E+04  0.16369150363E+04  0.00000000000E+00 0. -1.
         23    2    1    2    0    0 -0.50286943549E+02  0.44128920834E+02 -0.36578236042E+03  0.38587279363E+03  0.10307734629E+03 0.  0.
          5    1    1    2  502    0 -0.17144788854E+02 -0.32499819613E+02 -0.93656087232E+03  0.93729073505E+03  0.41800000000E+01 0. -1.
         -5    1    1    2    0  502  0.67431732402E+02 -0.11629101221E+02 -0.32053711611E+03  0.32778619516E+03  0.41800000000E+01 0. -1.
        -11    1    3    3    0    0 -0.42053864392E+02 -0.26891287147E+02 -0.18049055621E+03  0.18726587974E+03  0.00000000000E+00 0. -1.
         11    1    3    3    0    0 -0.82330791570E+01  0.71020207981E+02 -0.18529180422E+03  0.19860691389E+03  0.00000000000E+00 0.  1.
</event>
<event>
 7    1  0.6988825E-006  0.1099748E+03  0.7561462E-02  0.1260617E+00
         -1   -1    0    0    0  501 -0.00000000000E+00  0.00000000000E+00  0.13421840565E+03  0.13421840565E+03  0.00000000000E+00 0.  1.
          1   -1    0    0  501    0  0.00000000000E+00 -0.00000000000E+00 -0.17519982948E+03  0.17519982948E+03  0.00000000000E+00 0. -1.
         23    2    1    2    0    0 -0.15324888125E+02  0.48023414028E+02  0.58862457960E+02  0.11852079516E+03  0.89673237022E+02 0.  0.
          5    1    1    2  502    0 -0.34649310982E+02 -0.66195619544E+02  0.31630856550E+01  0.74899347856E+02  0.41800000000E+01 0. -1.
         -5    1    1    2    0  502  0.49974199107E+02  0.18172205516E+02 -0.10300696744E+03  0.11599809210E+03  0.41800000000E+01 0.  1.
        -11    1    3    3    0    0 -0.44373280155E+02  0.43932426948E+02  0.63226371863E+02  0.88862929438E+02  0.00000000000E+00 0.  1.
         11    1    3    3    0    0  0.29048392030E+02  0.40909870800E+01 -0.43639139023E+01  0.29657865725E+02  0.00000000000E+00 0. -1.
</event>
<event>
 7    1  0.6988825E-006  0.1215920E+03  0.7561462E-02  0.1240494E+00
          2   -1    0    0  501    0  0.00000000000E+00  0.00000000000E+00  0.46229535422E+02  0.46229535422E+02  0.00000000000E+00 0.  1.
         -2   -1    0    0    0  501 -0.00000000000E+00 -0.00000000000E+00 -0.39445153878E+03  0.39445153878E+03  0.00000000000E+00 0. -1.
         23    2    1    2    0    0 -0.76133124738E+02  0.21962444591E+02 -0.18173905567E+03  0.21787548254E+03  0.90344008572E+02 0.  0.
          5    1    1    2  502    0  0.98029037370E+02 -0.24380151983E+02 -0.68095804132E+02  0.12189583635E+03  0.41800000000E+01 0.  1.
         -5    1    1    2    0  502 -0.21895912632E+02  0.24177073920E+01 -0.98387143564E+02  0.10090975532E+03  0.41800000000E+01 0.  1.
        -11    1    3    3    0    0 -0.96637414159E+02  0.22199623561E+02 -0.15766361535E+03  0.18625098310E+03  0.00000000000E+00 0.  1.
         11    1    3    3    0    0  0.20504289421E+02 -0.23717896946E+00 -0.24075440316E+02  0.31624499442E+02  0.00000000000E+00 0. -1.
</event>
<event>
 7    1  0.6988825E-006  0.7579351E+02  0.7561462E-02  0.1341431E+00
         -2   -1    0    0    0  501 -0.00000000000E+00  0.00000000000E+00  0.11578552721E+02  0.11578552721E+02  0.00000000000E+00 0.  1.
          2   -1    0    0  501    0  0.00000000000E+00 -0.00000000000E+00 -0.27366441398E+04  0.27366441398E+04  0.00000000000E+00 0. -1.
         23    2    1    2    0    0  0.39746917045E+01 -0.11538978385E+02 -0.20482537859E+03  0.22485122826E+03  0.91954841835E+02 0.  0.
          5    1    1    2  502    0  0.50763219988E+00 -0.33654114661E+02 -0.21323313060E+03  0.21591363437E+03  0.41800000000E+01 0.  1.
         -5    1    1    2    0  502 -0.44823239043E+01  0.45193093046E+02 -0.23070070779E+04  0.23074578299E+04  0.41800000000E+01 0.  1.
        -11    1    3    3    0    0  0.18026116789E+02 -0.38024901559E+02 -0.18297473718E+03  0.18775140072E+03  0.00000000000E+00 0. -1.
         11    1    3    3    0    0 -0.14051425084E+02  0.26485923174E+02 -0.21850641409E+02  0.37099827537E+02  0.00000000000E+00 0.  1.
</event>
<event>
 7    1  0.7586874E-006  0.1671913E+03  0.7561462E-02  0.1180809E+00
         -2   -1    0    0    0  501 -0.00000000000E+00  0.00000000000E+00  0.83143814323E+02  0.83143814323E+02  0.00000000000E+00 0.  1.
          2   -1    0    0  501    0  0.00000000000E+00 -0.00000000000E+00 -0.40100185185E+03  0.40100185185E+03  0.00000000000E+00 0. -1.
         23    2    1    2    0    0  0.68778236566E+02  0.12991989283E+03 -0.14126610817E+03  0.22253172724E+03  0.89188743306E+02 0.  0.
          5    1    1    2  502    0 -0.78836748807E+02 -0.84058796376E+02 -0.48461937107E+02  0.12508855247E+03  0.41800000000E+01 0.  1.
         -5    1    1    2    0  502  0.10058512240E+02 -0.45861096449E+02 -0.12812999225E+03  0.13652538647E+03  0.41800000000E+01 0.  1.
        -11    1    3    3    0    0 -0.21671066622E+02  0.31747426340E+02 -0.30310682363E+02  0.48951727989E+02  0.00000000000E+00 0.  1.
         11    1    3    3    0    0  0.90449303188E+02  0.98172466485E+02 -0.11095542581E+03  0.17357999925E+03  0.00000000000E+00 0. -1.
</event>
<event>
 7    1  0.6988825E-006  0.1540538E+03  0.7561462E-02  0.1195578E+00
          2   -1    0    0  501    0  0.00000000000E+00  0.00000000000E+00  0.31728315459E+03  0.31728315459E+03  0.00000000000E+00 0.  1.
         -2   -1    0    0    0  501 -0.00000000000E+00 -0.00000000000E+00 -0.10351284618E+03  0.10351284618E+03  0.00000000000E+00 0. -1.
         23    2    1    2    0    0 -0.17172608498E+02 -0.14112352962E+03  0.12926626264E+03  0.21343387898E+03  0.92916655917E+02 0.  0.
          5    1    1    2  502    0  0.29090418229E+02  0.64299295561E+01  0.63753927883E+02  0.70495617930E+02  0.41800000000E+01 0.  1.
         -5    1    1    2    0  502 -0.11917809731E+02  0.13469360006E+03  0.20750117892E+02  0.13686650386E+03  0.41800000000E+01 0.  1.
        -11    1    3    3    0    0 -0.18032432479E+02 -0.10041477090E+03  0.13817047393E+03  0.17175382005E+03  0.00000000000E+00 0.  1.
         11    1    3    3    0    0  0.85982398122E+00 -0.40708758723E+02 -0.89042112923E+01  0.41680058935E+02  0.00000000000E+00 0. -1.
</event>
<event>
 7    1  0.6988825E-006  0.9279619E+02  0.7561462E-02  0.1296218E+00
         -2   -1    0    0    0  501 -0.00000000000E+00  0.00000000000E+00  0.50420417721E+02  0.50420417721E+02  0.00000000000E+00 0.  1.
          2   -1    0    0  501    0  0.00000000000E+00 -0.00000000000E+00 -0.57842082258E+03  0.57842082258E+03  0.00000000000E+00 0. -1.
         23    2    1    2    0    0 -0.17939663884E+02 -0.13970249980E+01 -0.63720524107E+01  0.92246337120E+02  0.90249656183E+02 0.  0.
          5    1    1    2  502    0 -0.34794756661E+02 -0.16269173261E+02 -0.40993148812E+03  0.41174829501E+03  0.41800000000E+01 0. -1.
         -5    1    1    2    0  502  0.52734420544E+02  0.17666198259E+02 -0.11169686432E+03  0.12484660817E+03  0.41800000000E+01 0.  1.
        -11    1    3    3    0    0 -0.32532173879E+02  0.37496797204E+02 -0.96668065718E+01  0.50574690183E+02  0.00000000000E+00 0.  1.
         11    1    3    3    0    0  0.14592509995E+02 -0.38893822202E+02  0.32947541612E+01  0.41671646937E+02  0.00000000000E+00 0. -1.
</event>
<event>
 7    1  0.6988825E-006  0.8325538E+02  0.7561462E-02  0.1320059E+00
          2   -1    0    0  501    0  0.00000000000E+00  0.00000000000E+00  0.27568794386E+03  0.27568794386E+03  0.00000000000E+00 0. -1.
         -2   -1    0    0    0  501 -0.00000000000E+00 -0.00000000000E+00 -0.50521141125E+02  0.50521141125E+02  0.00000000000E+00 0.  1.
         23    2    1    2    0    0 -0.36885909215E+02  0.19015971310E+02  0.12005943500E+03  0.15763483554E+03  0.93339680636E+02 0.  0.
          5    1    1    2  502    0 -0.10792531024E+02 -0.46174541619E+02  0.10304109212E+03  0.11350553328E+03  0.41800000000E+01 0. -1.
         -5    1    1    2    0  502  0.47678440239E+02  0.27158570309E+02  0.20662756169E+01  0.55068716163E+02  0.41800000000E+01 0. -1.
        -11    1    3    3    0    0 -0.40612418250E+02 -0.37720244518E+01  0.12710846527E+03  0.13349216692E+03  0.00000000000E+00 0. -1.
         11    1    3    3    0    0  0.37265090349E+01  0.22787995762E+02 -0.70490302763E+01  0.24142668623E+02  0.00000000000E+00 0.  1.
</event>
<event>
 7    1  0.6988825E-006  0.1223478E+03  0.7561462E-02  0.1239273E+00
          2   -1    0    0  501    0  0.00000000000E+00  0.00000000000E+00  0.14952043321E+04  0.14952043321E+04  0.00000000000E+00 0. -1.
         -2   -1    0    0    0  501 -0.00000000000E+00 -0.00000000000E+00 -0.12628393190E+02  0.12628393190E+02  0.00000000000E+00 0.  1.
         23    2    1    2    0    0 -0.75323643634E+02 -0.27595588528E+02  0.46775461569E+03  0.48218892935E+03  0.85303079003E+02 0.  0.
          5    1    1    2  502    0 -0.14082423329E+02  0.49706730406E+02  0.49537979050E+03  0.49808401192E+03  0.41800000000E+01 0.  1.
         -5    1    1    2    0  502  0.89406066964E+02 -0.22111141878E+02  0.51944153267E+03  0.52755978398E+03  0.41800000000E+01 0.  1.
        -11    1    3    3    0    0 -0.71301107189E+01 -0.31564985604E+02  0.54948714165E+02  0.63769491008E+02  0.00000000000E+00 0.  1.
         11    1    3    3    0    0 -0.68193532915E+02  0.39693970764E+01  0.41280590153E+03  0.41841943834E+03  0.00000000000E+00 0. -1.
</event>
<event>
 7    1  0.6988825E-006  0.8611656E+02  0.7561462E-02  0.1312538E+00
         -2   -1    0    0    0  501 -0.00000000000E+00  0.00000000000E+00  0.85423218289E+02  0.85423218289E+02  0.00000000000E+00 0.  1.
          2   -1    0    0  501    0  0.00000000000E+00 -0.00000000000E+00 -0.19661001985E+03  0.19661001985E+03  0.00000000000E+00 0. -1.
         23    2    1    2    0    0  0.60021847650E+02 -0.17116423553E+02 -0.13129560900E+02  0.11128156229E+03  0.91189947830E+02 0.  0.
          5    1    1    2  502    0 -0.51550599068E+02  0.17108854437E+02  0.15628913164E+02  0.56673737225E+02  0.41800000000E+01 0. -1.
         -5    1    1    2    0  502 -0.84712485818E+01  0.75691165476E-02 -0.11368615383E+03  0.11407793863E+03  0.41800000000E+01 0. -1.
        -11    1    3    3    0    0 -0.20509144876E+02 -0.18713650104E+02  0.62005636158E+01  0.28447718941E+02  0.00000000000E+00 0.  1.
         11    1    3    3    0    0  0.80530992525E+02  0.15972265513E+01 -0.19330124516E+02  0.82833843347E+02  0.00000000000E+00 0. -1.
</event>
<event>
 7    1  0.6988825E-006  0.1101358E+03  0.7561462E-02  0.1260319E+00
         -1   -1    0    0    0  501 -0.00000000000E+00  0.00000000000E+00  0.23729429373E+02  0.23729429373E+02  0.00000000000E+00 0.  1.
          1   -1    0    0  501    0  0.00000000000E+00 -0.00000000000E+00 -0.66732168919E+03  0.66732168919E+03  0.00000000000E+00 0. -1.
         23    2    1    2    0    0 -0.22100910710E+02  0.42180795718E+02 -0.15645009339E+03  0.18585533512E+03  0.88305742099E+02 0.  0.
          5    1    1    2  502    0 -0.24224125756E+02  0.29907772445E+02 -0.25067151058E+03  0.25364337511E+03  0.41800000000E+01 0. -1.
         -5    1    1    2    0  502  0.46325036466E+02 -0.72088568163E+02 -0.23647065584E+03  0.25155240833E+03  0.41800000000E+01 0. -1.
        -11    1    3    3    0    0 -0.52889075803E+02  0.15737695654E+02 -0.61681067938E+02  0.82761606713E+02  0.00000000000E+00 0.  1.
         11    1    3    3    0    0  0.30788165093E+02  0.26443100064E+02 -0.94769025455E+02  0.10309372840E+03  0.00000000000E+00 0. -1.
</event>
<event>
 7    1  0.6988825E-006  0.1844592E+03  0.7561462E-02  0.1163556E+00
         -2   -1    0    0    0  501 -0.00000000000E+00  0.00000000000E+00  0.19515187511E+03  0.19515187511E+03  0.00000000000E+00 0.  1.
          2   -1    0    0  501    0  0.00000000000E+00 -0.00000000000E+00 -0.20320168068E+03  0.20320168068E+03  0.00000000000E+00 0. -1.
         23    2    1    2    0    0  0.97032552808E+02  0.17549304715E+02  0.23885694257E+02  0.13687779974E+03  0.91878785744E+02 0.  0.
          5    1    1    2  502    0  0.68037183899E+02  0.30646075788E+02 -0.47827157268E+02  0.88730771023E+02  0.41800000000E+01 0. -1.
         -5    1    1    2    0  502 -0.16506973671E+03 -0.48195380503E+02  0.15891657436E+02  0.17274498503E+03  0.41800000000E+01 0.  1.
        -11    1    3    3    0    0  0.93154155708E+02 -0.10597989190E+02  0.42470789983E+02  0.10292610020E+03  0.00000000000E+00 0.  1.
         11    1    3    3    0    0  0.38783971001E+01  0.28147293904E+02 -0.18585095726E+02  0.33951699535E+02  0.00000000000E+00 0. -1.
</event>
<event>
 7    1  0.6988825E-006  0.8076908E+02  0.7561462E-02  0.1326883E+00
         -2   -1    0    0    0  501 -0.00000000000E+00  0.00000000000E+00  0.54745061248E+02  0.54745061248E+02  0.00000000000E+00 0.  1.
          2   -1    0    0  501    0  0.00000000000E+00 -0.00000000000E+00 -0.27224214893E+03  0.27224214893E+03  0.00000000000E+00 0. -1.
         23    2    1    2    0    0 -0.25109858145E+02  0.46522942943E+02 -0.11486958275E+03  0.15676775569E+03  0.92661852925E+02 0.  0.
          5    1    1    2  502    0  0.16888415550E+02 -0.41504996841E+02  0.18485233778E+02  0.48652436839E+02  0.41800000000E+01 0.  1.
         -5    1    1    2    0  502  0.82214425945E+01 -0.50179461022E+01 -0.12111273871E+03  0.12156701765E+03  0.41800000000E+01 0.  1.
        -11    1    3    3    0    0 -0.63147921335E+00 -0.27788271723E+02 -0.22842471303E+02  0.35977288761E+02  0.00000000000E+00 0.  1.
         11    1    3    3    0    0 -0.24478378932E+02  0.74311214666E+02 -0.92027111442E+02  0.12079046693E+03  0.00000000000E+00 0. -1.
</event>
<event>
 7    1  0.6988825E-006  0.1551240E+03  0.7561462E-02  0.1194314E+00
         -2   -1    0    0    0  501 -0.00000000000E+00  0.00000000000E+00  0.60168743045E+02  0.60168743045E+02  0.00000000000E+00 0.  1.
          2   -1    0    0  501    0  0.00000000000E+00 -0.00000000000E+00 -0.47162841777E+03  0.47162841777E+03  0.00000000000E+00 0. -1.
         23    2    1    2    0    0 -0.10290949858E+03  0.58434256262E+02 -0.18890812606E+03  0.25040013612E+03  0.11405709481E+03 0.  0.
          5    1    1    2  502    0  0.20910227212E+02  0.22329047052E+02 -0.72495967299E-01  0.30875582585E+02  0.41800000000E+01 0. -1.
         -5    1    1    2    0  502  0.81999271366E+02 -0.80763303314E+02 -0.22247905270E+03  0.25052144211E+03  0.41800000000E+01 0. -1.
        -11    1    3    3    0    0 -0.12520224112E+03  0.64856440239E+02 -0.16589755942E+03  0.21772450308E+03  0.00000000000E+00 0. -1.
         11    1    3    3    0    0  0.22292742545E+02 -0.64221839769E+01 -0.23010566644E+02  0.32675633038E+02  0.00000000000E+00 0.  1.
</event>
<event>
 7    1  0.7873724E-006  0.2529397E+03  0.7561462E-02  0.1111461E+00
          2   -1    0    0  501    0  0.00000000000E+00  0.00000000000E+00  0.91205475475E+03  0.91205475475E+03  0.00000000000E+00 0. -1.
         -2   -1    0    0    0  501 -0.00000000000E+00 -0.00000000000E+00 -0.87420922456E+02  0.87420922456E+02  0.00000000000E+00 0.  1.
         23    2    1    2    0    0 -0.10098249060E+03 -0.21056546137E+03  0.19862808124E+03  0.31972119410E+03  0.90737260112E+02 0.  0.
          5    1    1    2  502    0  0.73675462126E+02  0.21504790457E+03  0.59967857571E+03  0.64133107015E+03  0.41800000000E+01 0.  1.
         -5    1    1    2    0  502  0.27307028475E+02 -0.44824432044E+01  0.26327175349E+02  0.38423412954E+02  0.41800000000E+01 0.  1.
        -11    1    3    3    0    0 -0.98916081531E+01 -0.12554052480E+03  0.99578650144E+02  0.16054337371E+03  0.00000000000E+00 0.  1.
         11    1    3    3    0    0 -0.91090882448E+02 -0.85024936568E+02  0.99049431098E+02  0.15917782039E+03  0.00000000000E+00 0. -1.
</event>
<event>
 7    1  0.6988825E-006  0.9126989E+02  0.7561462E-02  0.1299805E+00
          2   -1    0    0  501    0  0.00000000000E+00  0.00000000000E+00  0.16755953152E+03  0.16755953152E+03  0.00000000000E+00 0. -1.
         -2   -1    0    0    0  501 -0.00000000000E+00 -0.00000000000E+00 -0.15194434864E+03  0.15194434864E+03  0.00000000000E+00 0.  1.
         23    2    1    2    0    0 -0.72650282856E+02  0.23728679764E+02 -0.80622164204E+02  0.14414561983E+03  0.91852667427E+02 0.  0.
          5    1    1    2  502    0  0.60915914954E+02 -0.12625476363E+02 -0.13968430170E+02  0.63896328451E+02  0.41800000000E+01 0.  1.
         -5    1    1    2    0  502  0.11734367902E+02 -0.11103203400E+02  0.11020577726E+03  0.11146193187E+03  0.41800000000E+01 0.  1.
        -11    1    3    3    0    0 -0.52168771364E+02 -0.19478344452E+02 -0.66740006583E+01  0.56085014870E+02  0.00000000000E+00 0. -1.
         11    1    3    3    0    0 -0.20481511493E+02  0.43207024216E+02 -0.73948163545E+02  0.88060604962E+02  0.00000000000E+00 0.  1.
</event>
<event>
 7    1  0.6988825E-006  0.1116048E+03  0.7561462E-02  0.1257627E+00
         -3   -1    0    0    0  501 -0.00000000000E+00  0.00000000000E+00  0.20419362810E+03  0.20419362810E+03  0.00000000000E+00 0.  1.
          3   -1    0    0  501    0  0.00000000000E+00 -0.00000000000E+00 -0.10052887928E+03  0.10052887928E+03  0.00000000000E+00 0. -1.
         23    2    1    2    0    0  0.71906375599E+02 -0.52567092959E+02  0.76182257569E+02  0.14872228680E+03  0.91546469664E+02 0.  0.
          5    1    1    2  502    0 -0.56491522159E+01 -0.27478228336E+02  0.42328055114E+02  0.50951963682E+02  0.41800000000E+01 0. -1.
         -5    1    1    2    0  502 -0.66257223383E+02  0.80045321296E+02 -0.14845563867E+02  0.10504825690E+03  0.41800000000E+01 0. -1.
        -11    1    3    3    0    0  0.24839287784E+02 -0.81643961294E+01 -0.19917408408E+02  0.32868689348E+02  0.00000000000E+00 0. -1.
         11    1    3    3    0    0  0.47067087814E+02 -0.44402696830E+02  0.96099665977E+02  0.11585359745E+03  0.00000000000E+00 0.  1.
</event>
<event>
 7    1  0.6988825E-006  0.1100620E+03  0.7561462E-02  0.1260455E+00
         -2   -1    0    0    0  501 -0.00000000000E+00  0.00000000000E+00  0.28687194632E+02  0.28687194632E+02  0.00000000000E+00 0.  1.
          2   -1    0    0  501    0  0.00000000000E+00 -0.00000000000E+00 -0.45130836661E+03  0.45130836661E+03  0.00000000000E+00 0. -1.
         23    2    1    2    0    0  0.19656119960E+01  0.20508033526E+02 -0.12433657164E+03  0.15588883845E+03  0.91745865509E+02 0.  0.
          5    1    1    2  502    0  0.53300771333E+02  0.20705648786E+02 -0.12303780262E+03  0.13574044861E+03  0.41800000000E+01 0.  1.
         -5    1    1    2    0  502 -0.55266383329E+02 -0.41213682312E+02 -0.17524679773E+03  0.18836627418E+03  0.41800000000E+01 0.  1.
        -11    1    3    3    0    0 -0.37263801626E+02  0.35746206572E+02 -0.62186636517E+02  0.80830439546E+02  0.00000000000E+00 0.  1.
         11    1    3    3    0    0  0.39229413622E+02 -0.15238173047E+02 -0.62149935123E+02  0.75058398908E+02  0.00000000000E+00 0. -1.
</event>
<event>
 7    1  0.6988825E-006  0.9528536E+02  0.7561462E-02  0.1290535E+00
         -2   -1    0    0    0  501 -0.00000000000E+00  0.00000000000E+00  0.59206405974E+02  0.59206405974E+02  0.00000000000E+00 0.  1.
          2   -1    0    0  501    0  0.00000000000E+00 -0.00000000000E+00 -0.24974679368E+03  0.24974679368E+03  0.00000000000E+00 0. -1.
         23    2    1    2    0    0 -0.25901383306E+02 -0.34303579348E+02 -0.37540204196E+02  0.10670569085E+03  0.90162188951E+02 0.  0.
          5    1    1    2  502    0  0.50664825294E+02 -0.31463462532E+02 -0.88280736618E+02  0.10662004903E+03  0.41800000000E+01 0.  1.
         -5    1    1    2    0  502 -0.24763441988E+02  0.65767041879E+02 -0.64719446892E+02  0.95627459773E+02  0.41800000000E+01 0.  1.
        -11    1    3    3    0    0 -0.22307357580E+02  0.33532970417E+01  0.24963837677E+02  0.33646039809E+02  0.00000000000E+00 0.  1.
         11    1    3    3    0    0 -0.35940257258E+01 -0.37656876389E+02 -0.62504041874E+02  0.73059651045E+02  0.00000000000E+00 0. -1.
</event>
<event>
 7    1  0.6988825E-006  0.1939431E+03  0.7561462E-02  0.1154952E+00
          2   -1    0    0  501    0  0.00000000000E+00  0.00000000000E+00  0.36697529758E+03  0.36697529758E+03  0.00000000000E+00 0. -1.
         -2   -1    0    0    0  501 -0.00000000000E+00 -0.00000000000E+00 -0.13044827189E+03  0.13044827189E+03  0.00000000000E+00 0.  1.
         23    2    1    2    0    0 -0.92510859507E+02  0.16528565658E+03  0.11241194564E+03  0.23871589867E+03  0.92039270751E+02 0.  0.
          5    1    1    2  502    0  0.53549487732E+02 -0.10443671477E+03  0.14188561532E+03  0.18418353690E+03  0.41800000000E+01 0. -1.
         -5    1    1    2    0  502  0.38961371775E+02 -0.60848941809E+02 -0.17770535271E+02  0.74524133900E+02  0.41800000000E+01 0. -1.
        -11    1    3    3    0    0 -0.63408037381E+02  0.54765034127E+02  0.84361593894E+01  0.84207820021E+02  0.00000000000E+00 0.  1.
         11    1    3    3    0    0 -0.29102822126E+02  0.11052062245E+03  0.10397578625E+03  0.15450807865E+03  0.00000000000E+00 0. -1.
</event>
<event>
 7    1  0.6988825E-006  0.1544463E+03  0.7561462E-02  0.1195113E+00
         -1   -1    0    0    0  501 -0.00000000000E+00  0.00000000000E+00  0.75037844296E+02  0.75037844296E+02  0.00000000000E+00 0.  1.
          1   -1    0    0  501    0  0.00000000000E+00 -0.00000000000E+00 -0.36494599440E+03  0.36494599440E+03  0.00000000000E+00 0. -1.
         23    2    1    2    0    0 -0.27725504664E+02 -0.10851504134E+03 -0.63991695857E+02  0.15850497878E+03  0.92112286656E+02 0.  0.
          5    1    1    2  502    0 -0.14549490156E+02  0.11992498961E+03 -0.14004214772E+03  0.18499450352E+03  0.41800000000E+01 0. -1.
         -5    1    1    2    0  502  0.42274994820E+02 -0.11409948264E+02 -0.85874306522E+02  0.96484356385E+02  0.41800000000E+01 0. -1.
        -11    1    3    3    0    0 -0.46970318153E+02 -0.11459443642E+03 -0.48267837245E+02  0.13292057688E+03  0.00000000000E+00 0.  1.
         11    1    3    3    0    0  0.19244813489E+02  0.60793950809E+01 -0.15723858612E+02  0.25584401897E+02  0.00000000000E+00 0. -1.
</event>
<event>
 7    1  0.6988825E-006  0.1073701E+03  0.7561462E-02  0.1265519E+00
          1   -1    0    0  501    0  0.00000000000E+00  0.00000000000E+00  0.19942261848E+03  0.19942261848E+03  0.00000000000E+00 0. -1.
         -1   -1    0    0    0  501 -0.00000000000E+00 -0.00000000000E+00 -0.62880324785E+02  0.62880324785E+02  0.00000000000E+00 0.  1.
         23    2    1    2    0    0 -0.18934522713E+01 -0.20608285612E+02  0.35958874066E+02  0.10046339667E+03  0.91496266860E+02 0.  0.
          5    1    1    2  502    0  0.53866207769E+02  0.43437526824E+02  0.47741789100E+02  0.84173261208E+02  0.41800000000E+01 0.  1.
         -5    1    1    2    0  502 -0.51972755498E+02 -0.22829241211E+02  0.52841630526E+02  0.77666285382E+02  0.41800000000E+01 0.  1.
        -11    1    3    3    0    0  0.20385416704E+02 -0.48610992371E+02  0.46516955962E+01  0.52917218988E+02  0.00000000000E+00 0.  1.
         11    1    3    3    0    0 -0.22278868976E+02  0.28002706758E+02  0.31307178470E+02  0.47546177684E+02  0.00000000000E+00 0. -1.
</event>
<event>
 7    1  0.6988825E-006  0.1083078E+03  0.7561462E-02  0.1263736E+00
         -1   -1    0    0    0  501 -0.00000000000E+00  0.00000000000E+00  0.18328733498E+02  0.18328733498E+02  0.00000000000E+00 0.  1.
          1   -1    0    0  501    0  0.00000000000E+00 -0.00000000000E+00 -0.80493891875E+03  0.80493891875E+03  0.00000000000E+00 0. -1.
         23    2    1    2    0    0 -0.46320143570E+02  0.36746631505E+02 -0.29642202586E+03  0.31393126902E+03  0.84799490749E+02 0.  0.
          5    1    1    2  502    0  0.77905709572E+02 -0.33315733850E+02 -0.45004805374E+03  0.45797375556E+03  0.41800000000E+01 0.  1.
         -5    1    1    2    0  502 -0.31585566002E+02 -0.34308976545E+01 -0.40140105654E+02  0.51362627662E+02  0.41800000000E+01 0.  1.
        -11    1    3    3    0    0  0.22937063219E+02  0.13844611771E+02 -0.12131281168E+03  0.12423598682E+03  0.00000000000E+00 0. -1.
         11    1    3    3    0    0 -0.69257206789E+02  0.22902019734E+02 -0.17510921417E+03  0.18969528220E+03  0.00000000000E+00 0.  1.
</event>
<event>
 7    1  0.6988825E-006  0.1475855E+03  0.7561462E-02  0.1203472E+00
         -2   -1    0    0    0  501 -0.00000000000E+00  0.00000000000E+00  0.27984183481E+02  0.27984183481E+02  0.00000000000E+00 0.  1.
          2   -1    0    0  501    0  0.00000000000E+00 -0.00000000000E+00 -0.12281682587E+04  0.12281682587E+04  0.00000000000E+00 0. -1.
         23    2    1    2    0    0 -0.13877357376E+03  0.35788075526E+02 -0.42658268849E+03  0.45950511448E+03  0.92915386176E+02 0.  0.
          5    1    1    2  502    0  0.24352354037E+02 -0.26056621951E+02 -0.38610044053E+02  0.52727531673E+02  0.41800000000E+01 0.  1.
         -5    1    1    2    0  502  0.11442121973E+03 -0.97314535746E+01 -0.73499134271E+03  0.74391979606E+03  0.41800000000E+01 0.  1.
        -11    1    3    3    0    0 -0.71863036501E+02  0.96110964849E+01 -0.91175841341E+02  0.11648906917E+03  0.00000000000E+00 0.  1.
         11    1    3    3    0    0 -0.66910537263E+02  0.26176979041E+02 -0.33540684715E+03  0.34301604531E+03  0.00000000000E+00 0. -1.
</event>
<event>
 7    1  0.6988825E-006  0.1057232E+03  0.7561462E-02  0.1268701E+00
         -1   -1    0    0    0  501 -0.00000000000E+00  0.00000000000E+00  0.30082962225E+02  0.30082962225E+02  0.00000000000E+00 0.  1.
          1   -1    0    0  501    0  0.00000000000E+00 -0.00000000000E+00 -0.51781368223E+03  0.51781368223E+03  0.00000000000E+00 0. -1.
         23    2    1    2    0    0 -0.46603990034E+02 -0.17925988716E+02 -0.12114511181E+03  0.15734996266E+03  0.87118308488E+02 0.  0.
          5    1    1    2  502    0 -0.18817084257E+02  0.38161340682E+02 -0.26200889474E+03  0.26547411156E+03  0.41800000000E+01 0.  1.
         -5    1    1    2    0  502  0.65421074291E+02 -0.20235351966E+02 -0.10457671345E+03  0.12507257024E+03  0.41800000000E+01 0.  1.
        -11    1    3    3    0    0 -0.64547004764E+01 -0.48933654037E+02 -0.53405379875E+02  0.72720700321E+02  0.00000000000E+00 0.  1.
         11    1    3    3    0    0 -0.40149289558E+02  0.31007665321E+02 -0.67739731938E+02  0.84629262337E+02  0.00000000000E+00 0. -1.
</event>
<event>
 7    1  0.6988825E-006  0.1453125E+03  0.7561462E-02  0.1206354E+00
         -2   -1    0    0    0  501 -0.00000000000E+00  0.00000000000E+00  0.13387746798E+03  0.13387746798E+03  0.00000000000E+00 0.  1.
          2   -1    0    0  501    0  0.00000000000E+00 -0.00000000000E+00 -0.32548625210E+03  0.32548625210E+03  0.00000000000E+00 0. -1.
         23    2    1    2    0    0 -0.92973235221E+02  0.57049353444E+02  0.62590407421E+02  0.15577838476E+03  0.91927661020E+02 0.  0.
          5    1    1    2  502    0  0.14952400199E+01 -0.64854631129E+02 -0.15643796757E+03  0.16940681515E+03  0.41800000000E+01 0.  1.
         -5    1    1    2    0  502  0.91477995201E+02  0.78052776850E+01 -0.97761223966E+02  0.13417852018E+03  0.41800000000E+01 0.  1.
        -11    1    3    3    0    0 -0.74352910818E+02  0.68858974993E+00  0.73928550184E+01  0.74722712801E+02  0.00000000000E+00 0. -1.
         11    1    3    3    0    0 -0.18620324403E+02  0.56360763694E+02  0.55197552403E+02  0.81055671956E+02  0.00000000000E+00 0.  1.
</event>
<event>
 7    1  0.6988825E-006  0.1280916E+03  0.7561462E-02  0.1230315E+00
          2   -1    0    0  501    0  0.00000000000E+00  0.00000000000E+00  0.20041006773E+03  0.20041006773E+03  0.00000000000E+00 0. -1.
         -2   -1    0    0    0  501 -0.00000000000E+00 -0.00000000000E+00 -0.97533162472E+02  0.97533162472E+02  0.00000000000E+00 0.  1.
         23    2    1    2    0    0  0.84934216693E+02 -0.22555749174E+02  0.34470559939E+02  0.13048346002E+03  0.90084021056E+02 0.  0.
          5    1    1    2  502    0 -0.42236923923E+02 -0.47294167150E+02  0.55711068032E+02  0.84509712401E+02  0.41800000000E+01 0.  1.
         -5    1    1    2    0  502 -0.42697292770E+02  0.69849916324E+02  0.12695277284E+02  0.82950057780E+02  0.41800000000E+01 0.  1.
        -11    1    3    3    0    0 -0.11254951666E+02  0.19004036550E+01  0.28906120376E+02  0.31078115552E+02  0.00000000000E+00 0. -1.
         11    1    3    3    0    0  0.96189168359E+02 -0.24456152829E+02  0.55644395631E+01  0.99405344466E+02  0.00000000000E+00 0.  1.
</event>
<event>
 7    1  0.6988825E-006  0.2008949E+03  0.7561462E-02  0.1148986E+00
          1   -1    0    0  501    0  0.00000000000E+00  0.00000000000E+00  0.48641970533E+03  0.48641970533E+03  0.00000000000E+00 0. -1.
         -1   -1    0    0    0  501 -0.00000000000E+00 -0.00000000000E+00 -0.25611641628E+03  0.25611641628E+03  0.00000000000E+00 0.  1.
         23    2    1    2    0    0 -0.28413225708E+02  0.19519844577E+03 -0.17194291543E+03  0.27739133339E+03  0.92042604535E+02 0.  0.
          5    1    1    2  502    0  0.29057708695E+02 -0.19752472523E+03  0.28610806868E+03  0.34890638698E+03  0.41800000000E+01 0.  1.
         -5    1    1    2    0  502 -0.64448298735E+00  0.23262794609E+01  0.11613813580E+03  0.11623840124E+03  0.41800000000E+01 0.  1.
        -11    1    3    3    0    0 -0.18875703513E+02  0.13687134792E+03 -0.59646436524E+02  0.15049171225E+03  0.00000000000E+00 0. -1.
         11    1    3    3    0    0 -0.95375221946E+01  0.58327097850E+02 -0.11229647890E+03  0.12689962115E+03  0.00000000000E+00 0.  1.
</event>
<event>
 7    1  0.6988825E-006  0.1159017E+03  0.7561462E-02  0.1250015E+00
         -2   -1    0    0    0  501 -0.00000000000E+00  0.00000000000E+00  0.12255396539E+03  0.12255396539E+03  0.00000000000E+00 0.  1.
          2   -1    0    0  501    0  0.00000000000E+00 -0.00000000000E+00 -0.11449429695E+03  0.11449429695E+03  0.00000000000E+00 0. -1.
         23    2    1    2    0    0 -0.40530833832E+02 -0.13442744277E+02  0.16153292911E+02  0.10461921870E+03  0.94131802201E+02 0.  0.
          5    1    1    2  502    0  0.81822778214E+02  0.29565145883E+02  0.40012233597E+00  0.87101649718E+02  0.41800000000E+01 0.  1.
         -5    1    1    2    0  502 -0.41291944383E+02 -0.16122401607E+02 -0.84937468146E+01  0.45327393918E+02  0.41800000000E+01 0.  1.
        -11    1    3    3    0    0  0.18754410740E+02 -0.32825163933E+02  0.18734886450E+02  0.42192597452E+02  0.00000000000E+00 0.  1.
         11    1    3    3    0    0 -0.59285244572E+02  0.19382419657E+02 -0.25815935393E+01  0.62426621251E+02  0.00000000000E+00 0. -1.
</event>
<event>
 7    1  0.6988825E-006  0.1165092E+03  0.7561462E-02  0.1248969E+00
          2   -1    0    0  501    0  0.00000000000E+00  0.00000000000E+00  0.21071251556E+03  0.21071251556E+03  0.00000000000E+00 0. -1.
         -2   -1    0    0    0  501 -0.00000000000E+00 -0.00000000000E+00 -0.94669249356E+02  0.94669249356E+02  0.00000000000E+00 0.  1.
         23    2    1    2    0    0  0.76913243715E+02  0.19286742788E+02  0.99703709370E+01  0.12320577277E+03  0.93769017489E+02 0.  0.
          5    1    1    2  502    0 -0.92995148455E+02  0.20338358265E+02  0.39955196868E+02  0.10332297232E+03  0.41800000000E+01 0. -1.
         -5    1    1    2    0  502  0.16081904740E+02 -0.39625101053E+02  0.66117698397E+02  0.78853019821E+02  0.41800000000E+01 0. -1.
        -11    1    3    3    0    0  0.10525342360E+02 -0.16329112175E+02  0.38116266522E+02  0.42781684280E+02  0.00000000000E+00 0. -1.
         11    1    3    3    0    0  0.66387901355E+02  0.35615854963E+02 -0.28145895585E+02  0.80424088489E+02  0.00000000000E+00 0.  1.
</event>
<event>
 7    1  0.6988825E-006  0.9526897E+02  0.7561462E-02  0.1290571E+00
          2   -1    0    0  501    0  0.00000000000E+00  0.00000000000E+00  0.33156782640E+03  0.33156782640E+03  0.00000000000E+00 0. -1.
         -2   -1    0    0    0  501 -0.00000000000E+00 -0.00000000000E+00 -0.43210729796E+02  0.43210729796E+02  0.00000000000E+00 0.  1.
         23    2    1    2    0    0  0.85521795741E+01 -0.96346288166E+01  0.57902301569E+02  0.11224655867E+03  0.95292431796E+02 0.  0.
          5    1    1    2  502    0  0.69510819576E+01 -0.50054418299E+02  0.16451070174E+03  0.17214820858E+03  0.41800000000E+01 0. -1.
         -5    1    1    2    0  502 -0.15503261532E+02  0.59689047116E+02  0.65944093293E+02  0.90383788944E+02  0.41800000000E+01 0. -1.
        -11    1    3    3    0    0 -0.33187709783E+02  0.54605274234E+01 -0.62764531741E+01  0.34214548146E+02  0.00000000000E+00 0.  1.
         11    1    3    3    0    0  0.41739889357E+02 -0.15095156240E+02  0.64178754743E+02  0.78032010521E+02  0.00000000000E+00 0. -1.
</event>
<event>
 7    1  0.6988825E-006  0.1443235E+03  0.7561462E-02  0.1207627E+00
          2   -1    0    0  501    0  0.00000000000E+00  0.00000000000E+00  0.63075577471E+03  0.63075577471E+03  0.00000000000E+00 0. -1.
         -2   -1    0    0    0  501 -0.00000000000E+00 -0.00000000000E+00 -0.34633691590E+02  0.34633691590E+02  0.00000000000E+00 0.  1.
         23    2    1    2    0    0  0.47602475812E+02  0.86282950431E+02  0.26186780443E+03  0.29514140814E+03  0.93930615672E+02 0.  0.
          5    1    1    2  502    0  0.13539266454E+02 -0.95605199624E+02  0.21906288780E+03  0.23943618595E+03  0.41800000000E+01 0.  1.
         -5    1    1    2    0  502 -0.61141742266E+02  0.93222491933E+01  0.11519139090E+03  0.13081187222E+03  0.41800000000E+01 0.  1.
        -11    1    3    3    0    0  0.39266223803E+01  0.86242801015E+02  0.21169244070E+03  0.22861961539E+03  0.00000000000E+00 0. -1.
         11    1    3    3    0    0  0.43675853432E+02  0.40149415415E-01  0.50175363733E+02  0.66521792750E+02  0.00000000000E+00 0.  1.
</event>
<event>
 7    1  0.6988825E-006  0.1204062E+03  0.7561462E-02  0.1242428E+00
         -2   -1    0    0    0  501 -0.00000000000E+00  0.00000000000E+00  0.26771599760E+02  0.26771599760E+02  0.00000000000E+00 0. -1.
          2   -1    0    0  501    0  0.00000000000E+00 -0.00000000000E+00 -0.84652868834E+03  0.84652868834E+03  0.00000000000E+00 0.  1.
         23    2    1    2    0    0 -0.19747954199E+02 -0.86149511825E+02 -0.21500104922E+03  0.24944920434E+03  0.90486100004E+02 0.  0.
          5    1    1    2  502    0  0.41754863110E+02  0.82101298690E+02 -0.58898465285E+03  0.59615810448E+03  0.41800000000E+01 0. -1.
         -5    1    1    2    0  502 -0.22006908912E+02  0.40482131350E+01 -0.15771386506E+02  0.27692979286E+02  0.41800000000E+01 0. -1.
        -11    1    3    3    0    0 -0.41332361905E+02 -0.94152218678E+02 -0.16523063138E+03  0.19461286178E+03  0.00000000000E+00 0.  1.
         11    1    3    3    0    0  0.21584407706E+02  0.80027068535E+01 -0.49770417839E+02  0.54836342556E+02  0.00000000000E+00 0. -1.
</event>
<event>
 7    1  0.6988825E-006  0.7257442E+02  0.7561462E-02  0.1351551E+00
          2   -1    0    0  501    0  0.00000000000E+00  0.00000000000E+00  0.16911224662E+03  0.16911224662E+03  0.00000000000E+00 0. -1.
         -2   -1    0    0    0  501 -0.00000000000E+00 -0.00000000000E+00 -0.79452960842E+02  0.79452960842E+02  0.00000000000E+00 0.  1.
         23    2    1    2    0    0 -0.31323510525E+02 -0.20826778898E+01  0.11161913690E+02  0.97585896345E+02  0.91721965686E+02 0.  0.
          5    1    1    2  502    0  0.36915102887E+02  0.93811907648E+01  0.11074533361E+03  0.11718674361E+03  0.41800000000E+01 0.  1.
         -5    1    1    2    0  502 -0.55915923618E+01 -0.72985128750E+01 -0.32247961531E+02  0.33792567500E+02  0.41800000000E+01 0.  1.
        -11    1    3    3    0    0 -0.63036717864E+02 -0.10536466804E+02  0.43007619852E+01  0.64055768557E+02  0.00000000000E+00 0.  1.
         11    1    3    3    0    0  0.31713207339E+02  0.84537889144E+01  0.68611517050E+01  0.33530127788E+02  0.00000000000E+00 0. -1.
</event>
<event>
 7    1  0.6988825E-006  0.1072969E+03  0.7561462E-02  0.1265659E+00
          3   -1    0    0  501    0  0.00000000000E+00  0.00000000000E+00  0.10480695400E+04  0.10480695400E+04  0.00000000000E+00 0. -1.
         -3   -1    0    0    0  501 -0.00000000000E+00 -0.00000000000E+00 -0.21812495223E+02  0.21812495223E+02  0.00000000000E+00 0.  1.
         23    2    1    2    0    0 -0.29330366083E+02 -0.63596387733E+02  0.17506413363E+03  0.20670081383E+03  0.84693592720E+02 0.  0.
          5    1    1    2  502    0 -0.18256578085E+02 -0.18768043729E+02  0.52327450123E+02  0.58661542301E+02  0.41800000000E+01 0.  1.
         -5    1    1    2    0  502  0.47586944168E+02  0.82364431462E+02  0.79886546098E+03  0.80451967905E+03  0.41800000000E+01 0.  1.
        -11    1    3    3    0    0 -0.43567374382E+02 -0.21814625499E+02  0.35395946215E+02  0.60223475528E+02  0.00000000000E+00 0.  1.
         11    1    3    3    0    0  0.14237008299E+02 -0.41781762233E+02  0.13966818742E+03  0.14647733831E+03  0.00000000000E+00 0. -1.
</event>
<event>
 7    1  0.6988825E-006  0.2275628E+03  0.7561462E-02  0.1128367E+00
          2   -1    0    0  501    0  0.00000000000E+00  0.00000000000E+00  0.12346680077E+04  0.12346680077E+04  0.00000000000E+00 0. -1.
         -2   -1    0    0    0  501 -0.00000000000E+00 -0.00000000000E+00 -0.13857613502E+03  0.13857613502E+03  0.00000000000E+00 0.  1.
         23    2    1    2    0    0  0.18837530046E+03 -0.29038546868E+02  0.19730779129E+03  0.28784093995E+03  0.87140984496E+02 0.  0.
          5    1    1    2  502    0  0.99074934156E+01 -0.35674226676E+02  0.87459462624E+03  0.87538793773E+03  0.41800000000E+01 0. -1.
         -5    1    1    2    0  502 -0.19828279387E+03  0.64712773544E+02  0.24189455147E+02  0.21001526503E+03  0.41800000000E+01 0.  1.
        -11    1    3    3    0    0  0.19372962140E+03 -0.15100422939E+02  0.17880632531E+03  0.26406607308E+03  0.00000000000E+00 0.  1.
         11    1    3    3    0    0 -0.53543209367E+01 -0.13938123929E+02  0.18501465974E+02  0.23774866867E+02  0.00000000000E+00 0. -1.
</event>
<event>
 7    1  0.6988825E-006  0.1122514E+03  0.7561462E-02  0.1256457E+00
         -2   -1    0    0    0  501 -0.00000000000E+00  0.00000000000E+00  0.17970650121E+03  0.17970650121E+03  0.00000000000E+00 0.  1.
          2   -1    0    0  501    0  0.00000000000E+00 -0.00000000000E+00 -0.93749455937E+02  0.93749455937E+02  0.00000000000E+00 0. -1.
         23    2    1    2    0    0 -0.56815957589E+02  0.29515706080E+02  0.71284901760E+02  0.13216919264E+03  0.91038059746E+02 0.  0.
          5    1    1    2  502    0 -0.21506953354E+02  0.22820815485E+02 -0.23656026320E+02  0.39502134667E+02  0.41800000000E+01 0. -1.
         -5    1    1    2    0  502  0.78322910943E+02 -0.52336521566E+02  0.38328169830E+02  0.10178462984E+03  0.41800000000E+01 0. -1.
        -11    1    3    3    0    0  0.12276418399E+02  0.26743682155E+02  0.53037615599E+02  0.60654131371E+02  0.00000000000E+00 0.  1.
         11    1    3    3    0    0 -0.69092375988E+02  0.27720239260E+01  0.18247286161E+02  0.71515061270E+02  0.00000000000E+00 0. -1.
</event>
<event>
 7    1  0.6988825E-006  0.6376637E+02  0.7561462E-02  0.1382673E+00
         -2   -1    0    0    0  501 -0.00000000000E+00  0.00000000000E+00  0.19477103284E+03  0.19477103284E+03  0.00000000000E+00 0. -1.
          2   -1    0    0  501    0  0.00000000000E+00 -0.00000000000E+00 -0.11516074991E+03  0.11516074991E+03  0.00000000000E+00 0.  1.
         23    2    1    2    0    0  0.14935892004E+02  0.10425001702E+02  0.11962268590E+03  0.15201758885E+03  0.92021730090E+02 0.  0.
          5    1    1    2  502    0 -0.23421758519E+02 -0.18072435405E+02  0.54751380439E+02  0.62372892779E+02  0.41800000000E+01 0. -1.
         -5    1    1    2    0  502  0.84858665150E+01  0.76474337030E+01 -0.94763783407E+02  0.95541301113E+02  0.41800000000E+01 0.  1.
        -11    1    3    3    0    0  0.47992972459E+01 -0.36840054771E+02  0.84374140724E+02  0.92191206264E+02  0.00000000000E+00 0.  1.
         11    1    3    3    0    0  0.10136594758E+02  0.47265056474E+02  0.35248545174E+02  0.59826382588E+02  0.00000000000E+00 0. -1.
</event>
<event>
 7    1  0.6988825E-006  0.1014953E+03  0.7561462E-02  0.1277183E+00
         -1   -1    0    0    0  501 -0.00000000000E+00  0.00000000000E+00  0.14137440852E+02  0.14137440852E+02  0.00000000000E+00 0.  1.
          1   -1    0    0  501    0  0.00000000000E+00 -0.00000000000E+00 -0.16182803919E+04  0.16182803919E+04  0.00000000000E+00 0. -1.
         23    2    1    2    0    0  0.32986275746E+02 -0.20752307714E+02 -0.20659296793E+03  0.22873872663E+03  0.90122128250E+02 0.  0.
          5    1    1    2  502    0 -0.38566694948E+02  0.70184233099E+02 -0.77838251752E+03  0.78250241694E+03  0.41800000000E+01 0. -1.
         -5    1    1    2    0  502  0.55804192014E+01 -0.49431925386E+02 -0.61916746565E+03  0.62117668923E+03  0.41800000000E+01 0. -1.
        -11    1    3    3    0    0  0.50128232977E+02 -0.23759933509E+02 -0.20367189370E+03  0.21109148364E+03  0.00000000000E+00 0. -1.
         11    1    3    3    0    0 -0.17141957231E+02  0.30076257950E+01 -0.29210742308E+01  0.17647242994E+02  0.00000000000E+00 0.  1.
</event>
<event>
 7    1  0.6988825E-006  0.1067937E+03  0.7561462E-02  0.1266625E+00
         -2   -1    0    0    0  501 -0.00000000000E+00  0.00000000000E+00  0.17989776356E+03  0.17989776356E+03  0.00000000000E+00 0. -1.
          2   -1    0    0  501    0  0.00000000000E+00 -0.00000000000E+00 -0.13998841501E+03  0.13998841501E+03  0.00000000000E+00 0.  1.
         23    2    1    2    0    0 -0.10413103811E+02 -0.12192209087E+02  0.13397814691E+03  0.16255738820E+03  0.90651408791E+02 0.  0.
          5    1    1    2  502    0 -0.25140825134E+02 -0.48985437382E+02 -0.40313707555E+02  0.68368864118E+02  0.41800000000E+01 0.  1.
         -5    1    1    2    0  502  0.35553928945E+02  0.61177646469E+02 -0.53755090810E+02  0.88959926253E+02  0.41800000000E+01 0.  1.
        -11    1    3    3    0    0 -0.25038887446E+02  0.32175612414E+02  0.88119900626E+02  0.97094453009E+02  0.00000000000E+00 0. -1.
         11    1    3    3    0    0  0.14625783635E+02 -0.44367821501E+02  0.45858246282E+02  0.65462935191E+02  0.00000000000E+00 0.  1.
</event>
<event>
 7    1  0.6988825E-006  0.1184741E+03  0.7561462E-02  0.1245636E+00
          1   -1    0    0  501    0  0.00000000000E+00  0.00000000000E+00  0.98685247411E+03  0.98685247411E+03  0.00000000000E+00 0. -1.
         -1   -1    0    0    0  501 -0.00000000000E+00 -0.00000000000E+00 -0.16735498299E+02  0.16735498299E+02  0.00000000000E+00 0.  1.
         23    2    1    2    0    0 -0.58892737162E+02  0.36679524134E+02  0.43377043694E+03  0.44849445392E+03  0.90425335274E+02 0.  0.
          5    1    1    2  502    0 -0.26135326614E+02 -0.30838239319E+02  0.31929829001E+03  0.32187407896E+03  0.41800000000E+01 0. -1.
         -5    1    1    2    0  502  0.85028063777E+02 -0.58412848147E+01  0.21704824886E+03  0.23321943952E+03  0.41800000000E+01 0. -1.
        -11    1    3    3    0    0 -0.57853169438E+02 -0.14617134129E+02  0.28333478668E+03  0.28955008404E+03  0.00000000000E+00 0. -1.
         11    1    3    3    0    0 -0.10395677236E+01  0.51296658263E+02  0.15043565026E+03  0.15894436989E+03  0.00000000000E+00 0.  1.
</event>
<event>
 7    1  0.6988825E-006  0.7507247E+02  0.7561462E-02  0.1343647E+00
          1   -1    0    0  501    0  0.00000000000E+00  0.00000000000E+00  0.22506053206E+04  0.22506053206E+04  0.00000000000E+00 0. -1.
         -1   -1    0    0    0  501 -0.00000000000E+00 -0.00000000000E+00 -0.11755592703E+02  0.11755592703E+02  0.00000000000E+00 0.  1.
         23    2    1    2    0    0 -0.19076172333E+02  0.13648698974E+02  0.21470573997E+03  0.23421846461E+03  0.90606550845E+02 0.  0.
          5    1    1    2  502    0  0.31864106266E+02 -0.30180608179E+02  0.19610491421E+04  0.19615446465E+04  0.41800000000E+01 0. -1.
         -5    1    1    2    0  502 -0.12787933932E+02  0.16531909206E+02  0.63094845830E+02  0.66597802115E+02  0.41800000000E+01 0. -1.
        -11    1    3    3    0    0  0.27532280451E+02 -0.13648608412E+02  0.13131751740E+03  0.13486512282E+03  0.00000000000E+00 0. -1.
         11    1    3    3    0    0 -0.46608452785E+02  0.27297307385E+02  0.83388222566E+02  0.99353341786E+02  0.00000000000E+00 0.  1.
</event>
<event>
 7    1  0.6988825E-006  0.1902754E+03  0.7561462E-02  0.1158213E+00
         -2   -1    0    0    0  501 -0.00000000000E+00  0.00000000000E+00  0.28003625862E+02  0.28003625862E+02  0.00000000000E+00 0.  1.
          2   -1    0    0  501    0  0.00000000000E+00 -0.00000000000E+00 -0.13238542654E+04  0.13238542654E+04  0.00000000000E+00 0. -1.
         23    2    1    2    0    0  0.29855087676E+02  0.15539588401E+03 -0.66041867009E+03  0.68517956901E+03  0.90989092549E+02 0.  0.
          5    1    1    2  502    0 -0.31851359091E+02 -0.17605260537E+03 -0.59024051899E+03  0.61677416579E+03  0.41800000000E+01 0. -1.
         -5    1    1    2    0  502  0.19962714150E+01  0.20656721353E+02 -0.45191450418E+02  0.49904156415E+02  0.41800000000E+01 0. -1.
        -11    1    3    3    0    0 -0.11237896865E+02  0.13328433851E+03 -0.44028180590E+03  0.46015114237E+03  0.00000000000E+00 0.  1.
         11    1    3    3    0    0  0.41092984541E+02  0.22111545509E+02 -0.22013686419E+03  0.22502842664E+03  0.00000000000E+00 0. -1.
</event>
<event>
 7    1  0.6988825E-006  0.2176471E+03  0.7561462E-02  0.1135649E+00
         -1   -1    0    0    0  501 -0.00000000000E+00  0.00000000000E+00  0.15188726979E+03  0.15188726979E+03  0.00000000000E+00 0.  1.
          1   -1    0    0  501    0  0.00000000000E+00 -0.00000000000E+00 -0.31590731097E+03  0.31590731097E+03  0.00000000000E+00 0. -1.
         23    2    1    2    0    0  0.17423389275E+03  0.73510981322E+02 -0.57427226335E+02  0.21725339479E+03  0.90221047785E+02 0.  0.
          5    1    1    2  502    0 -0.44562468063E+01 -0.55280539174E+02 -0.20587621480E+02  0.59305300818E+02  0.41800000000E+01 0.  1.
         -5    1    1    2    0  502 -0.16977764595E+03 -0.18230442148E+02 -0.86005193371E+02  0.19123588516E+03  0.41800000000E+01 0.  1.
        -11    1    3    3    0    0  0.86263742262E+02  0.83845103261E+02 -0.24572274946E+02  0.12278123336E+03  0.00000000000E+00 0.  1.
         11    1    3    3    0    0  0.87970150491E+02 -0.10334121939E+02 -0.32854951389E+02  0.94472161426E+02  0.00000000000E+00 0. -1.
</event>
<event>
 7    1  0.6988825E-006  0.1483919E+03  0.7561462E-02  0.1202463E+00
          1   -1    0    0  501    0  0.00000000000E+00  0.00000000000E+00  0.94719921740E+03  0.94719921740E+03  0.00000000000E+00 0. -1.
         -1   -1    0    0    0  501 -0.00000000000E+00 -0.00000000000E+00 -0.27640922412E+02  0.27640922412E+02  0.00000000000E+00 0.  1.
         23    2    1    2    0    0  0.42920413778E+02  0.92301009457E+02  0.24084172049E+03  0.27722789502E+03  0.92135406782E+02 0.  0.
          5    1    1    2  502    0 -0.53414113881E+02 -0.11995539448E+03  0.54902599468E+03  0.56452580053E+03  0.41800000000E+01 0. -1.
         -5    1    1    2    0  502  0.10493700103E+02  0.27654385027E+02  0.12969057983E+03  0.13308644427E+03  0.41800000000E+01 0. -1.
        -11    1    3    3    0    0 -0.27052024463E+02  0.39502081820E+02  0.64788752245E+02  0.80559350252E+02  0.00000000000E+00 0.  1.
         11    1    3    3    0    0  0.69972438241E+02  0.52798927637E+02  0.17605296824E+03  0.19666854477E+03  0.00000000000E+00 0. -1.
</event>
<event>
 7    1  0.6988825E-006  0.1188868E+03  0.7561462E-02  0.1244945E+00
         -1   -1    0    0    0  501 -0.00000000000E+00  0.00000000000E+00  0.34025825070E+03  0.34025825070E+03  0.00000000000E+00 0.  1.
          1   -1    0    0  501    0  0.00000000000E+00 -0.00000000000E+00 -0.16393634418E+03  0.16393634418E+03  0.00000000000E+00 0. -1.
         23    2    1    2    0    0 -0.68272331129E+02  0.49916182030E+02  0.29409279657E+03  0.31868493676E+03  0.88976286165E+02 0.  0.
          5    1    1    2  502    0  0.58904247083E+02  0.23947177955E+02 -0.78885397000E+02  0.10140786910E+03  0.41800000000E+01 0. -1.
         -5    1    1    2    0  502  0.93680840457E+01 -0.73863359986E+02 -0.38885493045E+02  0.84101789020E+02  0.41800000000E+01 0.  1.
        -11    1    3    3    0    0 -0.34203924387E+02  0.55263956467E+02  0.26709440478E+03  0.27488803975E+03  0.00000000000E+00 0.  1.
         11    1    3    3    0    0 -0.34068406742E+02 -0.53477744365E+01  0.26998391782E+02  0.43796897015E+02  0.00000000000E+00 0. -1.
</event>
<event>
 7    1  0.6988825E-006  0.1049791E+03  0.7561462E-02  0.1270161E+00
          2   -1    0    0  501    0  0.00000000000E+00  0.00000000000E+00  0.89244336159E+03  0.89244336159E+03  0.00000000000E+00 0.  1.
         -2   -1    0    0    0  501 -0.00000000000E+00 -0.00000000000E+00 -0.13343850015E+02  0.13343850015E+02  0.00000000000E+00 0. -1.
         23    2    1    2    0    0 -0.49292339930E+01  0.38000401834E+01  0.32516783502E+03  0.33787104651E+03  0.91564105867E+02 0.  0.
          5    1    1    2  502    0  0.49784887742E+01  0.60140656356E+02  0.23942468806E+03  0.24694804626E+03  0.41800000000E+01 0.  1.
         -5    1    1    2    0  502 -0.49254781186E-01 -0.63940696540E+02  0.31450698850E+03  0.32096811885E+03  0.41800000000E+01 0.  1.
        -11    1    3    3    0    0  0.23687860749E+02  0.35503989353E+02  0.10062454873E+03  0.10930209428E+03  0.00000000000E+00 0. -1.
         11    1    3    3    0    0 -0.28617094742E+02 -0.31703949170E+02  0.22454328629E+03  0.22856895222E+03  0.00000000000E+00 0.  1.
</event>
<event>
 7    1  0.6988825E-006  0.6743399E+02  0.7561462E-02  0.1369043E+00
         -1   -1    0    0    0  501 -0.00000000000E+00  0.00000000000E+00  0.94550425263E+02  0.94550425263E+02  0.00000000000E+00 0.  1.
          1   -1    0    0  501    0  0.00000000000E+00 -0.00000000000E+00 -0.14119067869E+03  0.14119067869E+03  0.00000000000E+00 0. -1.
         23    2    1    2    0    0 -0.45144646595E+01  0.49411174146E+02  0.23161475138E+01  0.10337352122E+03  0.90658015798E+02 0.  0.
          5    1    1    2  502    0 -0.21597150970E+02 -0.42722346583E+02 -0.78573975116E+02  0.92103082430E+02  0.41800000000E+01 0. -1.
         -5    1    1    2    0  502  0.26111615629E+02 -0.66888275631E+01  0.29617574173E+02  0.40264500305E+02  0.41800000000E+01 0.  1.
        -11    1    3    3    0    0  0.76821711231E+01  0.46323921948E+02  0.41222363742E+02  0.62483636019E+02  0.00000000000E+00 0.  1.
         11    1    3    3    0    0 -0.12196635783E+02  0.30872521985E+01 -0.38906216228E+02  0.40889885200E+02  0.00000000000E+00 0. -1.
</event>
<event>
 7    1  0.6988825E-006  0.1287335E+03  0.7561462E-02  0.1229347E+00
         -1   -1    0    0    0  501 -0.00000000000E+00  0.00000000000E+00  0.39417363887E+03  0.39417363887E+03  0.00000000000E+00 0.  1.
          1   -1    0    0  501    0  0.00000000000E+00 -0.00000000000E+00 -0.56122468618E+02  0.56122468618E+02  0.00000000000E+00 0. -1.
         23    2    1    2    0    0 -0.66208081778E+02 -0.57929881740E+02  0.22904788279E+03  0.26248282163E+03  0.93246542825E+02 0.  0.
          5    1    1    2  502    0  0.55610496712E+02 -0.27404699098E+02  0.23374429849E+02  0.66388110743E+02  0.41800000000E+01 0. -1.
         -5    1    1    2    0  502  0.10597585066E+02  0.85334580838E+02  0.85628857615E+02  0.12142517512E+03  0.41800000000E+01 0. -1.
        -11    1    3    3    0    0 -0.47578349741E+02 -0.71715391620E+02  0.22224912396E+03  0.23833058943E+03  0.00000000000E+00 0.  1.
         11    1    3    3    0    0 -0.18629732036E+02  0.13785509880E+02  0.67987588315E+01  0.24152232196E+02  0.00000000000E+00 0. -1.
</event>
<event>
 7    1  0.6988825E-006  0.2224227E+03  0.7561462E-02  0.1132090E+00
          1   -1    0    0  501    0  0.00000000000E+00  0.00000000000E+00  0.30820586100E+03  0.30820586100E+03  0.00000000000E+00 0. -1.
         -1   -1    0    0    0  501 -0.00000000000E+00 -0.00000000000E+00 -0.20862791848E+03  0.20862791848E+03  0.00000000000E+00 0.  1.
         23    2    1    2    0    0  0.21273007349E+03 -0.23427097373E+02 -0.34417306621E+02  0.23504832395E+03  0.90885920473E+02 0.  0.
          5    1    1    2  502    0 -0.10826681384E+03  0.51873177906E+01 -0.29749249085E+01  0.10851236715E+03  0.41800000000E+01 0. -1.
         -5    1    1    2    0  502 -0.10446325965E+03  0.18239779582E+02  0.13697017405E+03  0.17327308837E+03  0.41800000000E+01 0. -1.
        -11    1    3    3    0    0  0.19148275566E+03  0.87567102029E+01 -0.16109893976E+02  0.19235866077E+03  0.00000000000E+00 0. -1.
         11    1    3    3    0    0  0.21247317827E+02 -0.32183807575E+02 -0.18307412645E+02  0.42689663182E+02  0.00000000000E+00 0.  1.
</event>
<event>
 7    1  0.6988825E-006  0.1214399E+03  0.7561462E-02  0.1240740E+00
         -4   -1    0    0    0  501 -0.00000000000E+00  0.00000000000E+00  0.85311539911E+03  0.85311539911E+03  0.00000000000E+00 0.  1.
          4   -1    0    0  501    0  0.00000000000E+00 -0.00000000000E+00 -0.20678044541E+02  0.20678044541E+02  0.00000000000E+00 0. -1.
         23    2    1    2    0    0 -0.21739336746E+02  0.61891526553E+02  0.50523180835E+03  0.51740345420E+03  0.90244082466E+02 0.  0.
          5    1    1    2  502    0  0.69673054759E+02 -0.39158578820E+02  0.13486995710E+03  0.15682827099E+03  0.41800000000E+01 0. -1.
         -5    1    1    2    0  502 -0.47933718013E+02 -0.22732947733E+02  0.19233558912E+03  0.19956171846E+03  0.41800000000E+01 0. -1.
        -11    1    3    3    0    0  0.29901903617E+02  0.11762606785E+01  0.98919284786E+02  0.10334666096E+03  0.00000000000E+00 0. -1.
         11    1    3    3    0    0 -0.51641240362E+02  0.60715265874E+02  0.40631252357E+03  0.41405679324E+03  0.00000000000E+00 0.  1.
</event>
<event>
 7    1  0.6988825E-006  0.1217828E+03  0.7561462E-02  0.1240185E+00
         -1   -1    0    0    0  501 -0.00000000000E+00  0.00000000000E+00  0.15849044194E+02  0.15849044194E+02  0.00000000000E+00 0.  1.
          1   -1    0    0  501    0  0.00000000000E+00 -0.00000000000E+00 -0.10381202240E+04  0.10381202240E+04  0.00000000000E+00 0. -1.
         23    2    1    2    0    0 -0.57986128689E+02  0.76524931429E+01 -0.31529078052E+03  0.33362731316E+03  0.92075816774E+02 0.  0.
          5    1    1    2  502    0  0.60437243351E+02 -0.60080742607E+02 -0.45193061593E+03  0.45991424204E+03  0.41800000000E+01 0. -1.
         -5    1    1    2    0  502 -0.24511146620E+01  0.52428249464E+02 -0.25504978338E+03  0.26042771302E+03  0.41800000000E+01 0. -1.
        -11    1    3    3    0    0  0.70467282738E+01  0.34516839747E+02 -0.14812271269E+03  0.15225441413E+03  0.00000000000E+00 0. -1.
         11    1    3    3    0    0 -0.65032856963E+02 -0.26864346604E+02 -0.16716806782E+03  0.18137289903E+03  0.00000000000E+00 0.  1.
</event>
<event>
 7    1  0.6988825E-006  0.1041319E+03  0.7561462E-02  0.1271839E+00
          2   -1    0    0  501    0  0.00000000000E+00  0.00000000000E+00  0.12515703648E+04  0.12515703648E+04  0.00000000000E+00 0. -1.
         -2   -1    0    0    0  501 -0.00000000000E+00 -0.00000000000E+00 -0.12706484914E+02  0.12706484914E+02  0.00000000000E+00 0.  1.
         23    2    1    2    0    0 -0.44375746587E+02 -0.42657572685E+02  0.48209552462E+03  0.49477372620E+03  0.92714992817E+02 0.  0.
          5    1    1    2  502    0  0.17586108561E+02 -0.23288442248E+02  0.54993353033E+03  0.55072314546E+03  0.41800000000E+01 0.  1.
         -5    1    1    2    0  502  0.26789638026E+02  0.65946014934E+02  0.20683482493E+03  0.21877997805E+03  0.41800000000E+01 0.  1.
        -11    1    3    3    0    0  0.26799229873E+02 -0.61781830122E+01  0.74702008093E+02  0.79603760465E+02  0.00000000000E+00 0. -1.
         11    1    3    3    0    0 -0.71174976460E+02 -0.36479389673E+02  0.40739351652E+03  0.41516996574E+03  0.00000000000E+00 0.  1.
</event>
<event>
 7    1  0.6988825E-006  0.1016298E+03  0.7561462E-02  0.1276905E+00
         -1   -1    0    0    0  501 -0.00000000000E+00  0.00000000000E+00  0.72318913003E+03  0.72318913003E+03  0.00000000000E+00 0.  1.
          1   -1    0    0  501    0  0.00000000000E+00 -0.00000000000E+00 -0.18403751278E+02  0.18403751278E+02  0.00000000000E+00 0. -1.
         23    2    1    2    0    0 -0.27388395734E+02  0.23368953870E+02  0.34386002526E+03  0.35798718703E+03  0.92837906501E+02 0.  0.
          5    1    1    2  502    0  0.64648191573E+02 -0.20899001694E+02  0.32345718098E+03  0.33054224734E+03  0.41800000000E+01 0. -1.
         -5    1    1    2    0  502 -0.37259795839E+02 -0.24699521762E+01  0.37468172515E+02  0.53063446941E+02  0.41800000000E+01 0. -1.
        -11    1    3    3    0    0  0.21669699284E+02  0.40266814953E+02  0.12622799780E+03  0.13425535253E+03  0.00000000000E+00 0. -1.
         11    1    3    3    0    0 -0.49058095018E+02 -0.16897861083E+02  0.21763202745E+03  0.22373183450E+03  0.00000000000E+00 0.  1.
</event>
<event>
 7    1  0.6988825E-006  0.8826583E+02  0.7561462E-02  0.1307106E+00
          1   -1    0    0  501    0  0.00000000000E+00  0.00000000000E+00  0.75800713830E+02  0.75800713830E+02  0.00000000000E+00 0. -1.
         -1   -1    0    0    0  501 -0.00000000000E+00 -0.00000000000E+00 -0.17468483158E+03  0.17468483158E+03  0.00000000000E+00 0.  1.
         23    2    1    2    0    0  0.41065670094E+02  0.14495346800E+02 -0.78700706451E+02  0.12911888768E+03  0.92635746997E+02 0.  0.
          5    1    1    2  502    0 -0.58702420445E+02 -0.18040957755E+02 -0.54617614568E+02  0.82292202206E+02  0.41800000000E+01 0. -1.
         -5    1    1    2    0  502  0.17636750351E+02  0.35456109550E+01  0.34434203265E+02  0.39074455524E+02  0.41800000000E+01 0.  1.
        -11    1    3    3    0    0 -0.80343476519E+01  0.40263729193E+02 -0.55437400975E+02  0.68985680090E+02  0.00000000000E+00 0.  1.
         11    1    3    3    0    0  0.49100017746E+02 -0.25768382393E+02 -0.23263305476E+02  0.60133207593E+02  0.00000000000E+00 0. -1.
</event>
<event>
 7    1  0.6988825E-006  0.1090314E+03  0.7561462E-02  0.1262374E+00
         -2   -1    0    0    0  501 -0.00000000000E+00  0.00000000000E+00  0.20590485002E+03  0.20590485002E+03  0.00000000000E+00 0.  1.
          2   -1    0    0  501    0  0.00000000000E+00 -0.00000000000E+00 -0.61605633071E+02  0.61605633071E+02  0.00000000000E+00 0. -1.
         23    2    1    2    0    0 -0.28044336154E+02 -0.16425258643E+02  0.59752389867E+02  0.11307152190E+03  0.90324675802E+02 0.  0.
          5    1    1    2  502    0  0.74421068580E+02 -0.88902776466E+01  0.59652445313E+02  0.95882319105E+02  0.41800000000E+01 0.  1.
         -5    1    1    2    0  502 -0.46376732426E+02  0.25315536290E+02  0.24894381768E+02  0.58556642081E+02  0.41800000000E+01 0.  1.
        -11    1    3    3    0    0  0.24492758353E+02  0.15053384279E+02  0.38905500352E+02  0.48374968193E+02  0.00000000000E+00 0.  1.
         11    1    3    3    0    0 -0.52537094507E+02 -0.31478642922E+02  0.20846889514E+02  0.64696553709E+02  0.00000000000E+00 0. -1.
</event>
<event>
 7    1  0.6988825E-006  0.9540042E+02  0.7561462E-02  0.1290277E+00
         -1   -1    0    0    0  501 -0.00000000000E+00  0.00000000000E+00  0.27428434560E+03  0.27428434560E+03  0.00000000000E+00 0.  1.
          1   -1    0    0  501    0  0.00000000000E+00 -0.00000000000E+00 -0.79088636575E+02  0.79088636575E+02  0.00000000000E+00 0. -1.
         23    2    1    2    0    0 -0.63802206660E+02  0.36195443308E+02  0.18110204801E+03  0.22002860848E+03  0.10116227095E+03 0.  0.
          5    1    1    2  502    0  0.39579619233E+01  0.28443554498E+02 -0.23633310549E+02  0.37426020662E+02  0.41800000000E+01 0. -1.
         -5    1    1    2    0  502  0.59844244736E+02 -0.64638997806E+02  0.37726971560E+02  0.95918353033E+02  0.41800000000E+01 0.  1.
        -11    1    3    3    0    0 -0.41431342865E+02  0.26707946554E+02  0.18833208779E+03  0.19467625914E+03  0.00000000000E+00 0.  1.
         11    1    3    3    0    0 -0.22370863794E+02  0.94874967538E+01 -0.72300397814E+01  0.25352349335E+02  0.00000000000E+00 0. -1.
</event>
<event>
 7    1  0.6988825E-006  0.9449911E+02  0.7561462E-02  0.1292308E+00
         -1   -1    0    0    0  501 -0.00000000000E+00  0.00000000000E+00  0.66224838742E+03  0.66224838742E+03  0.00000000000E+00 0.  1.
          1   -1    0    0  501    0  0.00000000000E+00 -0.00000000000E+00 -0.27565145369E+02  0.27565145369E+02  0.00000000000E+00 0. -1.
         23    2    1    2    0    0 -0.55943543943E+02 -0.45638380253E+02  0.37687629966E+03  0.39430612617E+03  0.90714023339E+02 0.  0.
          5    1    1    2  502    0  0.10688140944E+02  0.41818115716E+01 -0.12978541039E+02  0.17822424985E+02  0.41800000000E+01 0. -1.
         -5    1    1    2    0  502  0.45255403000E+02  0.41456568681E+02  0.27078548344E+03  0.27768498164E+03  0.41800000000E+01 0. -1.
        -11    1    3    3    0    0 -0.38071883470E+02  0.22906437062E+02  0.16637501730E+03  0.17220574773E+03  0.00000000000E+00 0.  1.
         11    1    3    3    0    0 -0.17871660473E+02 -0.68544817314E+02  0.21050128236E+03  0.22210037844E+03  0.00000000000E+00 0. -1.
</event>
<event>
 7    1  0.6988825E-006  0.1225427E+03  0.7561462E-02  0.1238960E+00
         -3   -1    0    0    0  501 -0.00000000000E+00  0.00000000000E+00  0.27233004156E+03  0.27233004156E+03  0.00000000000E+00 0.  1.
          3   -1    0    0  501    0  0.00000000000E+00 -0.00000000000E+00 -0.71362285985E+02  0.71362285985E+02  0.00000000000E+00 0. -1.
         23    2    1    2    0    0  0.63699866298E+02  0.25889486896E+02  0.15593318871E+03  0.19401443365E+03  0.92728111299E+02 0.  0.
          5    1    1    2  502    0 -0.63991319861E+02  0.33220759603E+02  0.53416716684E+02  0.89829426734E+02  0.41800000000E+01 0.  1.
         -5    1    1    2    0  502  0.29145356314E+00 -0.59110246499E+02 -0.83821498167E+01  0.59848467164E+02  0.41800000000E+01 0.  1.
        -11    1    3    3    0    0  0.12090723386E+02  0.53655435589E+02  0.92791714528E+02  0.10786748187E+03  0.00000000000E+00 0.  1.
         11    1    3    3    0    0  0.51609142912E+02 -0.27765948692E+02  0.63141474183E+02  0.86146951780E+02  0.00000000000E+00 0. -1.
</event>
<event>
 7    1  0.6988825E-006  0.6547060E+02  0.7561462E-02  0.1376210E+00
         -2   -1    0    0    0  501 -0.00000000000E+00  0.00000000000E+00  0.13469349955E+03  0.13469349955E+03  0.00000000000E+00 0.  1.
          2   -1    0    0  501    0  0.00000000000E+00 -0.00000000000E+00 -0.94552342101E+02  0.94552342101E+02  0.00000000000E+00 0. -1.
         23    2    1    2    0    0  0.73500119145E+01 -0.23196515954E+02  0.38281686295E+02  0.10179702408E+03  0.91132022796E+02 0.  0.
          5    1    1    2  502    0  0.19520432112E+02  0.11205582143E+02  0.58865679722E+02  0.63160533485E+02  0.41800000000E+01 0.  1.
         -5    1    1    2    0  502 -0.26870444026E+02  0.11990933811E+02 -0.57006208565E+02  0.64288284086E+02  0.41800000000E+01 0.  1.
        -11    1    3    3    0    0 -0.32913448269E+02 -0.23731214310E+01 -0.11051746354E+02  0.34800400569E+02  0.00000000000E+00 0. -1.
         11    1    3    3    0    0  0.40263460183E+02 -0.20823394523E+02  0.49333432648E+02  0.66996623514E+02  0.00000000000E+00 0.  1.
</event>
<event>
 7    1  0.6988825E-006  0.7387191E+02  0.7561462E-02  0.1347400E+00
          1   -1    0    0  501    0  0.00000000000E+00  0.00000000000E+00  0.56300906638E+02  0.56300906638E+02  0.00000000000E+00 0. -1.
         -1   -1    0    0    0  501 -0.00000000000E+00 -0.00000000000E+00 -0.22050559183E+03  0.22050559183E+03  0.00000000000E+00 0.  1.
         23    2    1    2    0    0  0.22163283249E+02 -0.94447432652E+01 -0.89434092135E+02  0.12909472615E+03  0.89925397884E+02 0.  0.
          5    1    1    2  502    0  0.13798806071E+02 -0.22227426510E+02  0.25329251208E+02  0.36653907091E+02  0.41800000000E+01 0.  1.
         -5    1    1    2    0  502 -0.35962089320E+02  0.31672169775E+02 -0.10009984426E+03  0.11105786523E+03  0.41800000000E+01 0.  1.
        -11    1    3    3    0    0  0.12650268891E+02 -0.39576554544E+02 -0.88172569131E+02  0.97471713434E+02  0.00000000000E+00 0.  1.
         11    1    3    3    0    0  0.95130143578E+01  0.30131811278E+02 -0.12615230039E+01  0.31623012718E+02  0.00000000000E+00 0. -1.
</event>
<event>
 7    1  0.1309870E-005  0.1504743E+03  0.7561462E-02  0.1199891E+00
         -1   -1    0    0    0  501 -0.00000000000E+00  0.00000000000E+00  0.20875971445E+03  0.20875971445E+03  0.00000000000E+00 0.  1.
          1   -1    0    0  501    0  0.00000000000E+00 -0.00000000000E+00 -0.13710053744E+03  0.13710053744E+03  0.00000000000E+00 0. -1.
         23    2    1    2    0    0 -0.11767392562E+03  0.53327447772E+02  0.68853466809E+02  0.16600955919E+03  0.78277738830E+02 0.  0.
          5    1    1    2  502    0  0.46657482519E+02  0.34524013862E+02  0.27153685133E+02  0.64215443815E+02  0.41800000000E+01 0. -1.
         -5    1    1    2    0  502  0.71016443097E+02 -0.87851461634E+02 -0.24347974925E+02  0.11563524888E+03  0.41800000000E+01 0. -1.
        -11    1    3    3    0    0 -0.72828849678E+02  0.26758307748E+02  0.81338895318E+02  0.11241024985E+03  0.00000000000E+00 0.  1.
         11    1    3    3    0    0 -0.44845075938E+02  0.26569140024E+02 -0.12485428509E+02  0.53599309347E+02  0.00000000000E+00 0. -1.
</event>
<event>
 7    1  0.6988825E-006  0.1009650E+03  0.7561462E-02  0.1278280E+00
          2   -1    0    0  501    0  0.00000000000E+00  0.00000000000E+00  0.39702857851E+03  0.39702857851E+03  0.00000000000E+00 0. -1.
         -2   -1    0    0    0  501 -0.00000000000E+00 -0.00000000000E+00 -0.33163918928E+02  0.33163918928E+02  0.00000000000E+00 0.  1.
         23    2    1    2    0    0 -0.14664658520E+02  0.33201287919E+02  0.16360029080E+03  0.19129520860E+03  0.92257378865E+02 0.  0.
          5    1    1    2  502    0  0.59835634225E+02 -0.49017829207E+02  0.15305796565E+03  0.17154376687E+03  0.41800000000E+01 0. -1.
         -5    1    1    2    0  502 -0.45170975705E+02  0.15816541289E+02  0.47206403135E+02  0.67353521967E+02  0.41800000000E+01 0. -1.
        -11    1    3    3    0    0  0.21491401094E+02 -0.67648147359E+01  0.11964910617E+03  0.12175200880E+03  0.00000000000E+00 0. -1.
         11    1    3    3    0    0 -0.36156059613E+02  0.39966102655E+02  0.43951184627E+02  0.69543199799E+02  0.00000000000E+00 0.  1.
</event>
<event>
 7    1  0.6988825E-006  0.1621290E+03  0.7561462E-02  0.1186314E+00
          2   -1    0    0  501    0  0.00000000000E+00  0.00000000000E+00  0.80686903053E+03  0.80686903053E+03  0.00000000000E+00 0.  1.
         -2   -1    0    0    0  501 -0.00000000000E+00 -0.00000000000E+00 -0.74309094970E+02  0.74309094970E+02  0.00000000000E+00 0. -1.
         23    2    1    2    0    0 -0.37986883406E+02  0.13281560680E+03  0.50272870036E+02  0.17389741858E+03  0.92897588797E+02 0.  0.
          5    1    1    2  502    0 -0.22721881375E+02 -0.23459435820E+02  0.35184147001E+02  0.48187401075E+02  0.41800000000E+01 0. -1.
         -5    1    1    2    0  502  0.60708764781E+02 -0.10935617098E+03  0.64710291852E+03  0.65909330585E+03  0.41800000000E+01 0. -1.
        -11    1    3    3    0    0 -0.55179869345E+02  0.13767269401E+03  0.41630084498E+02  0.15405081172E+03  0.00000000000E+00 0. -1.
         11    1    3    3    0    0  0.17192985939E+02 -0.48570872091E+01  0.86427855383E+01  0.19846606852E+02  0.00000000000E+00 0.  1.
</event>
<event>
 7    1  0.6988825E-006  0.1368003E+03  0.7561462E-02  0.1217700E+00
          1   -1    0    0  501    0  0.00000000000E+00  0.00000000000E+00  0.40148767203E+03  0.40148767203E+03  0.00000000000E+00 0. -1.
         -1   -1    0    0    0  501 -0.00000000000E+00 -0.00000000000E+00 -0.50023071161E+02  0.50023071161E+02  0.00000000000E+00 0.  1.
         23    2    1    2    0    0 -0.84737882364E+02  0.31268436829E+02  0.16963371746E+03  0.21304140565E+03  0.91939211290E+02 0.  0.
          5    1    1    2  502    0  0.11502819717E+03 -0.26402432260E+02  0.16592824427E+03  0.20366204659E+03  0.41800000000E+01 0. -1.
         -5    1    1    2    0  502 -0.30290314811E+02 -0.48660045686E+01  0.15902639137E+02  0.34807290951E+02  0.41800000000E+01 0. -1.
        -11    1    3    3    0    0 -0.19248029321E+02 -0.29487123579E+02  0.25528142511E+02  0.43493254072E+02  0.00000000000E+00 0.  1.
         11    1    3    3    0    0 -0.65489853043E+02  0.60755560407E+02  0.14410557495E+03  0.16954815158E+03  0.00000000000E+00 0. -1.
</event>
<event>
 7    1  0.6988825E-006  0.9563045E+02  0.7561462E-02  0.1289762E+00
         -2   -1    0    0    0  501 -0.00000000000E+00  0.00000000000E+00  0.26288478849E+02  0.26288478849E+02  0.00000000000E+00 0. -1.
          2   -1    0    0  501    0  0.00000000000E+00 -0.00000000000E+00 -0.59302233122E+03  0.59302233122E+03  0.00000000000E+00 0.  1.
         23    2    1    2    0    0  0.25839550216E+02  0.56107905753E+01 -0.98825671377E+02  0.13425012804E+03  0.86933424116E+02 0.  0.
          5    1    1    2  502    0  0.30098898982E+02 -0.31826950586E+02 -0.34127520480E+03  0.34410047416E+03  0.41800000000E+01 0. -1.
         -5    1    1    2    0  502 -0.55938449198E+02  0.26216160011E+02 -0.12663297619E+03  0.14096020787E+03  0.41800000000E+01 0. -1.
        -11    1    3    3    0    0 -0.45163322180E+01 -0.34634924698E+02 -0.64222841727E+02  0.73106420135E+02  0.00000000000E+00 0.  1.
         11    1    3    3    0    0  0.30355882434E+02  0.40245715273E+02 -0.34602829650E+02  0.61143707902E+02  0.00000000000E+00 0. -1.
</event>
<event>
 7    1  0.6988825E-006  0.1664277E+03  0.7561462E-02  0.1181625E+00
          2   -1    0    0  501    0  0.00000000000E+00  0.00000000000E+00  0.26948328652E+03  0.26948328652E+03  0.00000000000E+00 0. -1.
         -2   -1    0    0    0  501 -0.00000000000E+00 -0.00000000000E+00 -0.10416169181E+03  0.10416169181E+03  0.00000000000E+00 0.  1.
         23    2    1    2    0    0  0.61360230968E+02  0.11222796637E+03  0.86838668977E+02  0.17828221119E+03  0.88788501598E+02 0.  0.
          5    1    1    2  502    0 -0.96221124758E+02 -0.10369597677E+03  0.52884159335E+02  0.15108132630E+03  0.41800000000E+01 0.  1.
         -5    1    1    2    0  502  0.34860893790E+02 -0.85319896029E+01  0.25598766397E+02  0.44281440847E+02  0.41800000000E+01 0.  1.
        -11    1    3    3    0    0  0.78524911275E+02  0.11346876909E+03  0.72469515593E+02  0.15586261239E+03  0.00000000000E+00 0.  1.
         11    1    3    3    0    0 -0.17164680307E+02 -0.12408027185E+01  0.14369153384E+02  0.22419598801E+02  0.00000000000E+00 0. -1.
</event>
<event>
 7    1  0.6988825E-006  0.1061103E+03  0.7561462E-02  0.1267947E+00
         -1   -1    0    0    0  501 -0.00000000000E+00  0.00000000000E+00  0.10588141997E+03  0.10588141997E+03  0.00000000000E+00 0.  1.
          1   -1    0    0  501    0  0.00000000000E+00 -0.00000000000E+00 -0.15509259948E+03  0.15509259948E+03  0.00000000000E+00 0. -1.
         23    2    1    2    0    0 -0.23078494940E+02 -0.49131932994E+02  0.19466924949E+02  0.10830950809E+03  0.91681102786E+02 0.  0.
          5    1    1    2  502    0  0.59571750287E+02  0.71537166480E+02 -0.50075329495E+02  0.10578927471E+03  0.41800000000E+01 0. -1.
         -5    1    1    2    0  502 -0.36493255347E+02 -0.22405233486E+02 -0.18602774967E+02  0.46875236638E+02  0.41800000000E+01 0. -1.
        -11    1    3    3    0    0  0.14131936547E+02 -0.32122733054E+02  0.47247956281E+02  0.58855339453E+02  0.00000000000E+00 0.  1.
         11    1    3    3    0    0 -0.37210431486E+02 -0.17009199940E+02 -0.27781031332E+02  0.49454168640E+02  0.00000000000E+00 0. -1.
</event>
<event>
 7    1  0.6988825E-006  0.1355698E+03  0.7561462E-02  0.1219418E+00
          2   -1    0    0  501    0  0.00000000000E+00  0.00000000000E+00  0.90320818342E+03  0.90320818342E+03  0.00000000000E+00 0. -1.
         -2   -1    0    0    0  501 -0.00000000000E+00 -0.00000000000E+00 -0.28235950182E+02  0.28235950182E+02  0.00000000000E+00 0.  1.
         23    2    1    2    0    0  0.43151011320E+02 -0.84624021792E+02  0.20779618373E+03  0.24602880251E+03  0.91256138690E+02 0.  0.
          5    1    1    2  502    0 -0.78317414276E+02  0.84423476771E+02  0.41264567872E+03  0.42843303954E+03  0.41800000000E+01 0.  1.
         -5    1    1    2    0  502  0.35166402956E+02  0.20054502022E+00  0.25453037079E+03  0.25698229155E+03  0.41800000000E+01 0.  1.
        -11    1    3    3    0    0  0.14851570899E+02 -0.90398635529E+02  0.19286121158E+03  0.21351330028E+03  0.00000000000E+00 0. -1.
         11    1    3    3    0    0  0.28299440422E+02  0.57746137374E+01  0.14934972145E+02  0.32515502226E+02  0.00000000000E+00 0.  1.
</event>
<event>
 6    1  0.6988825E-006  0.8059201E+02  0.7561462E-02  0.1327380E+00
         -2   -1    0    0    0  501 -0.00000000000E+00  0.00000000000E+00  0.91645008263E+01  0.91645008263E+01  0.00000000000E+00 0. -1.
          2   -1    0    0  501    0  0.00000000000E+00 -0.00000000000E+00 -0.17310893547E+04  0.17310893547E+04  0.00000000000E+00 0.  1.
          5    1    1    2  502    0 -0.35199738071E+02 -0.10600135194E+02 -0.31193978841E+03  0.31412623008E+03  0.41800000000E+01 0. -1.
         -5    1    1    2    0  502  0.63510618953E+02  0.37046137811E+02 -0.13252765775E+04  0.13273211723E+04  0.41800000000E+01 0.  1.
        -11    1    1    2    0    0 -0.10374696383E+02  0.70516036223E+01 -0.16483235985E+02  0.20713679229E+02  0.00000000000E+00 0.  1.
         11    1    1    2    0    0 -0.17936184499E+02 -0.33497606238E+02 -0.68225251950E+02  0.78092773941E+02  0.00000000000E+00 0. -1.
</event>
<event>
 7    1  0.6988825E-006  0.9284317E+02  0.7561462E-02  0.1296109E+00
         -1   -1    0    0    0  501 -0.00000000000E+00  0.00000000000E+00  0.15784779367E+02  0.15784779367E+02  0.00000000000E+00 0.  1.
          1   -1    0    0  501    0  0.00000000000E+00 -0.00000000000E+00 -0.89629856431E+03  0.89629856431E+03  0.00000000000E+00 0. -1.
         23    2    1    2    0    0  0.38446603951E+02 -0.27103662261E+02 -0.43495021657E+03  0.44690923369E+03  0.91287580728E+02 0.  0.
          5    1    1    2  502    0  0.82749741054E+00  0.46795739466E+02 -0.39612746012E+03  0.39890470422E+03  0.41800000000E+01 0. -1.
         -5    1    1    2    0  502 -0.39274101361E+02 -0.19692077205E+02 -0.49436108242E+02  0.66269405766E+02  0.41800000000E+01 0. -1.
        -11    1    3    3    0    0 -0.24915289473E+02  0.16779257484E+01 -0.51979153952E+02  0.57666450644E+02  0.00000000000E+00 0.  1.
         11    1    3    3    0    0  0.63361893424E+02 -0.28781588010E+02 -0.38297106262E+03  0.38924278304E+03  0.00000000000E+00 0. -1.
</event>
<event>
 7    1  0.6988825E-006  0.1452550E+03  0.7561462E-02  0.1206428E+00
          1   -1    0    0  501    0  0.00000000000E+00  0.00000000000E+00  0.41698639066E+03  0.41698639066E+03  0.00000000000E+00 0. -1.
         -1   -1    0    0    0  501 -0.00000000000E+00 -0.00000000000E+00 -0.56898600161E+02  0.56898600161E+02  0.00000000000E+00 0.  1.
         23    2    1    2    0    0  0.10390687108E+03 -0.19217642435E+02  0.20942352600E+03  0.25136418969E+03  0.90331539222E+02 0.  0.
          5    1    1    2  502    0 -0.30356416353E+02 -0.45958355732E+02  0.19512658972E+02  0.58582409779E+02  0.41800000000E+01 0.  1.
         -5    1    1    2    0  502 -0.73550454725E+02  0.65175998166E+02  0.13115160554E+03  0.16393839136E+03  0.41800000000E+01 0.  1.
        -11    1    3    3    0    0  0.79056508448E+02  0.27740916571E+02  0.10619360086E+03  0.13526481747E+03  0.00000000000E+00 0.  1.
         11    1    3    3    0    0  0.24850362630E+02 -0.46958559005E+02  0.10322992513E+03  0.11609937222E+03  0.00000000000E+00 0. -1.
</event>
<event>
 7    1  0.6988825E-006  0.1434635E+03  0.7561462E-02  0.1208743E+00
          2   -1    0    0  501    0  0.00000000000E+00  0.00000000000E+00  0.37821800672E+03  0.37821800672E+03  0.00000000000E+00 0. -1.
         -2   -1    0    0    0  501 -0.00000000000E+00 -0.00000000000E+00 -0.67945363618E+02  0.67945363618E+02  0.00000000000E+00 0.  1.
         23    2    1    2    0    0  0.11324943211E+03  0.19305320621E+02  0.10946097827E+03  0.18315974074E+03  0.91474890473E+02 0.  0.
          5    1    1    2  502    0 -0.42400022781E+02 -0.70046494216E+02  0.10842064105E+03  0.13592932387E+03  0.41800000000E+01 0.  1.
         -5    1    1    2    0  502 -0.70849409326E+02  0.50741173595E+02  0.92391023788E+02  0.12707430573E+03  0.41800000000E+01 0.  1.
        -11    1    3    3    0    0  0.82593202983E+02  0.25457793156E+02  0.20446328194E+02  0.88813223948E+02  0.00000000000E+00 0.  1.
         11    1    3    3    0    0  0.30656229125E+02 -0.61524725355E+01  0.89014650079E+02  0.94346516794E+02  0.00000000000E+00 0. -1.
</event>
<event>
 7    1  0.6988825E-006  0.2042224E+03  0.7561462E-02  0.1146225E+00
          1   -1    0    0  501    0  0.00000000000E+00  0.00000000000E+00  0.37097674319E+03  0.37097674319E+03  0.00000000000E+00 0. -1.
         -1   -1    0    0    0  501 -0.00000000000E+00 -0.00000000000E+00 -0.14905637892E+03  0.14905637892E+03  0.00000000000E+00 0.  1.
         23    2    1    2    0    0 -0.10199305132E+03 -0.16022241356E+03  0.17901574666E+02  0.21450853996E+03  0.98079778829E+02 0.  0.
          5    1    1    2  502    0 -0.18049067251E+02  0.25869499155E+02 -0.19060424834E+01  0.31876405272E+02  0.41800000000E+01 0. -1.
         -5    1    1    2    0  502  0.12004211857E+03  0.13435291441E+03  0.20592483208E+03  0.27364817688E+03  0.41800000000E+01 0. -1.
        -11    1    3    3    0    0 -0.27145606307E+01 -0.41748787010E+02 -0.31351040453E+02  0.52280185479E+02  0.00000000000E+00 0.  1.
         11    1    3    3    0    0 -0.99278490685E+02 -0.11847362655E+03  0.49252615119E+02  0.16222835448E+03  0.00000000000E+00 0. -1.
</event>
<event>
 7    1  0.6988825E-006  0.1381052E+03  0.7561462E-02  0.1215902E+00
         -1   -1    0    0    0  501 -0.00000000000E+00  0.00000000000E+00  0.79962773747E+03  0.79962773747E+03  0.00000000000E+00 0.  1.
          1   -1    0    0  501    0  0.00000000000E+00 -0.00000000000E+00 -0.29098562930E+02  0.29098562930E+02  0.00000000000E+00 0. -1.
         23    2    1    2    0    0 -0.10253253468E+03 -0.30915109030E+02  0.37603134361E+03  0.40123955396E+03  0.90138469300E+02 0.  0.
          5    1    1    2  502    0  0.18504877044E+02 -0.43983557547E+02  0.77909117021E+02  0.91456474478E+02  0.41800000000E+01 0.  1.
         -5    1    1    2    0  502  0.84027657638E+02  0.74898666577E+02  0.31658871390E+03  0.33603027196E+03  0.41800000000E+01 0.  1.
        -11    1    3    3    0    0 -0.25652321239E+02  0.11221027319E+02  0.19582521617E+02  0.34167648323E+02  0.00000000000E+00 0. -1.
         11    1    3    3    0    0 -0.76880213442E+02 -0.42136136348E+02  0.35644882200E+03  0.36707190564E+03  0.00000000000E+00 0.  1.
</event>
<event>
 7    1  0.6988825E-006  0.1135787E+03  0.7561462E-02  0.1254083E+00
         -2   -1    0    0    0  501 -0.00000000000E+00  0.00000000000E+00  0.38848464872E+02  0.38848464872E+02  0.00000000000E+00 0.  1.
          2   -1    0    0  501    0  0.00000000000E+00 -0.00000000000E+00 -0.74283421060E+03  0.74283421060E+03  0.00000000000E+00 0. -1.
         23    2    1    2    0    0  0.40313186472E+02  0.94977284119E+02 -0.14820383101E+03  0.20272927901E+03  0.92135484704E+02 0.  0.
          5    1    1    2  502    0 -0.52714822015E+02 -0.59914984901E+02 -0.13776854530E+03  0.15926802049E+03  0.41800000000E+01 0.  1.
         -5    1    1    2    0  502  0.12401635544E+02 -0.35062299219E+02 -0.41801336942E+03  0.41968537597E+03  0.41800000000E+01 0.  1.
        -11    1    3    3    0    0  0.46291142154E+02  0.68496942953E+02 -0.41264993437E+02  0.92398596955E+02  0.00000000000E+00 0.  1.
         11    1    3    3    0    0 -0.59779556821E+01  0.26480341166E+02 -0.10693883757E+03  0.11033068206E+03  0.00000000000E+00 0. -1.
</event>
<event>
 7    1  0.6988825E-006  0.1502028E+03  0.7561462E-02  0.1200224E+00
          2   -1    0    0  501    0  0.00000000000E+00  0.00000000000E+00  0.94620698028E+03  0.94620698028E+03  0.00000000000E+00 0. -1.
         -2   -1    0    0    0  501 -0.00000000000E+00 -0.00000000000E+00 -0.28637799882E+02  0.28637799882E+02  0.00000000000E+00 0.  1.
         23    2    1    2    0    0  0.51655760443E+02 -0.11294605937E+03  0.39692111390E+03  0.42516624314E+03  0.88288355558E+02 0.  0.
          5    1    1    2  502    0 -0.12587045719E+02  0.11072513422E+03  0.48121464801E+03  0.49396710308E+03  0.41800000000E+01 0. -1.
         -5    1    1    2    0  502 -0.39068714725E+02  0.22209251439E+01  0.39433418489E+02  0.55711433948E+02  0.41800000000E+01 0. -1.
        -11    1    3    3    0    0 -0.18865546788E+02 -0.55366887230E+02  0.11690768724E+03  0.13072416912E+03  0.00000000000E+00 0. -1.
         11    1    3    3    0    0  0.70521307231E+02 -0.57579172137E+02  0.28001342667E+03  0.29444207402E+03  0.00000000000E+00 0.  1.
</event>
<event>
 7    1  0.6988825E-006  0.1248879E+03  0.7561462E-02  0.1235245E+00
         -2   -1    0    0    0  501 -0.00000000000E+00  0.00000000000E+00  0.11149246720E+03  0.11149246720E+03  0.00000000000E+00 0.  1.
          2   -1    0    0  501    0  0.00000000000E+00 -0.00000000000E+00 -0.15247693806E+03  0.15247693806E+03  0.00000000000E+00 0. -1.
         23    2    1    2    0    0 -0.15721443506E+02  0.71388576581E+02 -0.59504806922E+01  0.11491028061E+03  0.88461696334E+02 0.  0.
          5    1    1    2  502    0 -0.24501910181E+02  0.24982895919E+02  0.78255696110E+01  0.36099870232E+02  0.41800000000E+01 0.  1.
         -5    1    1    2    0  502  0.40223353687E+02 -0.96371472500E+02 -0.42859559778E+02  0.11295925442E+03  0.41800000000E+01 0.  1.
        -11    1    3    3    0    0  0.15684289469E+02  0.76597833519E+02 -0.19068263573E+02  0.80478715892E+02  0.00000000000E+00 0.  1.
         11    1    3    3    0    0 -0.31405732975E+02 -0.52092569378E+01  0.13117782881E+02  0.34431564723E+02  0.00000000000E+00 0. -1.
</event>
<event>
 7    1  0.6988825E-006  0.1124693E+03  0.7561462E-02  0.1256064E+00
         -2   -1    0    0    0  501 -0.00000000000E+00  0.00000000000E+00  0.14636187729E+02  0.14636187729E+02  0.00000000000E+00 0. -1.
          2   -1    0    0  501    0  0.00000000000E+00 -0.00000000000E+00 -0.12715269254E+04  0.12715269254E+04  0.00000000000E+00 0.  1.
         23    2    1    2    0    0 -0.23634205964E+01 -0.25968673842E+02 -0.20865007325E+03  0.23016254081E+03  0.93594788040E+02 0.  0.
          5    1    1    2  502    0 -0.61231038572E+02  0.11899735984E+02 -0.51518178219E+03  0.51896106299E+03  0.41800000000E+01 0. -1.
         -5    1    1    2    0  502  0.63594459169E+02  0.14068937858E+02 -0.53305888226E+03  0.53703950936E+03  0.41800000000E+01 0. -1.
        -11    1    3    3    0    0  0.39911427387E+02  0.10560839091E+02 -0.89607790929E+02  0.98661084291E+02  0.00000000000E+00 0.  1.
         11    1    3    3    0    0 -0.42274847983E+02 -0.36529512933E+02 -0.11904228232E+03  0.13150145652E+03  0.00000000000E+00 0. -1.
</event>
<event>
 7    1  0.6988825E-006  0.1251548E+03  0.7561462E-02  0.1234828E+00
         -2   -1    0    0    0  501 -0.00000000000E+00  0.00000000000E+00  0.30746831686E+02  0.30746831686E+02  0.00000000000E+00 0.  1.
          2   -1    0    0  501    0  0.00000000000E+00 -0.00000000000E+00 -0.67156301807E+03  0.67156301807E+03  0.00000000000E+00 0. -1.
         23    2    1    2    0    0 -0.46105999272E+02  0.72221235573E+02 -0.18656608118E+03  0.22462809537E+03  0.91154860242E+02 0.  0.
          5    1    1    2  502    0  0.70562552931E+02 -0.27792611043E+02 -0.38095888984E+03  0.38845675596E+03  0.41800000000E+01 0. -1.
         -5    1    1    2    0  502 -0.24456553659E+02 -0.44428624529E+02 -0.73291215363E+02  0.89224998424E+02  0.41800000000E+01 0.  1.
        -11    1    3    3    0    0  0.26281979414E+02  0.29094490677E+02 -0.77011389604E+02  0.86417509559E+02  0.00000000000E+00 0. -1.
         11    1    3    3    0    0 -0.72387978686E+02  0.43126744896E+02 -0.10955469158E+03  0.13821058581E+03  0.00000000000E+00 0.  1.
</event>
<event>
 7    1  0.6988825E-006  0.1051061E+03  0.7561462E-02  0.1269911E+00
          3   -1    0    0  501    0  0.00000000000E+00  0.00000000000E+00  0.22486681449E+03  0.22486681449E+03  0.00000000000E+00 0. -1.
         -3   -1    0    0    0  501 -0.00000000000E+00 -0.00000000000E+00 -0.53966396844E+02  0.53966396844E+02  0.00000000000E+00 0.  1.
         23    2    1    2    0    0  0.40144028277E+01 -0.18686160850E+02  0.62364879163E+02  0.11212206533E+03  0.91195895426E+02 0.  0.
          5    1    1    2  502    0  0.63344582267E+01 -0.51652454052E+02  0.64489056119E+02  0.82972357624E+02  0.41800000000E+01 0.  1.
         -5    1    1    2    0  502 -0.10348861054E+02  0.70338614901E+02  0.44046482363E+02  0.83738788383E+02  0.41800000000E+01 0.  1.
        -11    1    3    3    0    0  0.36969450328E+02  0.14783605308E+02  0.49295788555E+02  0.63366947320E+02  0.00000000000E+00 0. -1.
         11    1    3    3    0    0 -0.32955047501E+02 -0.33469766157E+02  0.13069090609E+02  0.48755118006E+02  0.00000000000E+00 0.  1.
</event>
<event>
 7    1  0.6988825E-006  0.9745527E+02  0.7561462E-02  0.1285740E+00
         -1   -1    0    0    0  501 -0.00000000000E+00  0.00000000000E+00  0.51489652232E+02  0.51489652232E+02  0.00000000000E+00 0.  1.
          1   -1    0    0  501    0  0.00000000000E+00 -0.00000000000E+00 -0.31502946056E+03  0.31502946056E+03  0.00000000000E+00 0. -1.
         23    2    1    2    0    0  0.56754747849E+02  0.25985368875E+02 -0.73526641159E+02  0.13061874692E+03  0.88083762912E+02 0.  0.
          5    1    1    2  502    0 -0.21530861079E+02  0.45421677510E+02 -0.34410675690E+02  0.61059591942E+02  0.41800000000E+01 0. -1.
         -5    1    1    2    0  502 -0.35223886770E+02 -0.71407046385E+02 -0.15560249148E+03  0.17484077392E+03  0.41800000000E+01 0. -1.
        -11    1    3    3    0    0  0.27733975979E+02  0.33522176494E+01 -0.87039996348E+02  0.91413192434E+02  0.00000000000E+00 0. -1.
         11    1    3    3    0    0  0.29020771871E+02  0.22633151226E+02  0.13513355189E+02  0.39205554490E+02  0.00000000000E+00 0.  1.
</event>
<event>
 7    1  0.6988825E-006  0.1215238E+03  0.7561462E-02  0.1240604E+00
          2   -1    0    0  501    0  0.00000000000E+00  0.00000000000E+00  0.13572607735E+04  0.13572607735E+04  0.00000000000E+00 0. -1.
         -2   -1    0    0    0  501 -0.00000000000E+00 -0.00000000000E+00 -0.14736965388E+02  0.14736965388E+02  0.00000000000E+00 0.  1.
         23    2    1    2    0    0 -0.47338201893E+02 -0.51317195526E+02  0.38654978041E+03  0.40535087921E+03  0.10007118778E+03 0.  0.
          5    1    1    2  502    0 -0.35867298273E+02 -0.12067563574E+02  0.22103763216E+03  0.22429265795E+03  0.41800000000E+01 0.  1.
         -5    1    1    2    0  502  0.83205500166E+02  0.63384759100E+02  0.73493639549E+03  0.74235420169E+03  0.41800000000E+01 0.  1.
        -11    1    3    3    0    0  0.40845734294E+01  0.15471450820E+02  0.87007780943E+01  0.18214089876E+02  0.00000000000E+00 0.  1.
         11    1    3    3    0    0 -0.51422775322E+02 -0.66788646346E+02  0.37784900232E+03  0.38713678934E+03  0.00000000000E+00 0. -1.
</event>
<event>
 7    1  0.6988825E-006  0.1199673E+03  0.7561462E-02  0.1243151E+00
          2   -1    0    0  501    0  0.00000000000E+00  0.00000000000E+00  0.81023006399E+03  0.81023006399E+03  0.00000000000E+00 0. -1.
         -2   -1    0    0    0  501 -0.00000000000E+00 -0.00000000000E+00 -0.26264940849E+02  0.26264940849E+02  0.00000000000E+00 0.  1.
         23    2    1    2    0    0  0.73919313877E+02  0.58856545239E+02  0.26972217606E+03  0.29888736909E+03  0.87495424218E+02 0.  0.
          5    1    1    2  502    0  0.18805548043E+02 -0.58553433411E+01  0.27306118328E+03  0.27380251259E+03  0.41800000000E+01 0.  1.
         -5    1    1    2    0  502 -0.92724861919E+02 -0.53001201898E+02  0.24118176379E+03  0.26380512316E+03  0.41800000000E+01 0.  1.
        -11    1    3    3    0    0  0.54561779605E+02  0.71390583907E+02  0.13475724869E+03  0.16196641423E+03  0.00000000000E+00 0.  1.
         11    1    3    3    0    0  0.19357534272E+02 -0.12534038668E+02  0.13496492738E+03  0.13692095486E+03  0.00000000000E+00 0. -1.
</event>
<event>
 7    1  0.6988825E-006  0.8739769E+02  0.7561462E-02  0.1309279E+00
          1   -1    0    0  501    0  0.00000000000E+00  0.00000000000E+00  0.49377745625E+03  0.49377745625E+03  0.00000000000E+00 0. -1.
         -1   -1    0    0    0  501 -0.00000000000E+00 -0.00000000000E+00 -0.26879596186E+02  0.26879596186E+02  0.00000000000E+00 0.  1.
         23    2    1    2    0    0  0.44518861273E+02 -0.66898306770E+01  0.17502193471E+03  0.19993004911E+03  0.85514116166E+02 0.  0.
          5    1    1    2  502    0 -0.55335053479E+02  0.55577115610E+02  0.13712301584E+03  0.15802208009E+03  0.41800000000E+01 0. -1.
         -5    1    1    2    0  502  0.10816192206E+02 -0.48887284933E+02  0.15475290952E+03  0.16270492324E+03  0.41800000000E+01 0. -1.
        -11    1    3    3    0    0  0.98116601959E+01 -0.55824165404E+01 -0.78761976203E+01  0.13764684493E+02  0.00000000000E+00 0.  1.
         11    1    3    3    0    0  0.34707201077E+02 -0.11074141366E+01  0.18289813233E+03  0.18616536462E+03  0.00000000000E+00 0. -1.
</event>
<event>
 7    1  0.6988825E-006  0.1042375E+03  0.7561462E-02  0.1271629E+00
          2   -1    0    0  501    0  0.00000000000E+00  0.00000000000E+00  0.61251511580E+03  0.61251511580E+03  0.00000000000E+00 0. -1.
         -2   -1    0    0    0  501 -0.00000000000E+00 -0.00000000000E+00 -0.24189670227E+02  0.24189670227E+02  0.00000000000E+00 0.  1.
         23    2    1    2    0    0 -0.10925740458E+02 -0.87837296433E+01  0.11281302631E+03  0.14481381544E+03  0.89709177497E+02 0.  0.
          5    1    1    2  502    0 -0.28386372172E+02 -0.43520873128E+02  0.30075976468E+03  0.30524377303E+03  0.41800000000E+01 0. -1.
         -5    1    1    2    0  502  0.39312112630E+02  0.52304602771E+02  0.17475265458E+03  0.18664719755E+03  0.41800000000E+01 0. -1.
        -11    1    3    3    0    0 -0.49285900380E+02 -0.15860975423E+02  0.65647372494E+02  0.83607703192E+02  0.00000000000E+00 0. -1.
         11    1    3    3    0    0  0.38360159923E+02  0.70772457798E+01  0.47165653813E+02  0.61206112250E+02  0.00000000000E+00 0.  1.
</event>
<event>
 7    1  0.6988825E-006  0.1271375E+03  0.7561462E-02  0.1231766E+00
          2   -1    0    0  501    0  0.00000000000E+00  0.00000000000E+00  0.28226469182E+03  0.28226469182E+03  0.00000000000E+00 0.  1.
         -2   -1    0    0    0  501 -0.00000000000E+00 -0.00000000000E+00 -0.83611303526E+02  0.83611303526E+02  0.00000000000E+00 0. -1.
         23    2    1    2    0    0 -0.34293872974E+02  0.77593154350E+02  0.15039535529E+02  0.12805651943E+03  0.94739206313E+02 0.  0.
          5    1    1    2  502    0  0.61313857268E+02 -0.92968237151E+02  0.17078396100E+03  0.20392919346E+03  0.41800000000E+01 0.  1.
         -5    1    1    2    0  502 -0.27019984294E+02  0.15375082801E+02  0.12829891768E+02  0.33890282459E+02  0.41800000000E+01 0.  1.
        -11    1    3    3    0    0 -0.17929772851E+01  0.78914184343E+02  0.38624768690E+02  0.87877960914E+02  0.00000000000E+00 0.  1.
         11    1    3    3    0    0 -0.32500895689E+02 -0.13210299928E+01 -0.23585233161E+02  0.40178558511E+02  0.00000000000E+00 0. -1.
</event>
<event>
 7    1  0.6988825E-006  0.1187591E+03  0.7561462E-02  0.1245158E+00
          1   -1    0    0  501    0  0.00000000000E+00  0.00000000000E+00  0.14521725072E+03  0.14521725072E+03  0.00000000000E+00 0. -1.
         -1   -1    0    0    0  501 -0.00000000000E+00 -0.00000000000E+00 -0.10789514105E+03  0.10789514105E+03  0.00000000000E+00 0.  1.
         23    2    1    2    0    0 -0.55690711782E+02  0.98524129168E+01 -0.12420306465E+01  0.11051783723E+03  0.94942742150E+02 0.  0.
          5    1    1    2  502    0 -0.26363955966E+02  0.27629675119E+02  0.35386749341E+02  0.52231710198E+02  0.41800000000E+01 0.  1.
         -5    1    1    2    0  502  0.82054667748E+02 -0.37482088035E+02  0.31773909762E+01  0.90362844334E+02  0.41800000000E+01 0.  1.
        -11    1    3    3    0    0 -0.98651751331E+01  0.48101500853E+02 -0.10222234890E+02  0.50155459831E+02  0.00000000000E+00 0.  1.
         11    1    3    3    0    0 -0.45825536649E+02 -0.38249087936E+02  0.89802042431E+01  0.60362377400E+02  0.00000000000E+00 0. -1.
</event>
<event>
 7    1  0.6988825E-006  0.1443137E+03  0.7561462E-02  0.1207640E+00
         -1   -1    0    0    0  501 -0.00000000000E+00  0.00000000000E+00  0.37826425797E+02  0.37826425797E+02  0.00000000000E+00 0.  1.
          1   -1    0    0  501    0  0.00000000000E+00 -0.00000000000E+00 -0.95556110380E+03  0.95556110380E+03  0.00000000000E+00 0. -1.
         23    2    1    2    0    0  0.91158101470E+02  0.72714588248E+02 -0.16964180555E+03  0.22599558775E+03  0.93265495692E+02 0.  0.
          5    1    1    2  502    0 -0.19911256892E+02  0.35764777616E+02 -0.17493379405E+03  0.17970776881E+03  0.41800000000E+01 0. -1.
         -5    1    1    2    0  502 -0.71246844578E+02 -0.10847936586E+03 -0.57315907840E+03  0.58768417304E+03  0.41800000000E+01 0. -1.
        -11    1    3    3    0    0  0.27971107186E+02  0.13603396980E+02 -0.12464855102E+03  0.12847060566E+03  0.00000000000E+00 0.  1.
         11    1    3    3    0    0  0.63186994284E+02  0.59111191267E+02 -0.44993254527E+02  0.97524982095E+02  0.00000000000E+00 0. -1.
</event>
<event>
 7    1  0.6988825E-006  0.9290445E+02  0.7561462E-02  0.1295967E+00
         -2   -1    0    0    0  501 -0.00000000000E+00  0.00000000000E+00  0.25282710586E+02  0.25282710586E+02  0.00000000000E+00 0.  1.
          2   -1    0    0  501    0  0.00000000000E+00 -0.00000000000E+00 -0.70190332550E+03  0.70190332550E+03  0.00000000000E+00 0. -1.
         23    2    1    2    0    0  0.66882982171E+02  0.90817776694E+01 -0.20945690202E+03  0.23887492102E+03  0.92915133843E+02 0.  0.
          5    1    1    2  502    0 -0.61234224067E+02  0.90169501417E+01 -0.46460485270E+03  0.46872814844E+03  0.41800000000E+01 0.  1.
         -5    1    1    2    0  502 -0.56487581038E+01 -0.18098727811E+02 -0.25588601916E+01  0.19582966629E+02  0.41800000000E+01 0.  1.
        -11    1    3    3    0    0  0.45667400423E+02  0.44054767262E+02 -0.17230226793E+03  0.18361482923E+03  0.00000000000E+00 0. -1.
         11    1    3    3    0    0  0.21215581749E+02 -0.34972989592E+02 -0.37154634098E+02  0.55260091793E+02  0.00000000000E+00 0.  1.
</event>
<event>
 7    1  0.6988825E-006  0.2215788E+03  0.7561462E-02  0.1132711E+00
          2   -1    0    0  501    0  0.00000000000E+00  0.00000000000E+00  0.10050228041E+04  0.10050228041E+04  0.00000000000E+00 0. -1.
         -2   -1    0    0    0  501 -0.00000000000E+00 -0.00000000000E+00 -0.60062677413E+02  0.60062677413E+02  0.00000000000E+00 0.  1.
         23    2    1    2    0    0  0.20762686797E+03  0.36048554099E+02  0.32137088314E+03  0.39507023404E+03  0.91612394010E+02 0.  0.
          5    1    1    2  502    0 -0.16309983501E+03 -0.41469352634E+02  0.59074771842E+03  0.61426509147E+03  0.41800000000E+01 0. -1.
         -5    1    1    2    0  502 -0.44527032967E+02  0.54207985351E+01  0.32841525137E+02  0.55750156008E+02  0.41800000000E+01 0. -1.
        -11    1    3    3    0    0  0.13257714805E+03 -0.22637040156E+02  0.19060948368E+03  0.23328332782E+03  0.00000000000E+00 0.  1.
         11    1    3    3    0    0  0.75049719923E+02  0.58685594255E+02  0.13076139947E+03  0.16178690622E+03  0.00000000000E+00 0. -1.
</event>
<event>
 7    1  0.6988825E-006  0.1409433E+03  0.7561462E-02  0.1212065E+00
         -2   -1    0    0    0  501 -0.00000000000E+00  0.00000000000E+00  0.11143015725E+03  0.11143015725E+03  0.00000000000E+00 0. -1.
          2   -1    0    0  501    0  0.00000000000E+00 -0.00000000000E+00 -0.31737175830E+03  0.31737175830E+03  0.00000000000E+00 0.  1.
         23    2    1    2    0    0  0.47942899792E+02 -0.12690066611E+03 -0.20480690483E+02  0.14776567996E+03  0.54890224935E+02 0.  0.
          5    1    1    2  502    0 -0.14952407743E+02  0.31456454439E+02 -0.17606879495E+03  0.17952931788E+03  0.41800000000E+01 0.  1.
         -5    1    1    2    0  502 -0.32990492049E+02  0.95444211666E+02 -0.93921156102E+01  0.10150691770E+03  0.41800000000E+01 0. -1.
        -11    1    3    3    0    0  0.44951355823E+02 -0.44403658210E+02 -0.22466684515E+01  0.63224653197E+02  0.00000000000E+00 0.  1.
         11    1    3    3    0    0  0.29915439691E+01 -0.82497007895E+02 -0.18234022031E+02  0.84541026765E+02  0.00000000000E+00 0. -1.
</event>
<event>
 7    1  0.6988825E-006  0.1091278E+03  0.7561462E-02  0.1262194E+00
         -2   -1    0    0    0  501 -0.00000000000E+00  0.00000000000E+00  0.23755084973E+03  0.23755084973E+03  0.00000000000E+00 0.  1.
          2   -1    0    0  501    0  0.00000000000E+00 -0.00000000000E+00 -0.87881542076E+02  0.87881542076E+02  0.00000000000E+00 0. -1.
         23    2    1    2    0    0  0.67930897965E+02 -0.50530833185E+02  0.10760416390E+03  0.16863645567E+03  0.98446056757E+02 0.  0.
          5    1    1    2  502    0 -0.75685032462E+02  0.39835438360E+02 -0.24290607279E+02  0.89008945000E+02  0.41800000000E+01 0.  1.
         -5    1    1    2    0  502  0.77541344967E+01  0.10695394825E+02  0.66355751036E+02  0.67786991140E+02  0.41800000000E+01 0.  1.
        -11    1    3    3    0    0  0.20223270045E+02 -0.65672978854E+02  0.27154390461E+02  0.73886952327E+02  0.00000000000E+00 0.  1.
         11    1    3    3    0    0  0.47707627920E+02  0.15142145669E+02  0.80449773435E+02  0.94749503339E+02  0.00000000000E+00 0. -1.
</event>
<event>
 7    1  0.6988825E-006  0.9934617E+02  0.7561462E-02  0.1281677E+00
         -1   -1    0    0    0  501 -0.00000000000E+00  0.00000000000E+00  0.84263862995E+02  0.84263862995E+02  0.00000000000E+00 0.  1.
          1   -1    0    0  501    0  0.00000000000E+00 -0.00000000000E+00 -0.17350085434E+03  0.17350085434E+03  0.00000000000E+00 0. -1.
         23    2    1    2    0    0  0.17583683062E+01 -0.39400062065E+02 -0.87750318752E+01  0.10389062544E+03  0.95712089726E+02 0.  0.
          5    1    1    2  502    0 -0.60641231075E+02  0.37852797649E+02 -0.37376436524E+02  0.80775389837E+02  0.41800000000E+01 0. -1.
         -5    1    1    2    0  502  0.58882862769E+02  0.15472644157E+01 -0.43085522942E+02  0.73098702055E+02  0.41800000000E+01 0. -1.
        -11    1    3    3    0    0  0.98351132977E+01  0.12275987834E+02  0.33258166127E+02  0.36790419201E+02  0.00000000000E+00 0.  1.
         11    1    3    3    0    0 -0.80767449915E+01 -0.51676049898E+02 -0.42033198002E+02  0.67100206237E+02  0.00000000000E+00 0. -1.
</event>
<event>
 7    1  0.6988825E-006  0.1035854E+03  0.7561462E-02  0.1272932E+00
          2   -1    0    0  501    0  0.00000000000E+00  0.00000000000E+00  0.24913043380E+03  0.24913043380E+03  0.00000000000E+00 0. -1.
         -2   -1    0    0    0  501 -0.00000000000E+00 -0.00000000000E+00 -0.71611406366E+02  0.71611406366E+02  0.00000000000E+00 0.  1.
         23    2    1    2    0    0  0.84464453924E+01  0.47761496340E+02  0.68230467638E+01  0.10363123129E+03  0.91325654440E+02 0.  0.
          5    1    1    2  502    0 -0.17836007995E+02 -0.88255493431E+02  0.13405829933E+03  0.16154335431E+03  0.41800000000E+01 0.  1.
         -5    1    1    2    0  502  0.93895626031E+01  0.40493997091E+02  0.36637681339E+02  0.55567254568E+02  0.41800000000E+01 0.  1.
        -11    1    3    3    0    0  0.24123650480E+02 -0.89106377498E+00 -0.31541890259E+02  0.39719458056E+02  0.00000000000E+00 0.  1.
         11    1    3    3    0    0 -0.15677205087E+02  0.48652560115E+02  0.38364937023E+02  0.63911773234E+02  0.00000000000E+00 0. -1.
</event>
<event>
 7    1  0.6988825E-006  0.1542966E+03  0.7561462E-02  0.1195291E+00
         -1   -1    0    0    0  501 -0.00000000000E+00  0.00000000000E+00  0.54655496406E+03  0.54655496406E+03  0.00000000000E+00 0.  1.
          1   -1    0    0  501    0  0.00000000000E+00 -0.00000000000E+00 -0.83371798736E+02  0.83371798736E+02  0.00000000000E+00 0. -1.
         23    2    1    2    0    0 -0.12211237746E+03 -0.12173889746E+02  0.42354717769E+03  0.45026620962E+03  0.91037418036E+02 0.  0.
          5    1    1    2  502    0  0.77371800042E+01  0.47167148089E+02 -0.11775415308E+02  0.49403811786E+02  0.41800000000E+01 0.  1.
         -5    1    1    2    0  502  0.11437519746E+03 -0.34993258343E+02  0.51411402947E+02  0.13025674139E+03  0.41800000000E+01 0.  1.
        -11    1    3    3    0    0 -0.33396667778E+02 -0.35966574993E+02  0.73587833417E+02  0.88453949389E+02  0.00000000000E+00 0.  1.
         11    1    3    3    0    0 -0.88715709686E+02  0.23792685246E+02  0.34995934427E+03  0.36181226024E+03  0.00000000000E+00 0. -1.
</event>
<event>
 7    1  0.6988825E-006  0.1242253E+03  0.7561462E-02  0.1236285E+00
         -3   -1    0    0    0  501 -0.00000000000E+00  0.00000000000E+00  0.66491559598E+02  0.66491559598E+02  0.00000000000E+00 0.  1.
          3   -1    0    0  501    0  0.00000000000E+00 -0.00000000000E+00 -0.35212045691E+03  0.35212045691E+03  0.00000000000E+00 0. -1.
         23    2    1    2    0    0  0.11224998237E+02 -0.86750717727E+02 -0.44580502628E+02  0.13330260192E+03  0.90169145788E+02 0.  0.
          5    1    1    2  502    0  0.81134818742E+01 -0.17617490338E+02 -0.13048466330E+03  0.13198456088E+03  0.41800000000E+01 0. -1.
         -5    1    1    2    0  502 -0.19338480112E+02  0.10436820806E+03 -0.11056373138E+03  0.15332485371E+03  0.41800000000E+01 0. -1.
        -11    1    3    3    0    0  0.22402566729E+02  0.10323437430E+02 -0.21908422590E+02  0.32991322144E+02  0.00000000000E+00 0.  1.
         11    1    3    3    0    0 -0.11177568491E+02 -0.97074155157E+02 -0.22672080038E+02  0.10031127978E+03  0.00000000000E+00 0. -1.
</event>
<event>
 7    1  0.6988825E-006  0.1047221E+03  0.7561462E-02  0.1270668E+00
          2   -1    0    0  501    0  0.00000000000E+00  0.00000000000E+00  0.64576010801E+03  0.64576010801E+03  0.00000000000E+00 0. -1.
         -2   -1    0    0    0  501 -0.00000000000E+00 -0.00000000000E+00 -0.33570460929E+02  0.33570460929E+02  0.00000000000E+00 0.  1.
         23    2    1    2    0    0  0.34581940750E+02  0.92516447557E+02  0.25953278613E+03  0.29233046217E+03  0.91348937275E+02 0.  0.
          5    1    1    2  502    0 -0.35646696680E+02 -0.47943760856E+02  0.42040053324E+02  0.73171918607E+02  0.41800000000E+01 0.  1.
         -5    1    1    2    0  502  0.10647559305E+01 -0.44572686701E+02  0.31061680762E+03  0.31382818816E+03  0.41800000000E+01 0.  1.
        -11    1    3    3    0    0 -0.44846738197E+01  0.34744209265E+02  0.19227933715E+03  0.19544466192E+03  0.00000000000E+00 0. -1.
         11    1    3    3    0    0  0.39066614570E+02  0.57772238292E+02  0.67253448984E+02  0.96885800257E+02  0.00000000000E+00 0.  1.
</event>
<event>
 7    1  0.6988825E-006  0.1218890E+03  0.7561462E-02  0.1240013E+00
          2   -1    0    0  501    0  0.00000000000E+00  0.00000000000E+00  0.70926341881E+03  0.70926341881E+03  0.00000000000E+00 0.  1.
         -2   -1    0    0    0  501 -0.00000000000E+00 -0.00000000000E+00 -0.31346288182E+02  0.31346288182E+02  0.00000000000E+00 0. -1.
         23    2    1    2    0    0 -0.11581019618E+02  0.89944916170E+02  0.19284757110E+03  0.23153477721E+03  0.90520491691E+02 0.  0.
          5    1    1    2  502    0  0.13621628480E+02  0.29261658979E+02  0.69902507644E+02  0.77107888206E+02  0.41800000000E+01 0.  1.
         -5    1    1    2    0  502 -0.20406088615E+01 -0.11920657515E+03  0.41516705188E+03  0.43196704158E+03  0.41800000000E+01 0.  1.
        -11    1    3    3    0    0 -0.15280768885E+02  0.74694595441E+02  0.20018451683E+03  0.21421163663E+03  0.00000000000E+00 0.  1.
         11    1    3    3    0    0  0.36997492667E+01  0.15250320729E+02 -0.73369457303E+01  0.17323140582E+02  0.00000000000E+00 0. -1.
</event>
<event>
 7    1  0.6988825E-006  0.1224697E+03  0.7561462E-02  0.1239078E+00
         -2   -1    0    0    0  501 -0.00000000000E+00  0.00000000000E+00  0.13661159625E+02  0.13661159625E+02  0.00000000000E+00 0.  1.
          2   -1    0    0  501    0  0.00000000000E+00 -0.00000000000E+00 -0.11336484378E+04  0.11336484378E+04  0.00000000000E+00 0. -1.
         23    2    1    2    0    0 -0.91753375076E+01 -0.57368103917E+02 -0.48484645979E+03  0.49736614100E+03  0.94454764192E+02 0.  0.
          5    1    1    2  502    0  0.62610998966E+02  0.99608942629E+01 -0.36486939276E+03  0.37035996379E+03  0.41800000000E+01 0. -1.
         -5    1    1    2    0  502 -0.53435661459E+02  0.47407209655E+02 -0.27027142562E+03  0.27958349263E+03  0.41800000000E+01 0. -1.
        -11    1    3    3    0    0  0.42089914704E+02 -0.21360839027E+02 -0.17524933338E+03  0.18149428424E+03  0.00000000000E+00 0.  1.
         11    1    3    3    0    0 -0.51265252211E+02 -0.36007264891E+02 -0.30959712641E+03  0.31587185676E+03  0.00000000000E+00 0. -1.
</event>
<event>
 7    1  0.6988825E-006  0.1318183E+03  0.7561462E-02  0.1224782E+00
         -1   -1    0    0    0  501 -0.00000000000E+00  0.00000000000E+00  0.14127966812E+03  0.14127966812E+03  0.00000000000E+00 0.  1.
          1   -1    0    0  501    0  0.00000000000E+00 -0.00000000000E+00 -0.17248131826E+03  0.17248131826E+03  0.00000000000E+00 0. -1.
         23    2    1    2    0    0 -0.28747428125E+02  0.88966166855E+02  0.45281234809E+02  0.13987140136E+03  0.93660158148E+02 0.  0.
          5    1    1    2  502    0  0.42760197848E+02  0.13556052151E+02 -0.49376685180E+02  0.66841083992E+02  0.41800000000E+01 0. -1.
         -5    1    1    2    0  502 -0.14012769722E+02 -0.10252221901E+03 -0.27106199770E+02  0.10704850102E+03  0.41800000000E+01 0. -1.
        -11    1    3    3    0    0 -0.38359175605E+02  0.16221785724E+02 -0.15653048482E+02  0.44492590529E+02  0.00000000000E+00 0. -1.
         11    1    3    3    0    0  0.96117474798E+01  0.72744381131E+02  0.60934283291E+02  0.95378810833E+02  0.00000000000E+00 0.  1.
</event>
<event>
 7    1  0.6988825E-006  0.1461678E+03  0.7561462E-02  0.1205263E+00
          2   -1    0    0  501    0  0.00000000000E+00  0.00000000000E+00  0.19403524791E+03  0.19403524791E+03  0.00000000000E+00 0. -1.
         -2   -1    0    0    0  501 -0.00000000000E+00 -0.00000000000E+00 -0.12964108252E+03  0.12964108252E+03  0.00000000000E+00 0.  1.
         23    2    1    2    0    0 -0.90880021237E+02  0.12459632075E+02 -0.11089447493E+02  0.13377957825E+03  0.96744917283E+02 0.  0.
          5    1    1    2  502    0  0.12576898522E+03 -0.12508753081E+02  0.25833420316E+02  0.12907030856E+03  0.41800000000E+01 0. -1.
         -5    1    1    2    0  502 -0.34888963979E+02  0.49121006023E-01  0.49650192571E+02  0.60826443614E+02  0.41800000000E+01 0.  1.
        -11    1    3    3    0    0 -0.46048224426E+02 -0.40518719304E+02  0.78574865251E+01  0.61838060136E+02  0.00000000000E+00 0.  1.
         11    1    3    3    0    0 -0.44831796811E+02  0.52978351379E+02 -0.18946934018E+02  0.71941518116E+02  0.00000000000E+00 0. -1.
</event>
<event>
 7    1  0.6988825E-006  0.1527520E+03  0.7561462E-02  0.1197132E+00
         -2   -1    0    0    0  501 -0.00000000000E+00  0.00000000000E+00  0.26758889449E+02  0.26758889449E+02  0.00000000000E+00 0.  1.
          2   -1    0    0  501    0  0.00000000000E+00 -0.00000000000E+00 -0.19170470758E+04  0.19170470758E+04  0.00000000000E+00 0. -1.
         23    2    1    2    0    0 -0.83613466780E+02 -0.99350089412E+02 -0.26817971265E+03  0.31170748149E+03  0.91539847323E+02 0.  0.
          5    1    1    2  502    0  0.10898499132E+03  0.78460056841E+02 -0.98392732353E+03  0.99305798382E+03  0.41800000000E+01 0. -1.
         -5    1    1    2    0  502 -0.25371524537E+02  0.20890032572E+02 -0.63818115014E+03  0.63904049990E+03  0.41800000000E+01 0. -1.
        -11    1    3    3    0    0 -0.20553700544E+02 -0.60634674197E+02 -0.49738607789E+02  0.81073715998E+02  0.00000000000E+00 0.  1.
         11    1    3    3    0    0 -0.63059766237E+02 -0.38715415215E+02 -0.21844110486E+03  0.23063376549E+03  0.00000000000E+00 0. -1.
</event>
<event>
 7    1  0.6988825E-006  0.1595686E+03  0.7561462E-02  0.1189185E+00
         -2   -1    0    0    0  501 -0.00000000000E+00  0.00000000000E+00  0.15475510884E+03  0.15475510884E+03  0.00000000000E+00 0.  1.
          2   -1    0    0  501    0  0.00000000000E+00 -0.00000000000E+00 -0.24562531929E+03  0.24562531929E+03  0.00000000000E+00 0. -1.
         23    2    1    2    0    0 -0.77584271066E+02  0.13610023290E+03 -0.22808839244E+01  0.18120670970E+03  0.91038874649E+02 0.  0.
          5    1    1    2  502    0  0.32226212468E+02 -0.89759235876E+02  0.15258094506E+02  0.96672286841E+02  0.41800000000E+01 0.  1.
         -5    1    1    2    0  502  0.45358058598E+02 -0.46340997021E+02 -0.10384742104E+03  0.12250143159E+03  0.41800000000E+01 0.  1.
        -11    1    3    3    0    0 -0.48019539935E+02  0.58677503188E+02  0.42589094952E+02  0.86964111016E+02  0.00000000000E+00 0.  1.
         11    1    3    3    0    0 -0.29564731131E+02  0.77422729708E+02 -0.44869978876E+02  0.94242598684E+02  0.00000000000E+00 0. -1.
</event>
<event>
 7    1  0.6988825E-006  0.1035602E+03  0.7561462E-02  0.1272983E+00
         -1   -1    0    0    0  501 -0.00000000000E+00  0.00000000000E+00  0.26052463808E+02  0.26052463808E+02  0.00000000000E+00 0.  1.
          1   -1    0    0  501    0  0.00000000000E+00 -0.00000000000E+00 -0.50448163687E+03  0.50448163687E+03  0.00000000000E+00 0. -1.
         23    2    1    2    0    0  0.93504094327E+01  0.35515784616E+02 -0.20968648380E+03  0.23183923295E+03  0.91827051197E+02 0.  0.
          5    1    1    2  502    0 -0.19333288102E+02  0.33548242137E+02 -0.27889150952E+02  0.47901333177E+02  0.41800000000E+01 0.  1.
         -5    1    1    2    0  502  0.99828786691E+01 -0.69064026753E+02 -0.24085353831E+03  0.25079353455E+03  0.41800000000E+01 0.  1.
        -11    1    3    3    0    0 -0.35646326872E+02 -0.70403386887E+01 -0.90505373627E+02  0.97526661194E+02  0.00000000000E+00 0. -1.
         11    1    3    3    0    0  0.44996736305E+02  0.42556123305E+02 -0.11918111018E+03  0.13431257176E+03  0.00000000000E+00 0.  1.
</event>
<event>
 7    1  0.6988825E-006  0.1612626E+03  0.7561462E-02  0.1187279E+00
          1   -1    0    0  501    0  0.00000000000E+00  0.00000000000E+00  0.17899910142E+03  0.17899910142E+03  0.00000000000E+00 0. -1.
         -1   -1    0    0    0  501 -0.00000000000E+00 -0.00000000000E+00 -0.22566524624E+03  0.22566524624E+03  0.00000000000E+00 0.  1.
         23    2    1    2    0    0  0.11014720137E+03  0.45995631675E+02 -0.14200880470E+03  0.20722250089E+03  0.92339916402E+02 0.  0.
          5    1    1    2  502    0 -0.13609045030E+03 -0.23218662027E+02  0.75941843746E+02  0.15762091537E+03  0.41800000000E+01 0. -1.
         -5    1    1    2    0  502  0.25943248933E+02 -0.22776969647E+02  0.19400816123E+02  0.39820931403E+02  0.41800000000E+01 0. -1.
        -11    1    3    3    0    0  0.40125162835E+02 -0.27090284510E+02 -0.59002056858E+02  0.76322702526E+02  0.00000000000E+00 0.  1.
         11    1    3    3    0    0  0.70022038533E+02  0.73085916185E+02 -0.83006747837E+02  0.13089979836E+03  0.00000000000E+00 0. -1.
</event>
<event>
 7    1  0.6988825E-006  0.8662870E+02  0.7561462E-02  0.1311227E+00
         -1   -1    0    0    0  501 -0.00000000000E+00  0.00000000000E+00  0.58272360917E+02  0.58272360917E+02  0.00000000000E+00 0.  1.
          1   -1    0    0  501    0  0.00000000000E+00 -0.00000000000E+00 -0.36317977364E+03  0.36317977364E+03  0.00000000000E+00 0. -1.
         23    2    1    2    0    0  0.22296581466E+02  0.27303917283E+02 -0.12901760338E+01  0.91191588949E+02  0.84092805262E+02 0.  0.
          5    1    1    2  502    0  0.44698068292E+02  0.15634215377E+02 -0.82393981516E+02  0.95124058942E+02  0.41800000000E+01 0. -1.
         -5    1    1    2    0  502 -0.66994649758E+02 -0.42938132660E+02 -0.22122325517E+03  0.23513648666E+03  0.41800000000E+01 0. -1.
        -11    1    3    3    0    0 -0.52889886874E+01  0.14861654883E+02 -0.39451150098E+02  0.42488062220E+02  0.00000000000E+00 0. -1.
         11    1    3    3    0    0  0.27585570153E+02  0.12442262400E+02  0.38160974064E+02  0.48703526729E+02  0.00000000000E+00 0.  1.
</event>
<event>
 7    1  0.6988825E-006  0.1342654E+03  0.7561462E-02  0.1221260E+00
         -2   -1    0    0    0  501 -0.00000000000E+00  0.00000000000E+00  0.50755245983E+02  0.50755245983E+02  0.00000000000E+00 0.  1.
          2   -1    0    0  501    0  0.00000000000E+00 -0.00000000000E+00 -0.46897598117E+03  0.46897598117E+03  0.00000000000E+00 0. -1.
         23    2    1    2    0    0  0.78787697697E+02  0.66299882513E+02 -0.13889566701E+03  0.19681818492E+03  0.94033057344E+02 0.  0.
          5    1    1    2  502    0  0.33889545241E+02 -0.23320966894E+02 -0.71811827028E+02  0.82866034505E+02  0.41800000000E+01 0. -1.
         -5    1    1    2    0  502 -0.11267724294E+03 -0.42978915618E+02 -0.20751324116E+03  0.24004700773E+03  0.41800000000E+01 0. -1.
        -11    1    3    3    0    0  0.16822940222E+02  0.15566830213E+01 -0.95978677984E+02  0.97454303175E+02  0.00000000000E+00 0. -1.
         11    1    3    3    0    0  0.61964757475E+02  0.64743199491E+02 -0.42916989023E+02  0.99363881748E+02  0.00000000000E+00 0.  1.
</event>
<event>
 7    1  0.6988825E-006  0.7757441E+02  0.7561462E-02  0.1336079E+00
          1   -1    0    0  501    0  0.00000000000E+00  0.00000000000E+00  0.74816186072E+02  0.74816186072E+02  0.00000000000E+00 0. -1.
         -1   -1    0    0    0  501 -0.00000000000E+00 -0.00000000000E+00 -0.19596008827E+03  0.19596008827E+03  0.00000000000E+00 0.  1.
         23    2    1    2    0    0  0.36054160954E+02  0.36474149105E+02 -0.68208616506E+02  0.12558911211E+03  0.92140890162E+02 0.  0.
          5    1    1    2  502    0 -0.28266638313E+02 -0.30430101889E+02  0.36295814861E+02  0.55315933680E+02  0.41800000000E+01 0.  1.
         -5    1    1    2    0  502 -0.77875226404E+01 -0.60440472155E+01 -0.89231100548E+02  0.89871228547E+02  0.41800000000E+01 0.  1.
        -11    1    3    3    0    0  0.52276588084E+02 -0.10220415247E+02 -0.49559315002E+02  0.72755922460E+02  0.00000000000E+00 0.  1.
         11    1    3    3    0    0 -0.16222427131E+02  0.46694564351E+02 -0.18649301504E+02  0.52833189649E+02  0.00000000000E+00 0. -1.
</event>
<event>
 7    1  0.6988825E-006  0.1294875E+03  0.7561462E-02  0.1228218E+00
          2   -1    0    0  501    0  0.00000000000E+00  0.00000000000E+00  0.10367749305E+04  0.10367749305E+04  0.00000000000E+00 0. -1.
         -2   -1    0    0    0  501 -0.00000000000E+00 -0.00000000000E+00 -0.26700609556E+02  0.26700609556E+02  0.00000000000E+00 0.  1.
         23    2    1    2    0    0 -0.11664475725E+03 -0.28833204278E+02  0.35095412538E+03  0.38191562360E+03  0.90848183091E+02 0.  0.
          5    1    1    2  502    0  0.91640137938E+01  0.24408821705E+02  0.40128923988E+03  0.40215705411E+03  0.41800000000E+01 0. -1.
         -5    1    1    2    0  502  0.10748074345E+03  0.44243825727E+01  0.25783095565E+03  0.27940286231E+03  0.41800000000E+01 0. -1.
        -11    1    3    3    0    0 -0.71625247019E+02 -0.34572834805E+02  0.10452793822E+03  0.13134514375E+03  0.00000000000E+00 0.  1.
         11    1    3    3    0    0 -0.45019510228E+02  0.57396305272E+01  0.24642618715E+03  0.25057047985E+03  0.00000000000E+00 0. -1.
</event>
<event>
 7    1  0.6988825E-006  0.1031991E+03  0.7561462E-02  0.1273709E+00
         -4   -1    0    0    0  501 -0.00000000000E+00  0.00000000000E+00  0.45238303251E+03  0.45238303251E+03  0.00000000000E+00 0. -1.
          4   -1    0    0  501    0  0.00000000000E+00 -0.00000000000E+00 -0.37561626561E+02  0.37561626561E+02  0.00000000000E+00 0.  1.
         23    2    1    2    0    0 -0.23451992230E+02  0.64755827301E+02  0.20729245481E+03  0.23810538233E+03  0.94766545587E+02 0.  0.
          5    1    1    2  502    0 -0.38055491553E+02  0.81883392993E+01  0.26855456180E+02  0.47475859808E+02  0.41800000000E+01 0.  1.
         -5    1    1    2    0  502  0.61507483783E+02 -0.72944166600E+02  0.18067349496E+03  0.20436341694E+03  0.41800000000E+01 0.  1.
        -11    1    3    3    0    0  0.36701096599E+01  0.96084561599E+01 -0.87426065104E+01  0.13499085276E+02  0.00000000000E+00 0.  1.
         11    1    3    3    0    0 -0.27122101890E+02  0.55147371141E+02  0.21603506132E+03  0.22460629705E+03  0.00000000000E+00 0. -1.
</event>
<event>
 7    1  0.6988825E-006  0.2136275E+03  0.7561462E-02  0.1138725E+00
          1   -1    0    0  501    0  0.00000000000E+00  0.00000000000E+00  0.25494918621E+04  0.25494918621E+04  0.00000000000E+00 0. -1.
         -1   -1    0    0    0  501 -0.00000000000E+00 -0.00000000000E+00 -0.26111658006E+02  0.26111658006E+02  0.00000000000E+00 0.  1.
         23    2    1    2    0    0 -0.17483053913E+03  0.10795351644E+03  0.65648637482E+03  0.69327262742E+03  0.86214247631E+02 0.  0.
          5    1    1    2  502    0  0.63561969231E+02 -0.35425567301E+02  0.26213728151E+03  0.27208182870E+03  0.41800000000E+01 0. -1.
         -5    1    1    2    0  502  0.11126856989E+03 -0.72527949135E+02  0.16047565477E+04  0.16102490640E+04  0.41800000000E+01 0. -1.
        -11    1    3    3    0    0 -0.51055213130E+02  0.79494453727E+02  0.31825424198E+03  0.33198157403E+03  0.00000000000E+00 0.  1.
         11    1    3    3    0    0 -0.12377532600E+03  0.28459062709E+02  0.33823213284E+03  0.36129105339E+03  0.00000000000E+00 0. -1.
</event>
<event>
 7    1  0.6988825E-006  0.9479772E+02  0.7561462E-02  0.1291632E+00
          1   -1    0    0  501    0  0.00000000000E+00  0.00000000000E+00  0.14889308758E+03  0.14889308758E+03  0.00000000000E+00 0. -1.
         -1   -1    0    0    0  501 -0.00000000000E+00 -0.00000000000E+00 -0.79931483402E+02  0.79931483402E+02  0.00000000000E+00 0.  1.
         23    2    1    2    0    0  0.43731261012E+01 -0.27634420421E+02  0.84462882938E+01  0.87077427765E+02  0.82026539707E+02 0.  0.
          5    1    1    2  502    0  0.26837818302E+02 -0.28864930680E+02  0.65836654229E+02  0.76846536385E+02  0.41800000000E+01 0.  1.
         -5    1    1    2    0  502 -0.31210944403E+02  0.56499351100E+02 -0.53213383452E+01  0.64900606831E+02  0.41800000000E+01 0.  1.
        -11    1    3    3    0    0 -0.12742638492E+02  0.26013265872E+02 -0.44534444867E+01  0.29306961713E+02  0.00000000000E+00 0. -1.
         11    1    3    3    0    0  0.17115764593E+02 -0.53647686292E+02  0.12899732780E+02  0.57770466052E+02  0.00000000000E+00 0.  1.
</event>
<event>
 7    1  0.6988825E-006  0.9556844E+02  0.7561462E-02  0.1289901E+00
         -1   -1    0    0    0  501 -0.00000000000E+00  0.00000000000E+00  0.30387868539E+03  0.30387868539E+03  0.00000000000E+00 0.  1.
          1   -1    0    0  501    0  0.00000000000E+00 -0.00000000000E+00 -0.56709292595E+02  0.56709292595E+02  0.00000000000E+00 0. -1.
         23    2    1    2    0    0  0.91845497133E+01 -0.68694254788E+02  0.14800352122E+03  0.18656292888E+03  0.89985707461E+02 0.  0.
          5    1    1    2  502    0 -0.25007328680E+02  0.45874913424E+01 -0.23358575006E+02  0.34777967032E+02  0.41800000000E+01 0.  1.
         -5    1    1    2    0  502  0.15822778967E+02  0.64106763446E+02  0.12252444659E+03  0.13924708207E+03  0.41800000000E+01 0.  1.
        -11    1    3    3    0    0  0.36662238362E+02 -0.60132470191E+02  0.55446717919E+02  0.89634659708E+02  0.00000000000E+00 0. -1.
         11    1    3    3    0    0 -0.27477688648E+02 -0.85617845966E+01  0.92556803297E+02  0.96928269176E+02  0.00000000000E+00 0.  1.
</event>
<event>
 7    1  0.6988825E-006  0.1997338E+03  0.7561462E-02  0.1149964E+00
         -3   -1    0    0    0  501 -0.00000000000E+00  0.00000000000E+00  0.22237228440E+03  0.22237228440E+03  0.00000000000E+00 0.  1.
          3   -1    0    0  501    0  0.00000000000E+00 -0.00000000000E+00 -0.21389637029E+03  0.21389637029E+03  0.00000000000E+00 0. -1.
         23    2    1    2    0    0  0.62284253429E+02 -0.17098760648E+03  0.54626673824E+02  0.21067499972E+03  0.91015340569E+02 0.  0.
          5    1    1    2  502    0 -0.22804360939E+02  0.17106257340E+03 -0.11688261087E+02  0.17302176379E+03  0.41800000000E+01 0. -1.
         -5    1    1    2    0  502 -0.39479892490E+02 -0.74966921163E-01 -0.34462498619E+02  0.52571891179E+02  0.41800000000E+01 0. -1.
        -11    1    3    3    0    0 -0.61909092534E+00 -0.56556124231E+02  0.56687455011E+02  0.80077749826E+02  0.00000000000E+00 0.  1.
         11    1    3    3    0    0  0.62903344354E+02 -0.11443148225E+03 -0.20607811865E+01  0.13059724990E+03  0.00000000000E+00 0. -1.
</event>
<event>
 7    1  0.6988825E-006  0.7418989E+02  0.7561462E-02  0.1346398E+00
          1   -1    0    0  501    0  0.00000000000E+00  0.00000000000E+00  0.45984971957E+02  0.45984971957E+02  0.00000000000E+00 0. -1.
         -1   -1    0    0    0  501 -0.00000000000E+00 -0.00000000000E+00 -0.34041362893E+03  0.34041362893E+03  0.00000000000E+00 0.  1.
         23    2    1    2    0    0  0.16852722286E+02  0.16377609595E+02 -0.21261435506E+03  0.23509500352E+03  0.97532334940E+02 0.  0.
          5    1    1    2  502    0  0.24553117523E+02  0.26147417988E+02  0.13824287408E+02  0.38666863977E+02  0.41800000000E+01 0. -1.
         -5    1    1    2    0  502 -0.41405839809E+02 -0.42525027583E+02 -0.95638589325E+02  0.11263673339E+03  0.41800000000E+01 0. -1.
        -11    1    3    3    0    0  0.15166589059E+02  0.32864530089E+02 -0.21528654598E+03  0.21830803843E+03  0.00000000000E+00 0.  1.
         11    1    3    3    0    0  0.16861332271E+01 -0.16486920494E+02  0.26721909238E+01  0.16786965091E+02  0.00000000000E+00 0. -1.
</event>
<event>
 7    1  0.6988825E-006  0.1211338E+03  0.7561462E-02  0.1241238E+00
         -2   -1    0    0    0  501 -0.00000000000E+00  0.00000000000E+00  0.92362900919E+02  0.92362900919E+02  0.00000000000E+00 0.  1.
          2   -1    0    0  501    0  0.00000000000E+00 -0.00000000000E+00 -0.17318368058E+03  0.17318368058E+03  0.00000000000E+00 0. -1.
         23    2    1    2    0    0  0.35585850799E+02  0.21419657112E+02 -0.58189760729E+01  0.10064374836E+03  0.91488519023E+02 0.  0.
          5    1    1    2  502    0  0.52490881089E+02 -0.25042311238E+02 -0.24708827837E+02  0.63327786340E+02  0.41800000000E+01 0. -1.
         -5    1    1    2    0  502 -0.88076731889E+02  0.36226541251E+01 -0.50292975755E+02  0.10157504680E+03  0.41800000000E+01 0.  1.
        -11    1    3    3    0    0  0.55805595162E+02 -0.11592189785E+02 -0.18473532037E+02  0.59915896900E+02  0.00000000000E+00 0.  1.
         11    1    3    3    0    0 -0.20219744363E+02  0.33011846898E+02  0.12654555964E+02  0.40727851458E+02  0.00000000000E+00 0. -1.
</event>
<event>
 7    1  0.1033967E-005  0.1133451E+03  0.7561462E-02  0.1254498E+00
         -1   -1    0    0    0  501 -0.00000000000E+00  0.00000000000E+00  0.49008192382E+02  0.49008192382E+02  0.00000000000E+00 0.  1.
          1   -1    0    0  501    0  0.00000000000E+00 -0.00000000000E+00 -0.41431787621E+03  0.41431787621E+03  0.00000000000E+00 0. -1.
         23    2    1    2    0    0  0.31894412872E+02 -0.85929427229E+02 -0.14722706980E+03  0.19572805073E+03  0.90733344055E+02 0.  0.
          5    1    1    2  502    0  0.21924604047E+02  0.60893895313E+02 -0.32171454127E+02  0.72396336991E+02  0.41800000000E+01 0.  1.
         -5    1    1    2    0  502 -0.53819016919E+02  0.25035531916E+02 -0.18591115989E+03  0.19520168087E+03  0.41800000000E+01 0.  1.
        -11    1    3    3    0    0 -0.11798699102E+02 -0.16158806132E+02  0.67582389534E+01  0.21118477925E+02  0.00000000000E+00 0.  1.
         11    1    3    3    0    0  0.43693111974E+02 -0.69770621097E+02 -0.15398530876E+03  0.17460957281E+03  0.00000000000E+00 0. -1.
</event>
<event>
 7    1  0.6988825E-006  0.9562979E+02  0.7561462E-02  0.1289764E+00
         -1   -1    0    0    0  501 -0.00000000000E+00  0.00000000000E+00  0.13742754394E+03  0.13742754394E+03  0.00000000000E+00 0.  1.
          1   -1    0    0  501    0  0.00000000000E+00 -0.00000000000E+00 -0.11245050706E+03  0.11245050706E+03  0.00000000000E+00 0. -1.
         23    2    1    2    0    0 -0.45834474826E+02  0.26830026954E+02  0.42441036614E+02  0.11285907940E+03  0.90084853255E+02 0.  0.
          5    1    1    2  502    0 -0.35334290662E+02  0.19626038746E+02 -0.15172149429E+02  0.43374647108E+02  0.41800000000E+01 0. -1.
         -5    1    1    2    0  502  0.81168765488E+02 -0.46456065700E+02 -0.22918502993E+01  0.93644324489E+02  0.41800000000E+01 0. -1.
        -11    1    3    3    0    0 -0.41608555987E+02  0.14643189151E+02  0.69824200253E+02  0.82590034876E+02  0.00000000000E+00 0.  1.
         11    1    3    3    0    0 -0.42259188392E+01  0.12186837803E+02 -0.27383163640E+02  0.30269044527E+02  0.00000000000E+00 0. -1.
</event>
<event>
 7    1  0.6988825E-006  0.1255849E+03  0.7561462E-02  0.1234158E+00
         -3   -1    0    0    0  501 -0.00000000000E+00  0.00000000000E+00  0.24822083838E+02  0.24822083838E+02  0.00000000000E+00 0.  1.
          3   -1    0    0  501    0  0.00000000000E+00 -0.00000000000E+00 -0.80619217451E+03  0.80619217451E+03  0.00000000000E+00 0. -1.
         23    2    1    2    0    0 -0.22122383901E+02  0.81111588697E+02 -0.24893560578E+03  0.27765822389E+03  0.89758920320E+02 0.  0.
          5    1    1    2  502    0 -0.38195206480E+02 -0.25928383421E+02 -0.71510951008E+02  0.85219970541E+02  0.41800000000E+01 0. -1.
         -5    1    1    2    0  502  0.60317590381E+02 -0.55183205276E+02 -0.46092353388E+03  0.46813606392E+03  0.41800000000E+01 0. -1.
        -11    1    3    3    0    0 -0.42692793683E+02  0.36922428902E+01 -0.84017967940E+02  0.94315037119E+02  0.00000000000E+00 0.  1.
         11    1    3    3    0    0  0.20570409782E+02  0.77419345807E+02 -0.16491763784E+03  0.18334318677E+03  0.00000000000E+00 0. -1.
</event>
<event>
 7    1  0.6988825E-006  0.2506211E+03  0.7561462E-02  0.1112913E+00
         -1   -1    0    0    0  501 -0.00000000000E+00  0.00000000000E+00  0.97616505666E+03  0.97616505666E+03  0.00000000000E+00 0.  1.
          1   -1    0    0  501    0  0.00000000000E+00 -0.00000000000E+00 -0.70845099396E+02  0.70845099396E+02  0.00000000000E+00 0. -1.
         23    2    1    2    0    0 -0.67552079542E+02 -0.23349613949E+03  0.43284277205E+03  0.50116343803E+03  0.68761876774E+02 0.  0.
          5    1    1    2  502    0  0.16245651114E+02 -0.14996204302E+01  0.10689186511E+03  0.10821050443E+03  0.41800000000E+01 0.  1.
         -5    1    1    2    0  502  0.51306428428E+02  0.23499575992E+03  0.36558532010E+03  0.43763621359E+03  0.41800000000E+01 0.  1.
        -11    1    3    3    0    0 -0.47093820341E+02 -0.19024484189E+03  0.28589081775E+03  0.34661864845E+03  0.00000000000E+00 0. -1.
         11    1    3    3    0    0 -0.20458259201E+02 -0.43251297593E+02  0.14695195431E+03  0.15454478958E+03  0.00000000000E+00 0.  1.
</event>
<event>
 7    1  0.6988825E-006  0.1516370E+03  0.7561462E-02  0.1198476E+00
         -1   -1    0    0    0  501 -0.00000000000E+00  0.00000000000E+00  0.32085531716E+02  0.32085531716E+02  0.00000000000E+00 0.  1.
          1   -1    0    0  501    0  0.00000000000E+00 -0.00000000000E+00 -0.86314901686E+03  0.86314901686E+03  0.00000000000E+00 0. -1.
         23    2    1    2    0    0 -0.24355991266E+02 -0.12367769251E+03 -0.33659832263E+03  0.36984566205E+03  0.87166490158E+02 0.  0.
          5    1    1    2  502    0  0.13816106528E+01  0.13276418551E+03 -0.28507864476E+03  0.31450841626E+03  0.41800000000E+01 0.  1.
         -5    1    1    2    0  502  0.22974380613E+02 -0.90864929999E+01 -0.20938651776E+03  0.21088047027E+03  0.41800000000E+01 0.  1.
        -11    1    3    3    0    0  0.14183152196E+02 -0.98111693528E+02 -0.27831458591E+03  0.29544216853E+03  0.00000000000E+00 0. -1.
         11    1    3    3    0    0 -0.38539143462E+02 -0.25565998983E+02 -0.58283736714E+02  0.74403493521E+02  0.00000000000E+00 0.  1.
</event>
<event>
 7    1  0.6988825E-006  0.1402637E+03  0.7561462E-02  0.1212975E+00
          2   -1    0    0  501    0  0.00000000000E+00  0.00000000000E+00  0.15006082239E+04  0.15006082239E+04  0.00000000000E+00 0. -1.
         -2   -1    0    0    0  501 -0.00000000000E+00 -0.00000000000E+00 -0.27443403545E+02  0.27443403545E+02  0.00000000000E+00 0.  1.
         23    2    1    2    0    0  0.11572680578E+03  0.33691912864E+02  0.29141941889E+03  0.33360707227E+03  0.10881434830E+03 0.  0.
          5    1    1    2  502    0 -0.93972792238E+02 -0.57865696732E+02  0.50635836469E+03  0.51826208662E+03  0.41800000000E+01 0. -1.
         -5    1    1    2    0  502 -0.21754013537E+02  0.24173783868E+02  0.67538703675E+03  0.67618246853E+03  0.41800000000E+01 0. -1.
        -11    1    3    3    0    0  0.63985124532E+02  0.51962717539E+02  0.25438528843E+03  0.26740623617E+03  0.00000000000E+00 0. -1.
         11    1    3    3    0    0  0.51741681244E+02 -0.18270804674E+02  0.37034130466E+02  0.66200836103E+02  0.00000000000E+00 0.  1.
</event>
<event>
 7    1  0.6988825E-006  0.2186873E+03  0.7561462E-02  0.1134865E+00
          1   -1    0    0  501    0  0.00000000000E+00  0.00000000000E+00  0.10330631894E+04  0.10330631894E+04  0.00000000000E+00 0. -1.
         -1   -1    0    0    0  501 -0.00000000000E+00 -0.00000000000E+00 -0.54301537590E+02  0.54301537590E+02  0.00000000000E+00 0.  1.
         23    2    1    2    0    0 -0.20522946094E+03 -0.31816609722E+02  0.53776664724E+03  0.58412031532E+03  0.94192078153E+02 0.  0.
          5    1    1    2  502    0  0.11411852022E+03  0.33437824485E+02  0.11785912574E+03  0.16747946347E+03  0.41800000000E+01 0.  1.
         -5    1    1    2    0  502  0.91110940719E+02 -0.16212147631E+01  0.32313587881E+03  0.33576494819E+03  0.41800000000E+01 0.  1.
        -11    1    3    3    0    0 -0.13744449766E+02 -0.32921448869E+02  0.10458412255E+03  0.11050144970E+03  0.00000000000E+00 0.  1.
         11    1    3    3    0    0 -0.19148501118E+03  0.11048391469E+01  0.43318252469E+03  0.47361886562E+03  0.00000000000E+00 0. -1.
</event>
<event>
 7    1  0.6988825E-006  0.1273207E+03  0.7561462E-02  0.1231486E+00
         -4   -1    0    0    0  501 -0.00000000000E+00  0.00000000000E+00  0.32121661430E+03  0.32121661430E+03  0.00000000000E+00 0.  1.
          4   -1    0    0  501    0  0.00000000000E+00 -0.00000000000E+00 -0.11010808527E+03  0.11010808527E+03  0.00000000000E+00 0. -1.
         23    2    1    2    0    0 -0.78730077523E+02 -0.68340107203E+02  0.22850843060E+03  0.26755717143E+03  0.92205974679E+02 0.  0.
          5    1    1    2  502    0  0.12235117071E+02 -0.10931384048E+02  0.41370039861E+02  0.44700624660E+02  0.41800000000E+01 0.  1.
         -5    1    1    2    0  502  0.66494960452E+02  0.79271491251E+02 -0.58769941426E+02  0.11906690349E+03  0.41800000000E+01 0.  1.
        -11    1    3    3    0    0 -0.13779737466E+02 -0.67819980500E+02  0.15321085533E+03  0.16811602276E+03  0.00000000000E+00 0.  1.
         11    1    3    3    0    0 -0.64950340056E+02 -0.52012670220E+00  0.75297575275E+02  0.99441148663E+02  0.00000000000E+00 0. -1.
</event>
<event>
 7    1  0.6988825E-006  0.9048800E+02  0.7561462E-02  0.1301674E+00
          2   -1    0    0  501    0  0.00000000000E+00  0.00000000000E+00  0.49443187583E+03  0.49443187583E+03  0.00000000000E+00 0. -1.
         -2   -1    0    0    0  501 -0.00000000000E+00 -0.00000000000E+00 -0.29222799638E+02  0.29222799638E+02  0.00000000000E+00 0.  1.
         23    2    1    2    0    0 -0.47969057008E+02  0.19319996664E+02  0.22667909289E+03  0.24939145273E+03  0.90213041403E+02 0.  0.
          5    1    1    2  502    0  0.30694334340E+02  0.26368643455E+02  0.11891357476E+02  0.42383066204E+02  0.41800000000E+01 0.  1.
         -5    1    1    2    0  502  0.17274722668E+02 -0.45688640119E+02  0.22663862583E+03  0.23188015654E+03  0.41800000000E+01 0.  1.
        -11    1    3    3    0    0 -0.13864162126E+01 -0.26143455422E+02  0.20708045899E+02  0.33380017620E+02  0.00000000000E+00 0.  1.
         11    1    3    3    0    0 -0.46582640795E+02  0.45463452086E+02  0.20597104699E+03  0.21601143511E+03  0.00000000000E+00 0. -1.
</event>
<event>
 7    1  0.6988825E-006  0.1082966E+03  0.7561462E-02  0.1263757E+00
          2   -1    0    0  501    0  0.00000000000E+00  0.00000000000E+00  0.92420529181E+03  0.92420529181E+03  0.00000000000E+00 0.  1.
         -2   -1    0    0    0  501 -0.00000000000E+00 -0.00000000000E+00 -0.16418532319E+02  0.16418532319E+02  0.00000000000E+00 0. -1.
         23    2    1    2    0    0 -0.48368700695E+02  0.24140912232E+02  0.31178880420E+03  0.32924531217E+03  0.90928006200E+02 0.  0.
          5    1    1    2  502    0  0.28034599408E+02  0.48145330302E+02  0.17456888539E+03  0.18329124294E+03  0.41800000000E+01 0.  1.
         -5    1    1    2    0  502  0.20334101286E+02 -0.72286242534E+02  0.42142906990E+03  0.42808726901E+03  0.41800000000E+01 0.  1.
        -11    1    3    3    0    0 -0.46888101914E+02  0.44772512980E+02  0.29654858103E+03  0.30355252088E+03  0.00000000000E+00 0.  1.
         11    1    3    3    0    0 -0.14805987808E+01 -0.20631600748E+02  0.15240223169E+02  0.25692791293E+02  0.00000000000E+00 0. -1.
</event>
<event>
 7    1  0.6988825E-006  0.1058656E+03  0.7561462E-02  0.1268424E+00
          2   -1    0    0  501    0  0.00000000000E+00  0.00000000000E+00  0.98233950997E+02  0.98233950997E+02  0.00000000000E+00 0. -1.
         -2   -1    0    0    0  501 -0.00000000000E+00 -0.00000000000E+00 -0.13458617864E+03  0.13458617864E+03  0.00000000000E+00 0.  1.
         23    2    1    2    0    0  0.15075676693E+02  0.36619787351E+02 -0.32938380485E+02  0.10156698966E+03  0.87536458835E+02 0.  0.
          5    1    1    2  502    0 -0.58868271122E+02 -0.56712606974E+02 -0.99452857388E+01  0.82451041492E+02  0.41800000000E+01 0. -1.
         -5    1    1    2    0  502  0.43792594429E+02  0.20092819623E+02  0.65314385793E+01  0.48802098491E+02  0.41800000000E+01 0. -1.
        -11    1    3    3    0    0  0.12302422060E+02  0.58339716311E+02 -0.46674272982E+02  0.75718953019E+02  0.00000000000E+00 0.  1.
         11    1    3    3    0    0  0.27732546332E+01 -0.21719928960E+02  0.13735892497E+02  0.25848036637E+02  0.00000000000E+00 0. -1.
</event>
<event>
 7    1  0.6988825E-006  0.1030128E+03  0.7561462E-02  0.1274085E+00
          2   -1    0    0  501    0  0.00000000000E+00  0.00000000000E+00  0.83135077258E+03  0.83135077258E+03  0.00000000000E+00 0. -1.
         -2   -1    0    0    0  501 -0.00000000000E+00 -0.00000000000E+00 -0.17194121607E+02  0.17194121607E+02  0.00000000000E+00 0.  1.
         23    2    1    2    0    0 -0.44865193537E+02 -0.25223549349E+02  0.30768399248E+03  0.32431869277E+03  0.88679547941E+02 0.  0.
          5    1    1    2  502    0  0.51998110392E+02  0.53304117551E+02  0.47660659743E+03  0.48240693771E+03  0.41800000000E+01 0. -1.
         -5    1    1    2    0  502 -0.71329168549E+01 -0.28080568202E+02  0.29866061061E+02  0.41819263704E+02  0.41800000000E+01 0. -1.
        -11    1    3    3    0    0  0.22093407165E+02  0.12430879255E+02  0.65094165409E+02  0.69856250755E+02  0.00000000000E+00 0. -1.
         11    1    3    3    0    0 -0.66958600702E+02 -0.37654428604E+02  0.24258982707E+03  0.25446244202E+03  0.00000000000E+00 0.  1.
</event>
<event>
 7    1  0.6988825E-006  0.1176159E+03  0.7561462E-02  0.1247083E+00
         -1   -1    0    0    0  501 -0.00000000000E+00  0.00000000000E+00  0.57869371497E+02  0.57869371497E+02  0.00000000000E+00 0.  1.
          1   -1    0    0  501    0  0.00000000000E+00 -0.00000000000E+00 -0.44492985553E+03  0.44492985553E+03  0.00000000000E+00 0. -1.
         23    2    1    2    0    0 -0.14014570646E+02 -0.89392206332E+02 -0.58577786667E+02  0.13984577806E+03  0.89096070653E+02 0.  0.
          5    1    1    2  502    0 -0.46181912356E+02  0.45410719215E+02 -0.77438819224E+02  0.10104031656E+03  0.41800000000E+01 0. -1.
         -5    1    1    2    0  502  0.60196483002E+02  0.43981487117E+02 -0.25104387814E+03  0.26191313241E+03  0.41800000000E+01 0. -1.
        -11    1    3    3    0    0 -0.21613528935E+02 -0.38062947682E+02 -0.73770273491E+02  0.85778702894E+02  0.00000000000E+00 0. -1.
         11    1    3    3    0    0  0.75989582884E+01 -0.51329258650E+02  0.15192486824E+02  0.54067075162E+02  0.00000000000E+00 0.  1.
</event>
<event>
 7    1  0.6988825E-006  0.1181609E+03  0.7561462E-02  0.1246162E+00
         -1   -1    0    0    0  501 -0.00000000000E+00  0.00000000000E+00  0.15088547537E+02  0.15088547537E+02  0.00000000000E+00 0. -1.
          1   -1    0    0  501    0  0.00000000000E+00 -0.00000000000E+00 -0.11693315830E+04  0.11693315830E+04  0.00000000000E+00 0.  1.
         23    2    1    2    0    0 -0.77189710317E+02 -0.34920122175E+02 -0.37706527345E+03  0.39269375714E+03  0.69659889031E+02 0.  0.
          5    1    1    2  502    0  0.10051909699E+03  0.56441996596E+02 -0.67040281686E+03  0.68025524407E+03  0.41800000000E+01 0.  1.
         -5    1    1    2    0  502 -0.23329386669E+02 -0.21521874421E+02 -0.10677494516E+03  0.11147112934E+03  0.41800000000E+01 0.  1.
        -11    1    3    3    0    0 -0.57850885493E+02 -0.12216356616E+02 -0.34008197783E+03  0.34518359747E+03  0.00000000000E+00 0.  1.
         11    1    3    3    0    0 -0.19338824824E+02 -0.22703765559E+02 -0.36983295627E+02  0.47510159667E+02  0.00000000000E+00 0. -1.
</event>
<event>
 7    1  0.6988825E-006  0.1280878E+03  0.7561462E-02  0.1230321E+00
          2   -1    0    0  501    0  0.00000000000E+00  0.00000000000E+00  0.54073129183E+03  0.54073129183E+03  0.00000000000E+00 0. -1.
         -2   -1    0    0    0  501 -0.00000000000E+00 -0.00000000000E+00 -0.50298455795E+02  0.50298455795E+02  0.00000000000E+00 0.  1.
         23    2    1    2    0    0  0.10370447487E+03 -0.86675270746E+01  0.97432020154E+02  0.16567839488E+03  0.84419120142E+02 0.  0.
          5    1    1    2  502    0 -0.80235575947E+02 -0.45588913904E+02  0.30926087525E+03  0.32276285114E+03  0.41800000000E+01 0. -1.
         -5    1    1    2    0  502 -0.23468898919E+02  0.54256440979E+02  0.83739940638E+02  0.10258850161E+03  0.41800000000E+01 0. -1.
        -11    1    3    3    0    0  0.87006229773E+02 -0.35797451581E+01  0.11274461443E+03  0.14245787685E+03  0.00000000000E+00 0. -1.
         11    1    3    3    0    0  0.16698245093E+02 -0.50877819165E+01 -0.15312594274E+02  0.23220518027E+02  0.00000000000E+00 0.  1.
</event>
<event>
 7    1  0.6988825E-006  0.8242140E+02  0.7561462E-02  0.1322317E+00
         -3   -1    0    0    0  501 -0.00000000000E+00  0.00000000000E+00  0.53558282095E+02  0.53558282095E+02  0.00000000000E+00 0.  1.
          3   -1    0    0  501    0  0.00000000000E+00 -0.00000000000E+00 -0.24195385329E+03  0.24195385329E+03  0.00000000000E+00 0. -1.
         23    2    1    2    0    0 -0.20640315228E+02 -0.28593403510E+02 -0.71998287093E+02  0.12104390411E+03  0.90687750230E+02 0.  0.
          5    1    1    2  502    0  0.11546143291E+02  0.62063548384E+02 -0.12018034158E+02  0.64398004689E+02  0.41800000000E+01 0. -1.
         -5    1    1    2    0  502  0.90941719368E+01 -0.33470144873E+02 -0.10437924994E+03  0.11007022658E+03  0.41800000000E+01 0. -1.
        -11    1    3    3    0    0  0.17150920930E+02  0.29661697094E+01 -0.69606668836E+02  0.71749847372E+02  0.00000000000E+00 0. -1.
         11    1    3    3    0    0 -0.37791236159E+02 -0.31559573220E+02 -0.23916182575E+01  0.49294056742E+02  0.00000000000E+00 0.  1.
</event>
<event>
 7    1  0.6988825E-006  0.1273714E+03  0.7561462E-02  0.1231409E+00
         -1   -1    0    0    0  501 -0.00000000000E+00  0.00000000000E+00  0.28673089699E+02  0.28673089699E+02  0.00000000000E+00 0.  1.
          1   -1    0    0  501    0  0.00000000000E+00 -0.00000000000E+00 -0.81457171483E+03  0.81457171483E+03  0.00000000000E+00 0. -1.
         23    2    1    2    0    0  0.42810691015E+02 -0.71812849547E+02 -0.13919483291E+03  0.17926912602E+03  0.75976163446E+02 0.  0.
          5    1    1    2  502    0 -0.32135754238E+02  0.10412364647E+03 -0.38881848024E+03  0.40382140041E+03  0.41800000000E+01 0.  1.
         -5    1    1    2    0  502 -0.10674936777E+02 -0.32310796925E+02 -0.25788531199E+03  0.26015427810E+03  0.41800000000E+01 0.  1.
        -11    1    3    3    0    0  0.47130232845E+02 -0.84294833578E+01 -0.45379537184E+02  0.65966790378E+02  0.00000000000E+00 0.  1.
         11    1    3    3    0    0 -0.43195418307E+01 -0.63383366190E+02 -0.93815295721E+02  0.11330233564E+03  0.00000000000E+00 0. -1.
</event>
<event>
 7    1  0.6988825E-006  0.1291057E+03  0.7561462E-02  0.1228789E+00
         -2   -1    0    0    0  501 -0.00000000000E+00  0.00000000000E+00  0.49668227984E+02  0.49668227984E+02  0.00000000000E+00 0.  1.
          2   -1    0    0  501    0  0.00000000000E+00 -0.00000000000E+00 -0.46763541083E+03  0.46763541083E+03  0.00000000000E+00 0. -1.
         23    2    1    2    0    0  0.12163446647E+02 -0.81066880621E+02 -0.78635130941E+02  0.14647623274E+03  0.92477101872E+02 0.  0.
          5    1    1    2  502    0 -0.47888823220E+02  0.91186859578E+02 -0.18244419753E+03  0.20955128337E+03  0.41800000000E+01 0. -1.
         -5    1    1    2    0  502  0.35725376573E+02 -0.10119978957E+02 -0.15688785437E+03  0.16127612270E+03  0.41800000000E+01 0. -1.
        -11    1    3    3    0    0  0.47613508897E+02 -0.59739963110E+02 -0.28644089631E+02  0.81586722527E+02  0.00000000000E+00 0.  1.
         11    1    3    3    0    0 -0.35450062250E+02 -0.21326917511E+02 -0.49991041310E+02  0.64889510210E+02  0.00000000000E+00 0. -1.
</event>
<event>
 7    1  0.6988825E-006  0.9926044E+02  0.7561462E-02  0.1281859E+00
          1   -1    0    0  501    0  0.00000000000E+00  0.00000000000E+00  0.14495659376E+04  0.14495659376E+04  0.00000000000E+00 0. -1.
         -1   -1    0    0    0  501 -0.00000000000E+00 -0.00000000000E+00 -0.12367000773E+02  0.12367000773E+02  0.00000000000E+00 0.  1.
         23    2    1    2    0    0 -0.28371562604E+02 -0.72679742813E+02  0.63717378919E+03  0.64843852191E+03  0.91623078330E+02 0.  0.
          5    1    1    2  502    0  0.12735359192E+01  0.11475010327E+02  0.63825875341E+03  0.63837685301E+03  0.41800000000E+01 0.  1.
         -5    1    1    2    0  502  0.27098026685E+02  0.61204732486E+02  0.16176639422E+03  0.17511756345E+03  0.41800000000E+01 0.  1.
        -11    1    3    3    0    0 -0.52414586485E+02 -0.11807595776E+02  0.24306768922E+03  0.24893495082E+03  0.00000000000E+00 0.  1.
         11    1    3    3    0    0  0.24043023881E+02 -0.60872147037E+02  0.39410609996E+03  0.39950357109E+03  0.00000000000E+00 0. -1.
</event>
<event>
 7    1  0.6988825E-006  0.8278983E+02  0.7561462E-02  0.1321316E+00
         -1   -1    0    0    0  501 -0.00000000000E+00  0.00000000000E+00  0.33792409999E+03  0.33792409999E+03  0.00000000000E+00 0.  1.
          1   -1    0    0  501    0  0.00000000000E+00 -0.00000000000E+00 -0.25463748529E+02  0.25463748529E+02  0.00000000000E+00 0. -1.
         23    2    1    2    0    0 -0.95100219795E+01 -0.45679709082E+01  0.95295458154E+02  0.11256366940E+03  0.58974981550E+02 0.  0.
          5    1    1    2  502    0  0.35315736760E+02  0.49258826639E+02  0.17094370048E+03  0.18141900231E+03  0.41800000000E+01 0. -1.
         -5    1    1    2    0  502 -0.25805714781E+02 -0.44690855731E+02  0.46221192830E+02  0.69405176810E+02  0.41800000000E+01 0. -1.
        -11    1    3    3    0    0  0.16786473094E+01  0.23123040903E+02  0.68932275660E+02  0.72726552958E+02  0.00000000000E+00 0.  1.
         11    1    3    3    0    0 -0.11188669289E+02 -0.27691011812E+02  0.26363182494E+02  0.39837116447E+02  0.00000000000E+00 0. -1.
</event>
<event>
 7    1  0.6988825E-006  0.1132912E+03  0.7561462E-02  0.1254594E+00
          1   -1    0    0  501    0  0.00000000000E+00  0.00000000000E+00  0.67878259323E+03  0.67878259323E+03  0.00000000000E+00 0. -1.
         -1   -1    0    0    0  501 -0.00000000000E+00 -0.00000000000E+00 -0.23813223974E+02  0.23813223974E+02  0.00000000000E+00 0.  1.
         23    2    1    2    0    0  0.26114214740E+02  0.55925598891E+02  0.23034817953E+03  0.25564922886E+03  0.92122850471E+02 0.  0.
          5    1    1    2  502    0 -0.50639101863E+02  0.18393610561E+02  0.10793283174E+03  0.12070464828E+03  0.41800000000E+01 0.  1.
         -5    1    1    2    0  502  0.24524887123E+02 -0.74319209452E+02  0.31668835798E+03  0.32624194007E+03  0.41800000000E+01 0.  1.
        -11    1    3    3    0    0 -0.24251873647E+02  0.26139072855E+02  0.16105337439E+03  0.16495330826E+03  0.00000000000E+00 0. -1.
         11    1    3    3    0    0  0.50366088386E+02  0.29786526036E+02  0.69294805148E+02  0.90695920598E+02  0.00000000000E+00 0.  1.
</event>
<event>
 7    1  0.6988825E-006  0.9540447E+02  0.7561462E-02  0.1290268E+00
         -2   -1    0    0    0  501 -0.00000000000E+00  0.00000000000E+00  0.10253450079E+03  0.10253450079E+03  0.00000000000E+00 0.  1.
          2   -1    0    0  501    0  0.00000000000E+00 -0.00000000000E+00 -0.15610457478E+03  0.15610457478E+03  0.00000000000E+00 0. -1.
         23    2    1    2    0    0 -0.37270858860E+02 -0.46156225906E+02  0.73543894581E+01  0.10736421592E+03  0.89182249951E+02 0.  0.
          5    1    1    2  502    0  0.43455117043E+02  0.56223294360E+02  0.16312922118E+02  0.73027322654E+02  0.41800000000E+01 0. -1.
         -5    1    1    2    0  502 -0.61842581826E+01 -0.10067068455E+02 -0.77237385565E+02  0.78247536993E+02  0.41800000000E+01 0. -1.
        -11    1    3    3    0    0 -0.52263593787E+02 -0.64748854865E+02  0.49032339990E+01  0.83354298903E+02  0.00000000000E+00 0.  1.
         11    1    3    3    0    0  0.14992734927E+02  0.18592628960E+02  0.24511554590E+01  0.24009917020E+02  0.00000000000E+00 0. -1.
</event>
<event>
 7    1  0.6988825E-006  0.1513508E+03  0.7561462E-02  0.1198823E+00
          1   -1    0    0  501    0  0.00000000000E+00  0.00000000000E+00  0.14023657773E+04  0.14023657773E+04  0.00000000000E+00 0. -1.
         -1   -1    0    0    0  501 -0.00000000000E+00 -0.00000000000E+00 -0.18971405693E+02  0.18971405693E+02  0.00000000000E+00 0.  1.
         23    2    1    2    0    0 -0.94501465456E+02 -0.68297524151E+02  0.50232049581E+03  0.52382737591E+03  0.92055203356E+02 0.  0.
          5    1    1    2  502    0 -0.22749744135E+02 -0.44980235535E+01  0.27022209291E+03  0.27124755293E+03  0.41800000000E+01 0. -1.
         -5    1    1    2    0  502  0.11725120959E+03  0.72795547705E+02  0.61085178286E+03  0.62626225413E+03  0.41800000000E+01 0. -1.
        -11    1    3    3    0    0 -0.58792552433E+02  0.55315610667E+01  0.29544981643E+03  0.30129347225E+03  0.00000000000E+00 0.  1.
         11    1    3    3    0    0 -0.35708913023E+02 -0.73829085218E+02  0.20687067937E+03  0.22253390366E+03  0.00000000000E+00 0. -1.
</event>
<event>
 7    1  0.6988825E-006  0.1716170E+03  0.7561462E-02  0.1176172E+00
         -1   -1    0    0    0  501 -0.00000000000E+00  0.00000000000E+00  0.43705564136E+03  0.43705564136E+03  0.00000000000E+00 0.  1.
          1   -1    0    0  501    0  0.00000000000E+00 -0.00000000000E+00 -0.86541057574E+02  0.86541057574E+02  0.00000000000E+00 0. -1.
         23    2    1    2    0    0 -0.98737028219E+02 -0.32388020322E+01  0.20945789489E+03  0.24816390016E+03  0.89180833301E+02 0.  0.
          5    1    1    2  502    0  0.86341257226E+02 -0.10009568109E+03  0.73910795948E+02  0.15150655507E+03  0.41800000000E+01 0. -1.
         -5    1    1    2    0  502  0.12395770993E+02  0.10333448312E+03  0.67145892946E+02  0.12392624371E+03  0.41800000000E+01 0.  1.
        -11    1    3    3    0    0 -0.25103431374E+02  0.17165496298E+02  0.14513108671E+03  0.14828307004E+03  0.00000000000E+00 0.  1.
         11    1    3    3    0    0 -0.73633596845E+02 -0.20404298331E+02  0.64326808186E+02  0.99880830124E+02  0.00000000000E+00 0. -1.
</event>
<event>
 7    1  0.6988825E-006  0.9578871E+02  0.7561462E-02  0.1289410E+00
          2   -1    0    0  501    0  0.00000000000E+00  0.00000000000E+00  0.29783403733E+03  0.29783403733E+03  0.00000000000E+00 0. -1.
         -2   -1    0    0    0  501 -0.00000000000E+00 -0.00000000000E+00 -0.49053572619E+02  0.49053572619E+02  0.00000000000E+00 0.  1.
         23    2    1    2    0    0  0.33255783980E+02 -0.34915890883E+02  0.67558936132E+02  0.12146903395E+03  0.88687370874E+02 0.  0.
          5    1    1    2  502    0 -0.52598581839E+02 -0.33328145389E+02  0.74192468067E+02  0.96950352265E+02  0.41800000000E+01 0.  1.
         -5    1    1    2    0  502  0.19342797859E+02  0.68244036272E+02  0.10702906051E+03  0.12846822373E+03  0.41800000000E+01 0.  1.
        -11    1    3    3    0    0  0.37244974574E+02 -0.19206933131E+02  0.86755001015E+02  0.96345859342E+02  0.00000000000E+00 0. -1.
         11    1    3    3    0    0 -0.39891905938E+01 -0.15708957752E+02 -0.19196064883E+02  0.25123174605E+02  0.00000000000E+00 0.  1.
</event>
<event>
 7    1  0.6988825E-006  0.9930663E+02  0.7561462E-02  0.1281761E+00
         -2   -1    0    0    0  501 -0.00000000000E+00  0.00000000000E+00  0.13697517598E+03  0.13697517598E+03  0.00000000000E+00 0.  1.
          2   -1    0    0  501    0  0.00000000000E+00 -0.00000000000E+00 -0.12197524689E+03  0.12197524689E+03  0.00000000000E+00 0. -1.
         23    2    1    2    0    0 -0.22158119036E+02 -0.48401235115E+02  0.55267691275E+02  0.11717006860E+03  0.88547419372E+02 0.  0.
          5    1    1    2  502    0  0.41250421468E+02  0.84833782214E+02 -0.24682665708E+02  0.97596486937E+02  0.41800000000E+01 0.  1.
         -5    1    1    2    0  502 -0.19092302431E+02 -0.36432547099E+02 -0.15585096478E+02  0.44183867333E+02  0.41800000000E+01 0.  1.
        -11    1    3    3    0    0 -0.19735220631E+02 -0.63601168023E+01 -0.21337957190E+02  0.29752956763E+02  0.00000000000E+00 0.  1.
         11    1    3    3    0    0 -0.24228984058E+01 -0.42041118313E+02  0.76605648465E+02  0.87417111840E+02  0.00000000000E+00 0. -1.
</event>
<event>
 6    1  0.6988825E-006  0.5027220E+02  0.7561462E-02  0.1443879E+00
          2   -1    0    0  501    0  0.00000000000E+00  0.00000000000E+00  0.10623584361E+04  0.10623584361E+04  0.00000000000E+00 0. -1.
         -2   -1    0    0    0  501 -0.00000000000E+00 -0.00000000000E+00 -0.68428137184E+01  0.68428137184E+01  0.00000000000E+00 0.  1.
          5    1    1    2  502    0 -0.11430044228E+01 -0.26974771513E+02  0.83956236087E+03  0.84000677077E+03  0.41800000000E+01 0. -1.
         -5    1    1    2    0  502  0.30808028200E+02  0.30027006246E+02  0.13209665056E+03  0.13898832035E+03  0.41800000000E+01 0.  1.
        -11    1    1    2    0    0 -0.11545944795E+02 -0.27969435906E+01  0.53912901523E+02  0.55206273967E+02  0.00000000000E+00 0. -1.
         11    1    1    2    0    0 -0.18119078982E+02 -0.25529114237E+00  0.29943709471E+02  0.34999884766E+02  0.00000000000E+00 0.  1.
</event>
<event>
 7    1  0.6988825E-006  0.1279913E+03  0.7561462E-02  0.1230467E+00
          2   -1    0    0  501    0  0.00000000000E+00  0.00000000000E+00  0.56088262113E+03  0.56088262113E+03  0.00000000000E+00 0. -1.
         -2   -1    0    0    0  501 -0.00000000000E+00 -0.00000000000E+00 -0.38349934125E+02  0.38349934125E+02  0.00000000000E+00 0.  1.
         23    2    1    2    0    0 -0.90647736552E+02  0.34735466642E+02  0.27108911339E+03  0.30208694979E+03  0.91343598852E+02 0.  0.
          5    1    1    2  502    0  0.11662786092E+03 -0.37881410593E+02  0.15817262048E+03  0.20018269027E+03  0.41800000000E+01 0.  1.
         -5    1    1    2    0  502 -0.25980124369E+02  0.31459439514E+01  0.93270953124E+02  0.96962915191E+02  0.41800000000E+01 0.  1.
        -11    1    3    3    0    0 -0.28753911405E+02  0.34471590806E+02  0.21135352582E+03  0.21606802371E+03  0.00000000000E+00 0. -1.
         11    1    3    3    0    0 -0.61893825147E+02  0.26387583564E+00  0.59735587570E+02  0.86018926081E+02  0.00000000000E+00 0.  1.
</event>
<event>
 7    1  0.6988825E-006  0.1188843E+03  0.7561462E-02  0.1244949E+00
          1   -1    0    0  501    0  0.00000000000E+00  0.00000000000E+00  0.46570774071E+03  0.46570774071E+03  0.00000000000E+00 0. -1.
         -1   -1    0    0    0  501 -0.00000000000E+00 -0.00000000000E+00 -0.39453800490E+02  0.39453800490E+02  0.00000000000E+00 0.  1.
         23    2    1    2    0    0  0.10424328469E+02 -0.68269624695E+02  0.10827409482E+03  0.15655428997E+03  0.89535232283E+02 0.  0.
          5    1    1    2  502    0  0.45633847153E+02  0.14079199119E+02  0.49108196769E+02  0.68627685694E+02  0.41800000000E+01 0.  1.
         -5    1    1    2    0  502 -0.56058175623E+02  0.54190425576E+02  0.26887164864E+03  0.27997956554E+03  0.41800000000E+01 0.  1.
        -11    1    3    3    0    0 -0.13533869601E+00  0.21429707996E+02  0.31020882852E+02  0.37703393405E+02  0.00000000000E+00 0. -1.
         11    1    3    3    0    0  0.10559667165E+02 -0.89699332690E+02  0.77253211966E+02  0.11885089657E+03  0.00000000000E+00 0.  1.
</event>
<event>
 7    1  0.6988825E-006  0.8364433E+02  0.7561462E-02  0.1319016E+00
         -2   -1    0    0    0  501 -0.00000000000E+00  0.00000000000E+00  0.25800061738E+02  0.25800061738E+02  0.00000000000E+00 0.  1.
          2   -1    0    0  501    0  0.00000000000E+00 -0.00000000000E+00 -0.50313367707E+03  0.50313367707E+03  0.00000000000E+00 0. -1.
         23    2    1    2    0    0 -0.17605366485E+02 -0.87520495120E+01 -0.14299064308E+03  0.17141550560E+03  0.92468395969E+02 0.  0.
          5    1    1    2  502    0 -0.28941265918E+02 -0.41175737012E+02 -0.20590804800E+03  0.21201093090E+03  0.41800000000E+01 0. -1.
         -5    1    1    2    0  502  0.46546632404E+02  0.49927786524E+02 -0.12843492426E+03  0.14550730231E+03  0.41800000000E+01 0. -1.
        -11    1    3    3    0    0 -0.32058496322E+02 -0.10739404603E+02 -0.15102309571E+03  0.15476129179E+03  0.00000000000E+00 0. -1.
         11    1    3    3    0    0  0.14453129837E+02  0.19873550913E+01  0.80324526357E+01  0.16654213812E+02  0.00000000000E+00 0.  1.
</event>
<event>
 7    1  0.6988825E-006  0.1080398E+03  0.7561462E-02  0.1264243E+00
         -1   -1    0    0    0  501 -0.00000000000E+00  0.00000000000E+00  0.12588479989E+03  0.12588479989E+03  0.00000000000E+00 0.  1.
          1   -1    0    0  501    0  0.00000000000E+00 -0.00000000000E+00 -0.11586631981E+03  0.11586631981E+03  0.00000000000E+00 0. -1.
         23    2    1    2    0    0  0.16588404834E+02 -0.34218512239E+02  0.42606265867E+02  0.10700351400E+03  0.90489647822E+02 0.  0.
          5    1    1    2  502    0  0.40655975560E+02  0.52750199628E+02 -0.11694271520E+01  0.66740781156E+02  0.41800000000E+01 0.  1.
         -5    1    1    2    0  502 -0.57244380393E+02 -0.18531687389E+02 -0.31418358639E+02  0.68006824538E+02  0.41800000000E+01 0.  1.
        -11    1    3    3    0    0  0.22558124013E+02  0.22583514868E+02 -0.54242026414E+01  0.32377555143E+02  0.00000000000E+00 0.  1.
         11    1    3    3    0    0 -0.59697191790E+01 -0.56802027107E+02  0.48030468509E+02  0.74625958859E+02  0.00000000000E+00 0. -1.
</event>
<event>
 7    1  0.6988825E-006  0.1148807E+03  0.7561462E-02  0.1251790E+00
         -2   -1    0    0    0  501 -0.00000000000E+00  0.00000000000E+00  0.20614688472E+02  0.20614688472E+02  0.00000000000E+00 0. -1.
          2   -1    0    0  501    0  0.00000000000E+00 -0.00000000000E+00 -0.91309874570E+03  0.91309874570E+03  0.00000000000E+00 0.  1.
         23    2    1    2    0    0  0.36406821074E+02  0.72240284221E+02 -0.32089763081E+03  0.34303475649E+03  0.90296397573E+02 0.  0.
          5    1    1    2  502    0 -0.19821029415E+02  0.11778459087E+02 -0.15670582055E+02  0.28189445675E+02  0.41800000000E+01 0.  1.
         -5    1    1    2    0  502 -0.16585791659E+02 -0.84018743308E+02 -0.55591584436E+03  0.56248923201E+03  0.41800000000E+01 0.  1.
        -11    1    3    3    0    0  0.20567903121E+02 -0.18988732230E+02 -0.60436956735E+02  0.66605077358E+02  0.00000000000E+00 0.  1.
         11    1    3    3    0    0  0.15838917954E+02  0.91229016451E+02 -0.26046067408E+03  0.27642967913E+03  0.00000000000E+00 0. -1.
</event>
<event>
 7    1  0.6988825E-006  0.1073501E+03  0.7561462E-02  0.1265557E+00
         -1   -1    0    0    0  501 -0.00000000000E+00  0.00000000000E+00  0.24241551705E+02  0.24241551705E+02  0.00000000000E+00 0.  1.
          1   -1    0    0  501    0  0.00000000000E+00 -0.00000000000E+00 -0.52631210679E+03  0.52631210679E+03  0.00000000000E+00 0. -1.
         23    2    1    2    0    0  0.12949350609E+02  0.22507199707E+02 -0.16871405160E+03  0.19355718394E+03  0.91245232902E+02 0.  0.
          5    1    1    2  502    0 -0.12922746863E+00 -0.71907127421E+02 -0.14648513137E+03  0.16323607992E+03  0.41800000000E+01 0.  1.
         -5    1    1    2    0  502 -0.12820123141E+02  0.49399927714E+02 -0.18687137210E+03  0.19376039463E+03  0.41800000000E+01 0.  1.
        -11    1    3    3    0    0  0.41347201462E+02 -0.15380716390E+02 -0.55908545894E+02  0.71217434729E+02  0.00000000000E+00 0.  1.
         11    1    3    3    0    0 -0.28397850853E+02  0.37887916097E+02 -0.11280550571E+03  0.12233974921E+03  0.00000000000E+00 0. -1.
</event>
<event>
 7    1  0.6988825E-006  0.2174229E+03  0.7561462E-02  0.1135819E+00
         -1   -1    0    0    0  501 -0.00000000000E+00  0.00000000000E+00  0.82420758781E+02  0.82420758781E+02  0.00000000000E+00 0.  1.
          1   -1    0    0  501    0  0.00000000000E+00 -0.00000000000E+00 -0.61163699641E+03  0.61163699641E+03  0.00000000000E+00 0. -1.
         23    2    1    2    0    0 -0.19584457614E+03  0.61968202112E+01 -0.23208444929E+03  0.31679185604E+03  0.90002165890E+02 0.  0.
          5    1    1    2  502    0  0.90105955860E+02  0.49409692755E+02 -0.19316105421E+03  0.21883570615E+03  0.41800000000E+01 0.  1.
         -5    1    1    2    0  502  0.10573862028E+03 -0.55606512967E+02 -0.10397073413E+03  0.15843019301E+03  0.41800000000E+01 0.  1.
        -11    1    3    3    0    0 -0.13276757137E+03  0.42838843017E+02 -0.17707203578E+03  0.22542604183E+03  0.00000000000E+00 0.  1.
         11    1    3    3    0    0 -0.63077004769E+02 -0.36642022806E+02 -0.55012413511E+02  0.91365814210E+02  0.00000000000E+00 0. -1.
</event>
<event>
 7    1  0.6988825E-006  0.7542563E+02  0.7561462E-02  0.1342558E+00
          1   -1    0    0  501    0  0.00000000000E+00  0.00000000000E+00  0.12336028695E+04  0.12336028695E+04  0.00000000000E+00 0. -1.
         -1   -1    0    0    0  501 -0.00000000000E+00 -0.00000000000E+00 -0.22139837514E+02  0.22139837514E+02  0.00000000000E+00 0.  1.
         23    2    1    2    0    0  0.20931046480E+02  0.69603100736E+02  0.18704364107E+03  0.22115769251E+03  0.92966127978E+02 0.  0.
          5    1    1    2  502    0 -0.23677901015E+02 -0.58263924144E+02  0.10191841592E+04  0.10211313092E+04  0.41800000000E+01 0.  1.
         -5    1    1    2    0  502  0.27468545356E+01 -0.11339176592E+02  0.52352317212E+01  0.13453705318E+02  0.41800000000E+01 0.  1.
        -11    1    3    3    0    0  0.22123217528E+01  0.42105311251E+02  0.13231036412E+02  0.44190631673E+02  0.00000000000E+00 0.  1.
         11    1    3    3    0    0  0.18718724727E+02  0.27497789484E+02  0.17381260466E+03  0.17696706083E+03  0.00000000000E+00 0. -1.
</event>
<event>
 7    1  0.6988825E-006  0.2306766E+03  0.7561462E-02  0.1126164E+00
         -2   -1    0    0    0  501 -0.00000000000E+00  0.00000000000E+00  0.14202013141E+03  0.14202013141E+03  0.00000000000E+00 0. -1.
          2   -1    0    0  501    0  0.00000000000E+00 -0.00000000000E+00 -0.43755898538E+03  0.43755898538E+03  0.00000000000E+00 0.  1.
         23    2    1    2    0    0  0.17818868732E+03 -0.13575945949E+03 -0.15051318032E+03  0.28485552757E+03  0.91140633120E+02 0.  0.
          5    1    1    2  502    0 -0.37232022849E+02  0.18671948550E+02 -0.96392801570E+02  0.10509000801E+03  0.41800000000E+01 0.  1.
         -5    1    1    2    0  502 -0.14095666447E+03  0.11708751094E+03 -0.48632872084E+02  0.18963358122E+03  0.41800000000E+01 0.  1.
        -11    1    3    3    0    0  0.10202047754E+03 -0.30900158685E+02 -0.98713729499E+02  0.14528385332E+03  0.00000000000E+00 0.  1.
         11    1    3    3    0    0  0.76168209784E+02 -0.10485930081E+03 -0.51799450821E+02  0.13957167425E+03  0.00000000000E+00 0. -1.
</event>
<event>
 7    1  0.6988825E-006  0.1080602E+03  0.7561462E-02  0.1264205E+00
         -2   -1    0    0    0  501 -0.00000000000E+00  0.00000000000E+00  0.70181844914E+03  0.70181844914E+03  0.00000000000E+00 0.  1.
          2   -1    0    0  501    0  0.00000000000E+00 -0.00000000000E+00 -0.19328034489E+02  0.19328034489E+02  0.00000000000E+00 0. -1.
         23    2    1    2    0    0  0.14035698866E+02 -0.17137247689E+02  0.40674842478E+03  0.41754768902E+03  0.91712079046E+02 0.  0.
          5    1    1    2  502    0 -0.25915235005E+02 -0.51161823707E+02  0.11941077726E+03  0.13253504342E+03  0.41800000000E+01 0.  1.
         -5    1    1    2    0  502  0.11879536139E+02  0.68299071396E+02  0.15633121261E+03  0.17106375118E+03  0.41800000000E+01 0.  1.
        -11    1    3    3    0    0 -0.93132375220E+01 -0.48881312070E+02  0.29229517789E+03  0.29650057349E+03  0.00000000000E+00 0.  1.
         11    1    3    3    0    0  0.23348936388E+02  0.31744064381E+02  0.11445324689E+03  0.12104711552E+03  0.00000000000E+00 0. -1.
</event>
<event>
 7    1  0.6988825E-006  0.1382873E+03  0.7561462E-02  0.1215652E+00
         -2   -1    0    0    0  501 -0.00000000000E+00  0.00000000000E+00  0.94936210355E+02  0.94936210355E+02  0.00000000000E+00 0.  1.
          2   -1    0    0  501    0  0.00000000000E+00 -0.00000000000E+00 -0.30669282377E+03  0.30669282377E+03  0.00000000000E+00 0. -1.
         23    2    1    2    0    0  0.50384954573E+02 -0.10670450083E+03 -0.32415376349E+02  0.15316307046E+03  0.92106869356E+02 0.  0.
          5    1    1    2  502    0  0.17627544864E+02  0.24992336053E+02 -0.12546622408E+03  0.12920755777E+03  0.41800000000E+01 0. -1.
         -5    1    1    2    0  502 -0.68012499438E+02  0.81712164781E+02 -0.53875012983E+02  0.11925840590E+03  0.41800000000E+01 0. -1.
        -11    1    3    3    0    0  0.90788651764E+01 -0.96283640061E+02  0.44687596444E+01  0.96813919190E+02  0.00000000000E+00 0.  1.
         11    1    3    3    0    0  0.41306089397E+02 -0.10420860773E+02 -0.36884135993E+02  0.56349151267E+02  0.00000000000E+00 0. -1.
</event>
<event>
 7    1  0.6988825E-006  0.9478401E+02  0.7561462E-02  0.1291663E+00
         -2   -1    0    0    0  501 -0.00000000000E+00  0.00000000000E+00  0.24512984219E+03  0.24512984219E+03  0.00000000000E+00 0.  1.
          2   -1    0    0  501    0  0.00000000000E+00 -0.00000000000E+00 -0.76033183334E+02  0.76033183334E+02  0.00000000000E+00 0. -1.
         23    2    1    2    0    0 -0.24779500256E+01  0.57028671753E+02  0.15510189408E+03  0.18862089811E+03  0.90900143126E+02 0.  0.
          5    1    1    2  502    0  0.38512067137E+02  0.79577763894E+00 -0.31982286289E+02  0.50240935635E+02  0.41800000000E+01 0. -1.
         -5    1    1    2    0  502 -0.36034117111E+02 -0.57824449392E+02  0.45977051073E+02  0.82301191783E+02  0.41800000000E+01 0.  1.
        -11    1    3    3    0    0 -0.63556952693E+01  0.69351336586E+02  0.16023908338E+03  0.17471853534E+03  0.00000000000E+00 0.  1.
         11    1    3    3    0    0  0.38777452437E+01 -0.12322664833E+02 -0.51371893030E+01  0.13902362774E+02  0.00000000000E+00 0. -1.
</event>
<event>
 7    1  0.6988825E-006  0.8580510E+02  0.7561462E-02  0.1313340E+00
          3   -1    0    0  501    0  0.00000000000E+00  0.00000000000E+00  0.11369470405E+03  0.11369470405E+03  0.00000000000E+00 0. -1.
         -3   -1    0    0    0  501 -0.00000000000E+00 -0.00000000000E+00 -0.13901910930E+03  0.13901910930E+03  0.00000000000E+00 0.  1.
         23    2    1    2    0    0  0.41267619769E+02  0.43416861764E+02 -0.31070445871E+02  0.11390455295E+03  0.91765103651E+02 0.  0.
          5    1    1    2  502    0 -0.37515370662E+02 -0.30534895141E+02  0.63180309070E+02  0.79680654562E+02  0.41800000000E+01 0. -1.
         -5    1    1    2    0  502 -0.37522491070E+01 -0.12881966624E+02 -0.57434268441E+02  0.59128605842E+02  0.41800000000E+01 0. -1.
        -11    1    3    3    0    0  0.55211866802E+02  0.63759461608E+02 -0.19044039791E+02  0.86465569055E+02  0.00000000000E+00 0. -1.
         11    1    3    3    0    0 -0.13944247033E+02 -0.20342599844E+02 -0.12026406080E+02  0.27438983890E+02  0.00000000000E+00 0.  1.
</event>
<event>
 7    1  0.6988825E-006  0.1363137E+03  0.7561462E-02  0.1218377E+00
         -1   -1    0    0    0  501 -0.00000000000E+00  0.00000000000E+00  0.15184043672E+02  0.15184043672E+02  0.00000000000E+00 0. -1.
          1   -1    0    0  501    0  0.00000000000E+00 -0.00000000000E+00 -0.12839659826E+04  0.12839659826E+04  0.00000000000E+00 0.  1.
         23    2    1    2    0    0 -0.57199493969E+02 -0.59834560401E+02 -0.45288783823E+03  0.46958226411E+03  0.92456216791E+02 0.  0.
          5    1    1    2  502    0  0.96358926379E+02  0.52914302653E+02 -0.60024815508E+03  0.61024608659E+03  0.41800000000E+01 0. -1.
         -5    1    1    2    0  502 -0.39159432410E+02  0.69202577487E+01 -0.21564594562E+03  0.21932167557E+03  0.41800000000E+01 0. -1.
        -11    1    3    3    0    0 -0.73837263821E+02 -0.71126832942E+02 -0.34814884199E+03  0.36293054993E+03  0.00000000000E+00 0.  1.
         11    1    3    3    0    0  0.16637769852E+02  0.11292272541E+02 -0.10473899624E+03  0.10665171418E+03  0.00000000000E+00 0. -1.
</event>
<event>
 7    1  0.6988825E-006  0.1591679E+03  0.7561462E-02  0.1189639E+00
          1   -1    0    0  501    0  0.00000000000E+00  0.00000000000E+00  0.50125614866E+03  0.50125614866E+03  0.00000000000E+00 0. -1.
         -1   -1    0    0    0  501 -0.00000000000E+00 -0.00000000000E+00 -0.55456959333E+02  0.55456959333E+02  0.00000000000E+00 0.  1.
         23    2    1    2    0    0  0.91558733612E+01  0.12071572929E+03  0.14869366240E+03  0.21236570621E+03  0.91286749433E+02 0.  0.
          5    1    1    2  502    0  0.44592418421E+02 -0.10529946195E+03  0.16460733980E+03  0.20047321313E+03  0.41800000000E+01 0. -1.
         -5    1    1    2    0  502 -0.53748291782E+02 -0.15416267340E+02  0.13249818712E+03  0.14387418865E+03  0.41800000000E+01 0. -1.
        -11    1    3    3    0    0 -0.50732246296E+01  0.13047993009E+03  0.14419347823E+03  0.19453151140E+03  0.00000000000E+00 0. -1.
         11    1    3    3    0    0  0.14229097991E+02 -0.97642008018E+01  0.45001841701E+01  0.17834194809E+02  0.00000000000E+00 0.  1.
</event>
<event>
 7    1  0.6988825E-006  0.5763727E+02  0.7561462E-02  0.1408023E+00
         -1   -1    0    0    0  501 -0.00000000000E+00  0.00000000000E+00  0.15259398131E+02  0.15259398131E+02  0.00000000000E+00 0.  1.
          1   -1    0    0  501    0  0.00000000000E+00 -0.00000000000E+00 -0.80054417191E+03  0.80054417191E+03  0.00000000000E+00 0. -1.
         23    2    1    2    0    0  0.16373374953E+01 -0.48584275042E+00 -0.26616585056E+03  0.28182427518E+03  0.92616117157E+02 0.  0.
          5    1    1    2  502    0 -0.10351590569E+02  0.96823660673E+01 -0.88880054278E-01  0.14777819177E+02  0.41800000000E+01 0. -1.
         -5    1    1    2    0  502  0.87142530737E+01 -0.91965233169E+01 -0.51903004316E+03  0.51920147568E+03  0.41800000000E+01 0. -1.
        -11    1    3    3    0    0 -0.28507026492E+02  0.31988165559E+02 -0.17883286372E+03  0.18389422623E+03  0.00000000000E+00 0.  1.
         11    1    3    3    0    0  0.30144363988E+02 -0.32474008310E+02 -0.87332986844E+02  0.97930048948E+02  0.00000000000E+00 0. -1.
</event>
<event>
 7    1  0.6988825E-006  0.1199183E+03  0.7561462E-02  0.1243232E+00
         -2   -1    0    0    0  501 -0.00000000000E+00  0.00000000000E+00  0.63193671772E+02  0.63193671772E+02  0.00000000000E+00 0.  1.
          2   -1    0    0  501    0  0.00000000000E+00 -0.00000000000E+00 -0.28208649014E+03  0.28208649014E+03  0.00000000000E+00 0. -1.
         23    2    1    2    0    0  0.30467347890E+02 -0.45742550160E+02 -0.31181403843E+02  0.11310835349E+03  0.93811403901E+02 0.  0.
          5    1    1    2  502    0  0.32219744373E+02  0.60094409841E+02 -0.12386791925E+03  0.14145735697E+03  0.41800000000E+01 0.  1.
         -5    1    1    2    0  502 -0.62687092262E+02 -0.14351859681E+02 -0.63843495274E+02  0.90714451448E+02  0.41800000000E+01 0.  1.
        -11    1    3    3    0    0  0.32207945475E+02  0.22196478900E+02 -0.20579940764E+01  0.39169768533E+02  0.00000000000E+00 0. -1.
         11    1    3    3    0    0 -0.17405975855E+01 -0.67939029060E+02 -0.29123409767E+02  0.73938584961E+02  0.00000000000E+00 0.  1.
</event>
<event>
 7    1  0.6988825E-006  0.1152384E+03  0.7561462E-02  0.1251166E+00
         -2   -1    0    0    0  501 -0.00000000000E+00  0.00000000000E+00  0.21316105991E+03  0.21316105991E+03  0.00000000000E+00 0. -1.
          2   -1    0    0  501    0  0.00000000000E+00 -0.00000000000E+00 -0.65790614421E+02  0.65790614421E+02  0.00000000000E+00 0.  1.
         23    2    1    2    0    0 -0.10902759044E+02  0.38027433141E+02  0.54627395943E+02  0.11828153270E+03  0.97166932468E+02 0.  0.
          5    1    1    2  502    0 -0.53074701147E+02 -0.33994610073E+02  0.26825458610E+02  0.68626780818E+02  0.41800000000E+01 0.  1.
         -5    1    1    2    0  502  0.63977460191E+02 -0.40328230686E+01  0.65917590941E+02  0.92043360814E+02  0.41800000000E+01 0.  1.
        -11    1    3    3    0    0 -0.50872126202E+02  0.48102646205E+01  0.38123296453E+02  0.63753412477E+02  0.00000000000E+00 0.  1.
         11    1    3    3    0    0  0.39969367158E+02  0.33217168521E+02  0.16504099490E+02  0.54528120227E+02  0.00000000000E+00 0. -1.
</event>
<event>
 7    1  0.6988825E-006  0.7244172E+02  0.7561462E-02  0.1351981E+00
          2   -1    0    0  501    0  0.00000000000E+00  0.00000000000E+00  0.10007467685E+04  0.10007467685E+04  0.00000000000E+00 0. -1.
         -2   -1    0    0    0  501 -0.00000000000E+00 -0.00000000000E+00 -0.26553132987E+02  0.26553132987E+02  0.00000000000E+00 0.  1.
         23    2    1    2    0    0 -0.24973508231E+02 -0.14364129175E+01  0.15430069863E+03  0.19754164594E+03  0.12078185662E+03 0.  0.
          5    1    1    2  502    0  0.26582619918E+02  0.29306414425E+01  0.82341991478E+03  0.82386470540E+03  0.41800000000E+01 0.  1.
         -5    1    1    2    0  502 -0.16091116868E+01 -0.14942285250E+01 -0.35269779465E+01  0.58935500966E+01  0.41800000000E+01 0.  1.
        -11    1    3    3    0    0 -0.37622014875E+02  0.48612886715E+02  0.43499655661E+02  0.75305038348E+02  0.00000000000E+00 0.  1.
         11    1    3    3    0    0  0.12648506644E+02 -0.50049299632E+02  0.11080104297E+03  0.12223660760E+03  0.00000000000E+00 0. -1.
</event>
<event>
 7    1  0.6988825E-006  0.1366848E+03  0.7561462E-02  0.1217861E+00
          1   -1    0    0  501    0  0.00000000000E+00  0.00000000000E+00  0.27672281489E+03  0.27672281489E+03  0.00000000000E+00 0. -1.
         -1   -1    0    0    0  501 -0.00000000000E+00 -0.00000000000E+00 -0.10499529039E+03  0.10499529039E+03  0.00000000000E+00 0.  1.
         23    2    1    2    0    0  0.72694090128E+02 -0.80015567580E+02 -0.14395459367E+01  0.14229893321E+03  0.92520226468E+02 0.  0.
          5    1    1    2  502    0  0.12120246278E+02  0.34017389873E+02 -0.50646338174E+01  0.36704306277E+02  0.41800000000E+01 0.  1.
         -5    1    1    2    0  502 -0.84814336405E+02  0.45998177707E+02  0.17823170425E+03  0.20271486579E+03  0.41800000000E+01 0.  1.
        -11    1    3    3    0    0  0.90884701554E+02 -0.45990103795E+02  0.92087025810E+01  0.10227374456E+03  0.00000000000E+00 0. -1.
         11    1    3    3    0    0 -0.18190611426E+02 -0.34025463785E+02 -0.10648248518E+02  0.40025188648E+02  0.00000000000E+00 0.  1.
</event>
<event>
 7    1  0.6988825E-006  0.9546779E+02  0.7561462E-02  0.1290126E+00
         -1   -1    0    0    0  501 -0.00000000000E+00  0.00000000000E+00  0.38322959118E+02  0.38322959118E+02  0.00000000000E+00 0.  1.
          1   -1    0    0  501    0  0.00000000000E+00 -0.00000000000E+00 -0.49416922447E+03  0.49416922447E+03  0.00000000000E+00 0. -1.
         23    2    1    2    0    0  0.41479103145E+02  0.70830860310E+02 -0.16040479237E+03  0.20132828432E+03  0.89810098992E+02 0.  0.
          5    1    1    2  502    0 -0.20370443019E+02 -0.44017794222E+02 -0.18472737377E+02  0.52069526435E+02  0.41800000000E+01 0.  1.
         -5    1    1    2    0  502 -0.21108660126E+02 -0.26813066088E+02 -0.27696873560E+03  0.27909437283E+03  0.41800000000E+01 0.  1.
        -11    1    3    3    0    0  0.78387332251E+01  0.73695139815E+02 -0.14770819242E+03  0.16525776678E+03  0.00000000000E+00 0.  1.
         11    1    3    3    0    0  0.33640369920E+02 -0.28642795046E+01 -0.12696599945E+02  0.36070517540E+02  0.00000000000E+00 0. -1.
</event>
<event>
 7    1  0.6988825E-006  0.2067900E+03  0.7561462E-02  0.1144133E+00
          1   -1    0    0  501    0  0.00000000000E+00  0.00000000000E+00  0.28330559684E+04  0.28330559684E+04  0.00000000000E+00 0. -1.
         -1   -1    0    0    0  501 -0.00000000000E+00 -0.00000000000E+00 -0.16987976979E+02  0.16987976979E+02  0.00000000000E+00 0.  1.
         23    2    1    2    0    0 -0.17782875842E+03  0.21251278621E+02  0.94298321627E+03  0.96426311087E+03  0.92256797280E+02 0.  0.
          5    1    1    2  502    0 -0.15042981775E+02 -0.10957065413E+02  0.34582575269E+03  0.34635137102E+03  0.41800000000E+01 0.  1.
         -5    1    1    2    0  502  0.19287174019E+03 -0.10294213208E+02  0.15272590225E+04  0.15394294635E+04  0.41800000000E+01 0.  1.
        -11    1    3    3    0    0 -0.14870349480E+03  0.53338380278E+02  0.75466470019E+03  0.77102303590E+03  0.00000000000E+00 0.  1.
         11    1    3    3    0    0 -0.29125263617E+02 -0.32087101658E+02  0.18831851608E+03  0.19324007497E+03  0.00000000000E+00 0. -1.
</event>
<event>
 7    1  0.6988825E-006  0.1161135E+03  0.7561462E-02  0.1249650E+00
         -1   -1    0    0    0  501 -0.00000000000E+00  0.00000000000E+00  0.67898219056E+02  0.67898219056E+02  0.00000000000E+00 0.  1.
          1   -1    0    0  501    0  0.00000000000E+00 -0.00000000000E+00 -0.34319680787E+03  0.34319680787E+03  0.00000000000E+00 0. -1.
         23    2    1    2    0    0 -0.97075225667E+00 -0.23916461745E+02 -0.25281172067E+01  0.10816973249E+03  0.10545785959E+03 0.  0.
          5    1    1    2  502    0  0.39538801806E+02 -0.38734000740E+02 -0.14736342486E+03  0.15747092128E+03  0.41800000000E+01 0. -1.
         -5    1    1    2    0  502 -0.38568049549E+02  0.62650462486E+02 -0.12540704674E+03  0.14545437315E+03  0.41800000000E+01 0.  1.
        -11    1    3    3    0    0 -0.36455174442E+02  0.23822031969E+02 -0.17336033991E+02  0.46872241521E+02  0.00000000000E+00 0.  1.
         11    1    3    3    0    0  0.35484422185E+02 -0.47738493714E+02  0.14807916784E+02  0.61297490971E+02  0.00000000000E+00 0. -1.
</event>
<event>
 7    1  0.6988825E-006  0.2711086E+03  0.7561462E-02  0.1100647E+00
         -1   -1    0    0    0  501 -0.00000000000E+00  0.00000000000E+00  0.15465638294E+03  0.15465638294E+03  0.00000000000E+00 0.  1.
          1   -1    0    0  501    0  0.00000000000E+00 -0.00000000000E+00 -0.52016888562E+03  0.52016888562E+03  0.00000000000E+00 0. -1.
         23    2    1    2    0    0 -0.18484689017E+03 -0.18187425138E+03 -0.18327056452E+03  0.33030397305E+03  0.90917537780E+02 0.  0.
          5    1    1    2  502    0 -0.12396546611E+02  0.32016288668E+02  0.36619414917E+01  0.34779294464E+02  0.41800000000E+01 0. -1.
         -5    1    1    2    0  502  0.19724343678E+03  0.14985796271E+03 -0.18590387965E+03  0.30974200104E+03  0.41800000000E+01 0.  1.
        -11    1    3    3    0    0 -0.22383567419E+02 -0.14759955868E+02 -0.62050269630E+02  0.67595239099E+02  0.00000000000E+00 0.  1.
         11    1    3    3    0    0 -0.16246332275E+03 -0.16711429551E+03 -0.12122029489E+03  0.26270873395E+03  0.00000000000E+00 0. -1.
</event>
<event>
 7    1  0.6988825E-006  0.7887067E+02  0.7561462E-02  0.1332287E+00
         -4   -1    0    0    0  501 -0.00000000000E+00  0.00000000000E+00  0.28209435126E+03  0.28209435126E+03  0.00000000000E+00 0.  1.
          4   -1    0    0  501    0  0.00000000000E+00 -0.00000000000E+00 -0.43222840450E+02  0.43222840450E+02  0.00000000000E+00 0. -1.
         23    2    1    2    0    0  0.80109690136E+01  0.76293092710E+01  0.12487785715E+03  0.15571580925E+03  0.92360987766E+02 0.  0.
          5    1    1    2  502    0 -0.43850770555E+02 -0.27379720763E+02  0.11737978244E+03  0.12832780257E+03  0.41800000000E+01 0. -1.
         -5    1    1    2    0  502  0.35839801541E+02  0.19750411492E+02 -0.33861287756E+01  0.41273579887E+02  0.41800000000E+01 0. -1.
        -11    1    3    3    0    0  0.29775854253E+02  0.23394420962E+02  0.12308861052E+03  0.12878162318E+03  0.00000000000E+00 0.  1.
         11    1    3    3    0    0 -0.21764885240E+02 -0.15765111691E+02  0.17892466302E+01  0.26934186077E+02  0.00000000000E+00 0. -1.
</event>
<event>
 7    1  0.6988825E-006  0.1018040E+03  0.7561462E-02  0.1276547E+00
          2   -1    0    0  501    0  0.00000000000E+00  0.00000000000E+00  0.15305249768E+03  0.15305249768E+03  0.00000000000E+00 0. -1.
         -2   -1    0    0    0  501 -0.00000000000E+00 -0.00000000000E+00 -0.83693995211E+02  0.83693995211E+02  0.00000000000E+00 0.  1.
         23    2    1    2    0    0  0.15879682818E+02 -0.28873249567E+02  0.34394160839E+02  0.10273887259E+03  0.91030153108E+02 0.  0.
          5    1    1    2  502    0 -0.69674586823E+02  0.13970177233E+02  0.72710221172E+01  0.71554553060E+02  0.41800000000E+01 0. -1.
         -5    1    1    2    0  502  0.53794904005E+02  0.14903072334E+02  0.27693319512E+02  0.62453067239E+02  0.41800000000E+01 0. -1.
        -11    1    3    3    0    0 -0.96452550283E+01 -0.45153141061E+02 -0.11663346392E+02  0.47622166491E+02  0.00000000000E+00 0.  1.
         11    1    3    3    0    0  0.25524937847E+02  0.16279891494E+02  0.46057507232E+02  0.55116706102E+02  0.00000000000E+00 0. -1.
</event>
<event>
 7    1  0.6988825E-006  0.9474619E+02  0.7561462E-02  0.1291749E+00
         -2   -1    0    0    0  501 -0.00000000000E+00  0.00000000000E+00  0.41057044907E+03  0.41057044907E+03  0.00000000000E+00 0. -1.
          2   -1    0    0  501    0  0.00000000000E+00 -0.00000000000E+00 -0.53593102414E+02  0.53593102414E+02  0.00000000000E+00 0.  1.
         23    2    1    2    0    0 -0.10472200038E+02 -0.30445218745E+01  0.32068075791E+03  0.33346061469E+03  0.90779386251E+02 0.  0.
          5    1    1    2  502    0 -0.44704591797E+02 -0.21379947085E+02  0.47976385038E+02  0.69099989771E+02  0.41800000000E+01 0. -1.
         -5    1    1    2    0  502  0.55176791835E+02  0.24424468960E+02 -0.11679796287E+02  0.61602947028E+02  0.41800000000E+01 0. -1.
        -11    1    3    3    0    0 -0.19225667362E+02 -0.38351635673E+02  0.25311634957E+03  0.25672623681E+03  0.00000000000E+00 0. -1.
         11    1    3    3    0    0  0.87534673238E+01  0.35307113799E+02  0.67564408339E+02  0.76734377884E+02  0.00000000000E+00 0.  1.
</event>
<event>
 7    1  0.6988825E-006  0.1041462E+03  0.7561462E-02  0.1271811E+00
          1   -1    0    0  501    0  0.00000000000E+00  0.00000000000E+00  0.37027792022E+03  0.37027792022E+03  0.00000000000E+00 0. -1.
         -1   -1    0    0    0  501 -0.00000000000E+00 -0.00000000000E+00 -0.35188494276E+02  0.35188494276E+02  0.00000000000E+00 0.  1.
         23    2    1    2    0    0  0.21124875267E+02 -0.16361136488E+02  0.17446400770E+03  0.20013426591E+03  0.94350873164E+02 0.  0.
          5    1    1    2  502    0 -0.57993584829E+02  0.44963875174E+02  0.13006337948E+03  0.14939531798E+03  0.41800000000E+01 0. -1.
         -5    1    1    2    0  502  0.36868709562E+02 -0.28602738686E+02  0.30562038767E+02  0.55936830610E+02  0.41800000000E+01 0. -1.
        -11    1    3    3    0    0  0.13299199555E+02 -0.50857858706E+02  0.57361361422E+02  0.77805631449E+02  0.00000000000E+00 0.  1.
         11    1    3    3    0    0  0.78256757120E+01  0.34496722218E+02  0.11710264628E+03  0.12232863446E+03  0.00000000000E+00 0. -1.
</event>
<event>
 7    1  0.6988825E-006  0.1348079E+03  0.7561462E-02  0.1220491E+00
          1   -1    0    0  501    0  0.00000000000E+00  0.00000000000E+00  0.16887077764E+03  0.16887077764E+03  0.00000000000E+00 0. -1.
         -1   -1    0    0    0  501 -0.00000000000E+00 -0.00000000000E+00 -0.12808378473E+03  0.12808378473E+03  0.00000000000E+00 0.  1.
         23    2    1    2    0    0 -0.34974432163E+02  0.76310625768E+02 -0.33589777561E+02  0.12894777120E+03  0.91938740643E+02 0.  0.
          5    1    1    2  502    0 -0.41732826161E+02 -0.52334137919E+02  0.50843557195E+02  0.84160741913E+02  0.41800000000E+01 0.  1.
         -5    1    1    2    0  502  0.76707258324E+02 -0.23976487849E+02  0.23533213272E+02  0.83846049258E+02  0.41800000000E+01 0.  1.
        -11    1    3    3    0    0  0.23884968784E+02  0.54143795565E+02 -0.28955353241E+02  0.65882128179E+02  0.00000000000E+00 0.  1.
         11    1    3    3    0    0 -0.58859400947E+02  0.22166830203E+02 -0.46344243206E+01  0.63065643023E+02  0.00000000000E+00 0. -1.
</event>
<event>
 7    1  0.6988825E-006  0.1022450E+03  0.7561462E-02  0.1275645E+00
          2   -1    0    0  501    0  0.00000000000E+00  0.00000000000E+00  0.19049031503E+03  0.19049031503E+03  0.00000000000E+00 0. -1.
         -2   -1    0    0    0  501 -0.00000000000E+00 -0.00000000000E+00 -0.98091711454E+02  0.98091711454E+02  0.00000000000E+00 0.  1.
         23    2    1    2    0    0 -0.17115372632E+02 -0.24883588100E+02 -0.23558220195E+02  0.10449769299E+03  0.97224735353E+02 0.  0.
          5    1    1    2  502    0  0.47292728366E+02  0.46090048848E+02  0.12880255718E+03  0.14480492359E+03  0.41800000000E+01 0. -1.
         -5    1    1    2    0  502 -0.30177355734E+02 -0.21206460748E+02 -0.12845733402E+02  0.39279409914E+02  0.41800000000E+01 0.  1.
        -11    1    3    3    0    0  0.35456331689E+02  0.11491579143E+02 -0.14208452597E+02  0.39888444107E+02  0.00000000000E+00 0. -1.
         11    1    3    3    0    0 -0.52571704321E+02 -0.36375167243E+02 -0.93497675983E+01  0.64609248884E+02  0.00000000000E+00 0.  1.
</event>
<event>
 7    1  0.6988825E-006  0.2292363E+03  0.7561462E-02  0.1127178E+00
         -1   -1    0    0    0  501 -0.00000000000E+00  0.00000000000E+00  0.10380923331E+03  0.10380923331E+03  0.00000000000E+00 0.  1.
          1   -1    0    0  501    0  0.00000000000E+00 -0.00000000000E+00 -0.63853858256E+03  0.63853858256E+03  0.00000000000E+00 0. -1.
         23    2    1    2    0    0  0.80028735591E+02  0.19361629497E+03 -0.10960658407E+03  0.25217364996E+03  0.87670281528E+02 0.  0.
          5    1    1    2  502    0  0.33008829103E+02 -0.30033765376E+02 -0.69014105811E+02  0.82292339026E+02  0.41800000000E+01 0.  1.
         -5    1    1    2    0  502 -0.11303756469E+03 -0.16358252959E+03 -0.35610865937E+03  0.40788182688E+03  0.41800000000E+01 0.  1.
        -11    1    3    3    0    0  0.61319148934E+02  0.86501529225E+02 -0.95179986246E+02  0.14248432323E+03  0.00000000000E+00 0. -1.
         11    1    3    3    0    0  0.18709586656E+02  0.10711476575E+03 -0.14426597828E+02  0.10968932673E+03  0.00000000000E+00 0.  1.
</event>
<event>
 7    1  0.6988825E-006  0.1138747E+03  0.7561462E-02  0.1253558E+00
          2   -1    0    0  501    0  0.00000000000E+00  0.00000000000E+00  0.13746662728E+04  0.13746662728E+04  0.00000000000E+00 0. -1.
         -2   -1    0    0    0  501 -0.00000000000E+00 -0.00000000000E+00 -0.11304018655E+02  0.11304018655E+02  0.00000000000E+00 0.  1.
         23    2    1    2    0    0 -0.61175180570E+02  0.33434587641E+01  0.51410505519E+03  0.52536661538E+03  0.89176742241E+02 0.  0.
          5    1    1    2  502    0  0.34842612161E+01 -0.50124880152E+02  0.54730195710E+03  0.54961945775E+03  0.41800000000E+01 0.  1.
         -5    1    1    2    0  502  0.57690919354E+02  0.46781421387E+02  0.30195524188E+03  0.31098421835E+03  0.41800000000E+01 0.  1.
        -11    1    3    3    0    0 -0.79321998628E+02  0.15861114272E+02  0.45794527750E+03  0.46503487138E+03  0.00000000000E+00 0. -1.
         11    1    3    3    0    0  0.18146818058E+02 -0.12517655508E+02  0.56159777689E+02  0.60331744008E+02  0.00000000000E+00 0.  1.
</event>
<event>
 7    1  0.6988825E-006  0.1108382E+03  0.7561462E-02  0.1259026E+00
         -1   -1    0    0    0  501 -0.00000000000E+00  0.00000000000E+00  0.57217264935E+02  0.57217264935E+02  0.00000000000E+00 0.  1.
          1   -1    0    0  501    0  0.00000000000E+00 -0.00000000000E+00 -0.30282472638E+03  0.30282472638E+03  0.00000000000E+00 0. -1.
         23    2    1    2    0    0 -0.37178701268E+02 -0.66676600034E+02 -0.10515739928E+03  0.15705816561E+03  0.88210906029E+02 0.  0.
          5    1    1    2  502    0 -0.39758881683E+02  0.50125205888E+02 -0.85674909325E+02  0.10700919318E+03  0.41800000000E+01 0.  1.
         -5    1    1    2    0  502  0.76937582952E+02  0.16551394146E+02 -0.54775152845E+02  0.95974632522E+02  0.41800000000E+01 0.  1.
        -11    1    3    3    0    0 -0.33095639862E+02 -0.40704302435E+02 -0.11699977171E+03  0.12822288483E+03  0.00000000000E+00 0. -1.
         11    1    3    3    0    0 -0.40830614066E+01 -0.25972297600E+02  0.11842372429E+02  0.28835280782E+02  0.00000000000E+00 0.  1.
</event>
<event>
 7    1  0.6988825E-006  0.2245508E+03  0.7561462E-02  0.1130535E+00
          2   -1    0    0  501    0  0.00000000000E+00  0.00000000000E+00  0.18600766647E+03  0.18600766647E+03  0.00000000000E+00 0. -1.
         -2   -1    0    0    0  501 -0.00000000000E+00 -0.00000000000E+00 -0.29713256054E+03  0.29713256054E+03  0.00000000000E+00 0.  1.
         23    2    1    2    0    0 -0.42460552187E+02  0.20340460559E+03 -0.54678312867E+02  0.23412174659E+03  0.92988936249E+02 0.  0.
          5    1    1    2  502    0  0.64282318721E+02 -0.18251754010E+03 -0.10453120066E+02  0.19383397294E+03  0.41800000000E+01 0.  1.
         -5    1    1    2    0  502 -0.21821766534E+02 -0.20887065483E+02 -0.45993461136E+02  0.55184507486E+02  0.41800000000E+01 0.  1.
        -11    1    3    3    0    0  0.14872852226E+02  0.13492909668E+03 -0.50098139414E+02  0.14469584111E+03  0.00000000000E+00 0.  1.
         11    1    3    3    0    0 -0.57333404413E+02  0.68475508910E+02 -0.45801734536E+01  0.89425905480E+02  0.00000000000E+00 0. -1.
</event>
<event>
 7    1  0.6988825E-006  0.1419209E+03  0.7561462E-02  0.1210767E+00
          1   -1    0    0  501    0  0.00000000000E+00  0.00000000000E+00  0.50159769474E+03  0.50159769474E+03  0.00000000000E+00 0. -1.
         -1   -1    0    0    0  501 -0.00000000000E+00 -0.00000000000E+00 -0.45504389184E+02  0.45504389184E+02  0.00000000000E+00 0.  1.
         23    2    1    2    0    0  0.10296769426E+03  0.52465473010E+01  0.17228761517E+03  0.22026384968E+03  0.90571898609E+02 0.  0.
          5    1    1    2  502    0 -0.87383138435E+02  0.50489393738E+02  0.14828679709E+03  0.17941972677E+03  0.41800000000E+01 0. -1.
         -5    1    1    2    0  502 -0.15584555825E+02 -0.55735941039E+02  0.13551889329E+03  0.14741850747E+03  0.41800000000E+01 0. -1.
        -11    1    3    3    0    0  0.10464096746E+02  0.27708353362E+02  0.88933051485E+02  0.93735467210E+02  0.00000000000E+00 0. -1.
         11    1    3    3    0    0  0.92503597514E+02 -0.22461806061E+02  0.83354563684E+02  0.12652838247E+03  0.00000000000E+00 0.  1.
</event>
<event>
 7    1  0.6988825E-006  0.9909593E+02  0.7561462E-02  0.1282209E+00
          1   -1    0    0  501    0  0.00000000000E+00  0.00000000000E+00  0.98335312058E+02  0.98335312058E+02  0.00000000000E+00 0. -1.
         -1   -1    0    0    0  501 -0.00000000000E+00 -0.00000000000E+00 -0.15551056695E+03  0.15551056695E+03  0.00000000000E+00 0.  1.
         23    2    1    2    0    0 -0.33041806422E+02 -0.85979335729E+01 -0.75333074147E+02  0.12290794603E+03  0.90915376608E+02 0.  0.
          5    1    1    2  502    0 -0.51892137693E+01  0.62729755348E+02  0.53304382121E+01  0.63307472838E+02  0.41800000000E+01 0.  1.
         -5    1    1    2    0  502  0.38231020191E+02 -0.54131821776E+02  0.12827381047E+02  0.67630460135E+02  0.41800000000E+01 0.  1.
        -11    1    3    3    0    0  0.17203500811E+02 -0.65850766461E+01 -0.69950242451E+02  0.72335054389E+02  0.00000000000E+00 0.  1.
         11    1    3    3    0    0 -0.50245307233E+02 -0.20128569268E+01 -0.53828316958E+01  0.50572891642E+02  0.00000000000E+00 0. -1.
</event>
<event>
 7    1  0.8850045E-006  0.2224163E+03  0.7561462E-02  0.1132094E+00
         -1   -1    0    0    0  501 -0.00000000000E+00  0.00000000000E+00  0.72221311099E+03  0.72221311099E+03  0.00000000000E+00 0.  1.
          1   -1    0    0  501    0  0.00000000000E+00 -0.00000000000E+00 -0.96804802768E+02  0.96804802768E+02  0.00000000000E+00 0. -1.
         23    2    1    2    0    0  0.19213472280E+03 -0.86931973543E+02  0.48819711967E+03  0.53804177155E+03  0.81728823285E+02 0.  0.
          5    1    1    2  502    0 -0.92551392229E+02  0.10753085084E+02  0.12352650372E+03  0.15478261712E+03  0.41800000000E+01 0. -1.
         -5    1    1    2    0  502 -0.99583330573E+02  0.76178888459E+02  0.13684684842E+02  0.12619352509E+03  0.41800000000E+01 0. -1.
        -11    1    3    3    0    0  0.10586271002E+03 -0.32298971227E+01  0.23452741915E+03  0.25733335567E+03  0.00000000000E+00 0.  1.
         11    1    3    3    0    0  0.86272012780E+02 -0.83702076420E+02  0.25366970051E+03  0.28070841588E+03  0.00000000000E+00 0. -1.
</event>
<event>
 7    1  0.6988825E-006  0.9664222E+02  0.7561462E-02  0.1287520E+00
         -2   -1    0    0    0  501 -0.00000000000E+00  0.00000000000E+00  0.57812961148E+02  0.57812961148E+02  0.00000000000E+00 0.  1.
          2   -1    0    0  501    0  0.00000000000E+00 -0.00000000000E+00 -0.33461254330E+03  0.33461254330E+03  0.00000000000E+00 0. -1.
         23    2    1    2    0    0  0.66734759040E+02  0.40039885119E+02 -0.68359744078E+02  0.13717768226E+03  0.89932983020E+02 0.  0.
          5    1    1    2  502    0 -0.11009135361E+02 -0.63455216007E+01  0.16380710937E+02  0.21148683093E+02  0.41800000000E+01 0. -1.
         -5    1    1    2    0  502 -0.55725623680E+02 -0.33694363518E+02 -0.22482054901E+03  0.23409913910E+03  0.41800000000E+01 0. -1.
        -11    1    3    3    0    0  0.46127374248E+02  0.66613720606E+02 -0.30591255134E+02  0.86608009553E+02  0.00000000000E+00 0.  1.
         11    1    3    3    0    0  0.20607384792E+02 -0.26573835487E+02 -0.37768488943E+02  0.50569672705E+02  0.00000000000E+00 0. -1.
</event>
<event>
 7    1  0.6988825E-006  0.1059254E+03  0.7561462E-02  0.1268307E+00
         -2   -1    0    0    0  501 -0.00000000000E+00  0.00000000000E+00  0.82761430146E+02  0.82761430146E+02  0.00000000000E+00 0.  1.
          2   -1    0    0  501    0  0.00000000000E+00 -0.00000000000E+00 -0.20239128660E+03  0.20239128660E+03  0.00000000000E+00 0. -1.
         23    2    1    2    0    0 -0.23754015882E+02 -0.61418263603E+01 -0.47702477868E+02  0.10612122478E+03  0.91565346357E+02 0.  0.
          5    1    1    2  502    0 -0.27742992772E+02  0.44683967229E+02 -0.96553422555E+02  0.11002893430E+03  0.41800000000E+01 0. -1.
         -5    1    1    2    0  502  0.51497008654E+02 -0.38542140869E+02  0.24626043967E+02  0.69002557667E+02  0.41800000000E+01 0.  1.
        -11    1    3    3    0    0  0.34424103605E+02  0.66553827707E+01 -0.20718414056E+02  0.40725492138E+02  0.00000000000E+00 0. -1.
         11    1    3    3    0    0 -0.58178119487E+02 -0.12797209131E+02 -0.26984063812E+02  0.65395732647E+02  0.00000000000E+00 0.  1.
</event>
<event>
 7    1  0.6988825E-006  0.6974797E+02  0.7561462E-02  0.1360952E+00
          2   -1    0    0  501    0  0.00000000000E+00  0.00000000000E+00  0.26425560069E+03  0.26425560069E+03  0.00000000000E+00 0. -1.
         -2   -1    0    0    0  501 -0.00000000000E+00 -0.00000000000E+00 -0.47061174913E+02  0.47061174913E+02  0.00000000000E+00 0.  1.
         23    2    1    2    0    0  0.18960738852E+02  0.16798919296E+02  0.93250321059E+02  0.13340704152E+03  0.91978818443E+02 0.  0.
          5    1    1    2  502    0 -0.46397843584E+02 -0.36337092914E+02  0.13058176167E+03  0.14332554934E+03  0.41800000000E+01 0.  1.
         -5    1    1    2    0  502  0.27437104731E+02  0.19538173617E+02 -0.66376569602E+01  0.34584184742E+02  0.41800000000E+01 0.  1.
        -11    1    3    3    0    0 -0.95745698002E+01  0.15109891052E+02 -0.13808509215E+02  0.22597701679E+02  0.00000000000E+00 0.  1.
         11    1    3    3    0    0  0.28535308652E+02  0.16890282448E+01  0.10705883027E+03  0.11080933984E+03  0.00000000000E+00 0. -1.
</event>
<event>
 7    1  0.6988825E-006  0.7955722E+02  0.7561462E-02  0.1330313E+00
          2   -1    0    0  501    0  0.00000000000E+00  0.00000000000E+00  0.94077259565E+03  0.94077259565E+03  0.00000000000E+00 0. -1.
         -2   -1    0    0    0  501 -0.00000000000E+00 -0.00000000000E+00 -0.20419616004E+02  0.20419616004E+02  0.00000000000E+00 0.  1.
         23    2    1    2    0    0  0.32565083087E+02  0.32016889617E+02  0.15728552905E+03  0.18816109804E+03  0.92629883448E+02 0.  0.
          5    1    1    2  502    0 -0.67806827586E+01 -0.33374126029E+02  0.73029421491E+03  0.73109980350E+03  0.41800000000E+01 0. -1.
         -5    1    1    2    0  502 -0.25784400328E+02  0.13572364127E+01  0.32773235683E+02  0.41931310117E+02  0.41800000000E+01 0.  1.
        -11    1    3    3    0    0 -0.12947830125E+02 -0.23516683758E+02  0.20870392314E+02  0.34003735020E+02  0.00000000000E+00 0. -1.
         11    1    3    3    0    0  0.45512913212E+02  0.55533573375E+02  0.13641513674E+03  0.15415736302E+03  0.00000000000E+00 0.  1.
</event>
<event>
 7    1  0.6988825E-006  0.1172100E+03  0.7561462E-02  0.1247772E+00
         -1   -1    0    0    0  501 -0.00000000000E+00  0.00000000000E+00  0.18990278038E+03  0.18990278038E+03  0.00000000000E+00 0.  1.
          1   -1    0    0  501    0  0.00000000000E+00 -0.00000000000E+00 -0.73863566721E+02  0.73863566721E+02  0.00000000000E+00 0. -1.
         23    2    1    2    0    0 -0.16817630035E+02 -0.41021012905E+02  0.68425601446E+02  0.12276969932E+03  0.91786600106E+02 0.  0.
          5    1    1    2  502    0  0.71328196384E+02  0.23314462529E+02  0.29541533177E+02  0.80755497304E+02  0.41800000000E+01 0.  1.
         -5    1    1    2    0  502 -0.54510566350E+02  0.17706550376E+02  0.18072079041E+02  0.60241150478E+02  0.41800000000E+01 0.  1.
        -11    1    3    3    0    0  0.34472395139E+02 -0.36657376810E+02  0.37014011831E+02  0.62467162358E+02  0.00000000000E+00 0.  1.
         11    1    3    3    0    0 -0.51290025174E+02 -0.43636360945E+01  0.31411589615E+02  0.60302536965E+02  0.00000000000E+00 0. -1.
</event>
<event>
 7    1  0.6988825E-006  0.9224798E+02  0.7561462E-02  0.1297497E+00
         -2   -1    0    0    0  501 -0.00000000000E+00  0.00000000000E+00  0.15529767063E+02  0.15529767063E+02  0.00000000000E+00 0.  1.
          2   -1    0    0  501    0  0.00000000000E+00 -0.00000000000E+00 -0.11028184168E+04  0.11028184168E+04  0.00000000000E+00 0. -1.
         23    2    1    2    0    0 -0.33753421360E+02  0.61001703992E+02 -0.50761962108E+03  0.52125269829E+03  0.95740244540E+02 0.  0.
          5    1    1    2  502    0  0.35326574704E+02 -0.13691862727E+02 -0.39688522295E+02  0.55028040009E+02  0.41800000000E+01 0. -1.
         -5    1    1    2    0  502 -0.15731533441E+01 -0.47309841266E+02 -0.53998050638E+03  0.54206744558E+03  0.41800000000E+01 0. -1.
        -11    1    3    3    0    0  0.17799146941E+02 -0.14733144614E+01 -0.19438809892E+02  0.26397871455E+02  0.00000000000E+00 0.  1.
         11    1    3    3    0    0 -0.51552568300E+02  0.62475018454E+02 -0.48818081119E+03  0.49485482684E+03  0.00000000000E+00 0. -1.
</event>
<event>
 7    1  0.6988825E-006  0.1337578E+03  0.7561462E-02  0.1221984E+00
          1   -1    0    0  501    0  0.00000000000E+00  0.00000000000E+00  0.24070181460E+02  0.24070181460E+02  0.00000000000E+00 0. -1.
         -1   -1    0    0    0  501 -0.00000000000E+00 -0.00000000000E+00 -0.11026899512E+04  0.11026899512E+04  0.00000000000E+00 0.  1.
         23    2    1    2    0    0  0.40821506619E+02 -0.11023878841E+03 -0.60065160244E+03  0.61890377437E+03  0.91872458038E+02 0.  0.
          5    1    1    2  502    0 -0.28598624076E+02  0.90254331197E+02 -0.47442530001E+03  0.48379806044E+03  0.41800000000E+01 0. -1.
         -5    1    1    2    0  502 -0.12222882544E+02  0.19984457218E+02 -0.35428673265E+01  0.24058297880E+02  0.41800000000E+01 0. -1.
        -11    1    3    3    0    0 -0.30716388736E+01 -0.10465907242E+03 -0.40559201159E+03  0.41888881134E+03  0.00000000000E+00 0. -1.
         11    1    3    3    0    0  0.43893145493E+02 -0.55797159897E+01 -0.19505959085E+03  0.20001496303E+03  0.00000000000E+00 0.  1.
</event>
<event>
 7    1  0.6988825E-006  0.5362055E+02  0.7561462E-02  0.1426737E+00
          1   -1    0    0  501    0  0.00000000000E+00  0.00000000000E+00  0.14180704336E+03  0.14180704336E+03  0.00000000000E+00 0. -1.
         -1   -1    0    0    0  501 -0.00000000000E+00 -0.00000000000E+00 -0.93370192123E+02  0.93370192123E+02  0.00000000000E+00 0.  1.
         23    2    1    2    0    0 -0.27134095194E+02 -0.19469036028E+02  0.13346643611E+02  0.10103675106E+03  0.94419223058E+02 0.  0.
          5    1    1    2  502    0 -0.11944508793E+02 -0.14337875630E+02 -0.39161848390E+02  0.43581747752E+02  0.41800000000E+01 0.  1.
         -5    1    1    2    0  502  0.39078603987E+02  0.33806911658E+02  0.74252056018E+02  0.90558736676E+02  0.41800000000E+01 0.  1.
        -11    1    3    3    0    0 -0.74496064012E+01 -0.13979367430E+02  0.53600775722E+02  0.55892419051E+02  0.00000000000E+00 0. -1.
         11    1    3    3    0    0 -0.19684488793E+02 -0.54896685981E+01 -0.40254132111E+02  0.45144332007E+02  0.00000000000E+00 0.  1.
</event>
<event>
 7    1  0.6988825E-006  0.1062949E+03  0.7561462E-02  0.1267589E+00
          2   -1    0    0  501    0  0.00000000000E+00  0.00000000000E+00  0.26999696510E+03  0.26999696510E+03  0.00000000000E+00 0. -1.
         -2   -1    0    0    0  501 -0.00000000000E+00 -0.00000000000E+00 -0.44792038012E+02  0.44792038012E+02  0.00000000000E+00 0.  1.
         23    2    1    2    0    0 -0.20341002091E+01 -0.14608759712E+01  0.65524805303E+02  0.11193069263E+03  0.90712226957E+02 0.  0.
          5    1    1    2  502    0  0.61877057229E+02 -0.12735875250E+02  0.75824307900E+02  0.98781429420E+02  0.41800000000E+01 0.  1.
         -5    1    1    2    0  502 -0.59842957020E+02  0.14196751221E+02  0.83855813884E+02  0.10407688107E+03  0.41800000000E+01 0.  1.
        -11    1    3    3    0    0 -0.39362903703E+02  0.20439021337E+02  0.47673538344E+02  0.65114960181E+02  0.00000000000E+00 0.  1.
         11    1    3    3    0    0  0.37328803494E+02 -0.21899897308E+02  0.17851266959E+02  0.46815732446E+02  0.00000000000E+00 0. -1.
</event>
<event>
 7    1  0.6988825E-006  0.1283407E+03  0.7561462E-02  0.1229939E+00
          2   -1    0    0  501    0  0.00000000000E+00  0.00000000000E+00  0.35002132844E+03  0.35002132844E+03  0.00000000000E+00 0. -1.
         -2   -1    0    0    0  501 -0.00000000000E+00 -0.00000000000E+00 -0.94489697069E+02  0.94489697069E+02  0.00000000000E+00 0.  1.
         23    2    1    2    0    0 -0.64226456876E+02  0.62975310950E+02 -0.18150825509E+02  0.13044080566E+03  0.92706115018E+02 0.  0.
          5    1    1    2  502    0  0.83282938076E+02  0.35289004220E+01  0.12901951545E+03  0.15366199491E+03  0.41800000000E+01 0.  1.
         -5    1    1    2    0  502 -0.19056481200E+02 -0.66504211372E+02  0.14466294143E+03  0.16040822494E+03  0.41800000000E+01 0.  1.
        -11    1    3    3    0    0 -0.48513280283E+02  0.71215513688E+02 -0.45802597588E+02  0.97586196255E+02  0.00000000000E+00 0.  1.
         11    1    3    3    0    0 -0.15713176593E+02 -0.82402027381E+01  0.27651772080E+02  0.32854609402E+02  0.00000000000E+00 0. -1.
</event>
<event>
 7    1  0.6988825E-006  0.1982813E+03  0.7561462E-02  0.1151197E+00
          2   -1    0    0  501    0  0.00000000000E+00  0.00000000000E+00  0.20109549792E+04  0.20109549792E+04  0.00000000000E+00 0. -1.
         -2   -1    0    0    0  501 -0.00000000000E+00 -0.00000000000E+00 -0.24340589397E+02  0.24340589397E+02  0.00000000000E+00 0.  1.
         23    2    1    2    0    0  0.12350107244E+03 -0.13266230612E+03  0.65969619774E+03  0.69022642327E+03  0.91442001878E+02 0.  0.
          5    1    1    2  502    0 -0.86765580640E+02  0.13428771976E+03  0.74491970762E+03  0.76189520333E+03  0.41800000000E+01 0. -1.
         -5    1    1    2    0  502 -0.36735491795E+02 -0.16254136311E+01  0.58199848441E+03  0.58317394197E+03  0.41800000000E+01 0. -1.
        -11    1    3    3    0    0  0.73740087662E+02 -0.13040248035E+03  0.54426944662E+03  0.56451008665E+03  0.00000000000E+00 0. -1.
         11    1    3    3    0    0  0.49760984773E+02 -0.22598257787E+01  0.11542675112E+03  0.12571633662E+03  0.00000000000E+00 0.  1.
</event>
<event>
 7    1  0.6988825E-006  0.1270353E+03  0.7561462E-02  0.1231922E+00
         -3   -1    0    0    0  501 -0.00000000000E+00  0.00000000000E+00  0.38423112366E+02  0.38423112366E+02  0.00000000000E+00 0.  1.
          3   -1    0    0  501    0  0.00000000000E+00 -0.00000000000E+00 -0.42624297563E+03  0.42624297563E+03  0.00000000000E+00 0. -1.
         23    2    1    2    0    0  0.31042268482E+02 -0.63609605913E+02 -0.16001452097E+03  0.20044593898E+03  0.97796334986E+02 0.  0.
          5    1    1    2  502    0 -0.66872025257E+02  0.69871721226E+02 -0.17447566717E+03  0.19953234330E+03  0.41800000000E+01 0. -1.
         -5    1    1    2    0  502  0.35829756775E+02 -0.62621153137E+01 -0.53329675123E+02  0.64687805709E+02  0.41800000000E+01 0.  1.
        -11    1    3    3    0    0  0.29905719252E+02 -0.89691439509E+02 -0.12815220454E+03  0.15925418015E+03  0.00000000000E+00 0.  1.
         11    1    3    3    0    0  0.11365492299E+01  0.26081833596E+02 -0.31862316424E+02  0.41191758833E+02  0.00000000000E+00 0. -1.
</event>
<event>
 7    1  0.6988825E-006  0.1012190E+03  0.7561462E-02  0.1277753E+00
          2   -1    0    0  501    0  0.00000000000E+00  0.00000000000E+00  0.20640894405E+04  0.20640894405E+04  0.00000000000E+00 0.  1.
         -2   -1    0    0    0  501 -0.00000000000E+00 -0.00000000000E+00 -0.90796711844E+01  0.90796711844E+01  0.00000000000E+00 0. -1.
         23    2    1    2    0    0 -0.49368607621E+02  0.34417003598E+02  0.43037051566E+03  0.44261032554E+03  0.84043619430E+02 0.  0.
          5    1    1    2  502    0  0.26148637463E+02 -0.65647920554E+02  0.14437025955E+04  0.14454369780E+04  0.41800000000E+01 0.  1.
         -5    1    1    2    0  502  0.23219970158E+02  0.31230916956E+02  0.18093665819E+03  0.18512180819E+03  0.41800000000E+01 0.  1.
        -11    1    3    3    0    0  0.10252088885E+02 -0.12840648050E+02  0.23417569720E+02  0.28607169389E+02  0.00000000000E+00 0. -1.
         11    1    3    3    0    0 -0.59620696506E+02  0.47257651648E+02  0.40695294594E+03  0.41400315615E+03  0.00000000000E+00 0.  1.
</event>
<event>
 7    1  0.6988825E-006  0.8566190E+02  0.7561462E-02  0.1313711E+00
          1   -1    0    0  501    0  0.00000000000E+00  0.00000000000E+00  0.22856050945E+03  0.22856050945E+03  0.00000000000E+00 0. -1.
         -1   -1    0    0    0  501 -0.00000000000E+00 -0.00000000000E+00 -0.94422224155E+02  0.94422224155E+02  0.00000000000E+00 0.  1.
         23    2    1    2    0    0 -0.25203574260E+02  0.76143644575E+02 -0.98511486567E+01  0.11606380888E+03  0.83310790648E+02 0.  0.
          5    1    1    2  502    0  0.34674582870E+02 -0.61821058735E+02  0.99251055589E+01  0.71694840265E+02  0.41800000000E+01 0. -1.
         -5    1    1    2    0  502 -0.94710086100E+01 -0.14322585840E+02  0.13406432839E+03  0.13522408445E+03  0.41800000000E+01 0. -1.
        -11    1    3    3    0    0 -0.28232848531E+02  0.61184749615E+02  0.29722887001E+02  0.73648607137E+02  0.00000000000E+00 0. -1.
         11    1    3    3    0    0  0.30292742713E+01  0.14958894960E+02 -0.39574035657E+02  0.42415201747E+02  0.00000000000E+00 0.  1.
</event>
<event>
 7    1  0.6988825E-006  0.1570385E+03  0.7561462E-02  0.1192081E+00
         -1   -1    0    0    0  501 -0.00000000000E+00  0.00000000000E+00  0.19993556930E+03  0.19993556930E+03  0.00000000000E+00 0.  1.
          1   -1    0    0  501    0  0.00000000000E+00 -0.00000000000E+00 -0.12349832227E+03  0.12349832227E+03  0.00000000000E+00 0. -1.
         23    2    1    2    0    0  0.99152138400E+02 -0.53839174501E+02  0.40895036325E+02  0.15127043673E+03  0.92089835341E+02 0.  0.
          5    1    1    2  502    0 -0.37533691699E+02 -0.40701291648E+02  0.12382618904E+02  0.56887387049E+02  0.41800000000E+01 0. -1.
         -5    1    1    2    0  502 -0.61618446701E+02  0.94540466148E+02  0.23159591805E+02  0.11527606779E+03  0.41800000000E+01 0. -1.
        -11    1    3    3    0    0 -0.76711124096E+01 -0.36633448126E+02  0.97495511180E+01  0.38676985847E+02  0.00000000000E+00 0.  1.
         11    1    3    3    0    0  0.10682325081E+03 -0.17205726374E+02  0.31145485207E+02  0.11259345089E+03  0.00000000000E+00 0. -1.
</event>
<event>
 7    1  0.6988825E-006  0.1419546E+03  0.7561462E-02  0.1210723E+00
          2   -1    0    0  501    0  0.00000000000E+00  0.00000000000E+00  0.23105059514E+03  0.23105059514E+03  0.00000000000E+00 0. -1.
         -2   -1    0    0    0  501 -0.00000000000E+00 -0.00000000000E+00 -0.10597409209E+03  0.10597409209E+03  0.00000000000E+00 0.  1.
         23    2    1    2    0    0  0.10188618838E+03 -0.37390698599E+02  0.28663130232E+02  0.14539236896E+03  0.92404037750E+02 0.  0.
          5    1    1    2  502    0 -0.77507168539E+02  0.82567420244E+02  0.74754486366E+02  0.13575877759E+03  0.41800000000E+01 0. -1.
         -5    1    1    2    0  502 -0.24379019841E+02 -0.45176721645E+02  0.21658886452E+02  0.55873540691E+02  0.41800000000E+01 0. -1.
        -11    1    3    3    0    0  0.48881944318E+02  0.77091166595E+01  0.52196789873E+02  0.71926211029E+02  0.00000000000E+00 0. -1.
         11    1    3    3    0    0  0.53004244062E+02 -0.45099815259E+02 -0.23533659641E+02  0.73466157931E+02  0.00000000000E+00 0.  1.
</event>
<event>
 7    1  0.6988825E-006  0.2042208E+03  0.7561462E-02  0.1146226E+00
         -2   -1    0    0    0  501 -0.00000000000E+00  0.00000000000E+00  0.65955814687E+02  0.65955814687E+02  0.00000000000E+00 0.  1.
          2   -1    0    0  501    0  0.00000000000E+00 -0.00000000000E+00 -0.76679205025E+03  0.76679205025E+03  0.00000000000E+00 0. -1.
         23    2    1    2    0    0 -0.15256421384E+03 -0.11596638932E+03 -0.25934472680E+03  0.33546835960E+03  0.92494811615E+02 0.  0.
          5    1    1    2  502    0  0.14004764382E+03  0.82055370508E+02 -0.42917609863E+03  0.45886383864E+03  0.41800000000E+01 0. -1.
         -5    1    1    2    0  502  0.12516570022E+02  0.33911018809E+02 -0.12315410136E+02  0.38415666708E+02  0.41800000000E+01 0. -1.
        -11    1    3    3    0    0 -0.14900764650E+03 -0.71852733235E+02 -0.17896377557E+03  0.24370910315E+03  0.00000000000E+00 0.  1.
         11    1    3    3    0    0 -0.35565673401E+01 -0.44113656082E+02 -0.80380951227E+02  0.91759256450E+02  0.00000000000E+00 0. -1.
</event>
<event>
 7    1  0.6988825E-006  0.8285950E+02  0.7561462E-02  0.1321127E+00
         -1   -1    0    0    0  501 -0.00000000000E+00  0.00000000000E+00  0.13252785906E+03  0.13252785906E+03  0.00000000000E+00 0.  1.
          1   -1    0    0  501    0  0.00000000000E+00 -0.00000000000E+00 -0.14539408862E+03  0.14539408862E+03  0.00000000000E+00 0. -1.
         23    2    1    2    0    0  0.47317316823E+02  0.37377511059E+02  0.55394218658E+02  0.12318738430E+03  0.92035891828E+02 0.  0.
          5    1    1    2  502    0 -0.27609316807E+02  0.12149858899E+02 -0.91499877390E+02  0.96434399506E+02  0.41800000000E+01 0.  1.
         -5    1    1    2    0  502 -0.19708000016E+02 -0.49527369958E+02  0.23239429180E+02  0.58300163878E+02  0.41800000000E+01 0.  1.
        -11    1    3    3    0    0  0.96513676173E+01  0.42682886457E+02  0.69907870045E+02  0.82474771824E+02  0.00000000000E+00 0.  1.
         11    1    3    3    0    0  0.37665949206E+02 -0.53053753980E+01 -0.14513651387E+02  0.40712612472E+02  0.00000000000E+00 0. -1.
</event>
<event>
 7    1  0.6988825E-006  0.1191544E+03  0.7561462E-02  0.1244499E+00
          1   -1    0    0  501    0  0.00000000000E+00  0.00000000000E+00  0.35525625913E+03  0.35525625913E+03  0.00000000000E+00 0. -1.
         -1   -1    0    0    0  501 -0.00000000000E+00 -0.00000000000E+00 -0.47740512187E+02  0.47740512187E+02  0.00000000000E+00 0.  1.
         23    2    1    2    0    0  0.45737358321E+02 -0.45109621688E+02  0.89003531759E+02  0.14315283877E+03  0.91892995745E+02 0.  0.
          5    1    1    2  502    0 -0.85855072899E+02  0.10432712530E+02  0.14875043613E+03  0.17211652937E+03  0.41800000000E+01 0.  1.
         -5    1    1    2    0  502  0.40117714578E+02  0.34676909158E+02  0.69761779045E+02  0.87727403172E+02  0.41800000000E+01 0.  1.
        -11    1    3    3    0    0  0.51489235108E+02 -0.62054698803E+02  0.94695133973E+02  0.12437481809E+03  0.00000000000E+00 0. -1.
         11    1    3    3    0    0 -0.57518767873E+01  0.16945077115E+02 -0.56916022144E+01  0.18778020683E+02  0.00000000000E+00 0.  1.
</event>
<event>
 7    1  0.6988825E-006  0.1046371E+03  0.7561462E-02  0.1270836E+00
         -1   -1    0    0    0  501 -0.00000000000E+00  0.00000000000E+00  0.14058954749E+03  0.14058954749E+03  0.00000000000E+00 0.  1.
          1   -1    0    0  501    0  0.00000000000E+00 -0.00000000000E+00 -0.13399866039E+03  0.13399866039E+03  0.00000000000E+00 0. -1.
         23    2    1    2    0    0  0.79170379552E+01 -0.82737968113E+02 -0.93782981073E+01  0.12355472452E+03  0.90937157527E+02 0.  0.
          5    1    1    2  502    0 -0.24530746444E+02  0.45853734942E+02 -0.50823204124E+02  0.72834009959E+02  0.41800000000E+01 0. -1.
         -5    1    1    2    0  502  0.16613708489E+02  0.36884233171E+02  0.66792389338E+02  0.78199473399E+02  0.41800000000E+01 0. -1.
        -11    1    3    3    0    0 -0.34332625152E+02 -0.17051343402E+02 -0.22365585645E+02  0.44381267252E+02  0.00000000000E+00 0. -1.
         11    1    3    3    0    0  0.42249663107E+02 -0.65686624711E+02  0.12987287537E+02  0.79173457271E+02  0.00000000000E+00 0.  1.
</event>
<event>
 7    1  0.6988825E-006  0.1244213E+03  0.7561462E-02  0.1235977E+00
         -2   -1    0    0    0  501 -0.00000000000E+00  0.00000000000E+00  0.86542584297E+01  0.86542584297E+01  0.00000000000E+00 0.  1.
          2   -1    0    0  501    0  0.00000000000E+00 -0.00000000000E+00 -0.19810012492E+04  0.19810012492E+04  0.00000000000E+00 0. -1.
         23    2    1    2    0    0  0.35005609110E+02  0.49677019297E+02 -0.59382317429E+03  0.60413438993E+03  0.93054821747E+02 0.  0.
          5    1    1    2  502    0  0.38180110153E+02 -0.52577246544E+02 -0.71256325116E+03  0.71553193288E+03  0.41800000000E+01 0. -1.
         -5    1    1    2    0  502 -0.73185719263E+02  0.29002272467E+01 -0.66596056527E+03  0.66998918478E+03  0.41800000000E+01 0. -1.
        -11    1    3    3    0    0  0.45238723475E+01  0.72279437006E+02 -0.42217782544E+03  0.42834436932E+03  0.00000000000E+00 0. -1.
         11    1    3    3    0    0  0.30481736763E+02 -0.22602417708E+02 -0.17164534885E+03  0.17579002061E+03  0.00000000000E+00 0.  1.
</event>
<event>
 7    1  0.6988825E-006  0.1175685E+03  0.7561462E-02  0.1247163E+00
         -1   -1    0    0    0  501 -0.00000000000E+00  0.00000000000E+00  0.19433847750E+02  0.19433847750E+02  0.00000000000E+00 0.  1.
          1   -1    0    0  501    0  0.00000000000E+00 -0.00000000000E+00 -0.92141403391E+03  0.92141403391E+03  0.00000000000E+00 0. -1.
         23    2    1    2    0    0  0.32589795723E+02  0.55751911269E+02 -0.25198515222E+03  0.27578226249E+03  0.91591314916E+02 0.  0.
          5    1    1    2  502    0  0.38462455076E+02 -0.14529725188E+02 -0.39447162436E+03  0.39663056890E+03  0.41800000000E+01 0.  1.
         -5    1    1    2    0  502 -0.71052250799E+02 -0.41222186081E+02 -0.25552340958E+03  0.26843505027E+03  0.41800000000E+01 0.  1.
        -11    1    3    3    0    0  0.20269957412E+02  0.80982761837E+02 -0.19941199062E+03  0.21618099105E+03  0.00000000000E+00 0.  1.
         11    1    3    3    0    0  0.12319838311E+02 -0.25230850568E+02 -0.52573161606E+02  0.59601271443E+02  0.00000000000E+00 0. -1.
</event>
<event>
 7    1  0.6988825E-006  0.1257431E+03  0.7561462E-02  0.1233913E+00
          1   -1    0    0  501    0  0.00000000000E+00  0.00000000000E+00  0.18447294508E+03  0.18447294508E+03  0.00000000000E+00 0. -1.
         -1   -1    0    0    0  501 -0.00000000000E+00 -0.00000000000E+00 -0.13902548556E+03  0.13902548556E+03  0.00000000000E+00 0.  1.
         23    2    1    2    0    0  0.90362842272E+02  0.63452338822E+02 -0.20090527125E+02  0.14423960892E+03  0.90607907684E+02 0.  0.
          5    1    1    2  502    0 -0.60583449288E+02 -0.50202968285E+02 -0.25224231658E+02  0.82731049884E+02  0.41800000000E+01 0.  1.
         -5    1    1    2    0  502 -0.29779392985E+02 -0.13249370537E+02  0.90762218297E+02  0.96527771840E+02  0.41800000000E+01 0.  1.
        -11    1    3    3    0    0  0.14617149051E+01 -0.18717442309E+02 -0.13266006855E+02  0.22988392613E+02  0.00000000000E+00 0.  1.
         11    1    3    3    0    0  0.88901127367E+02  0.82169781131E+02 -0.68245202691E+01  0.12125121630E+03  0.00000000000E+00 0. -1.
</event>
<event>
 7    1  0.6988825E-006  0.1081313E+03  0.7561462E-02  0.1264070E+00
          1   -1    0    0  501    0  0.00000000000E+00  0.00000000000E+00  0.82124188174E+03  0.82124188174E+03  0.00000000000E+00 0. -1.
         -1   -1    0    0    0  501 -0.00000000000E+00 -0.00000000000E+00 -0.47587025627E+02  0.47587025627E+02  0.00000000000E+00 0.  1.
         23    2    1    2    0    0  0.36602319517E+02  0.88640727517E+02  0.88796113210E+02  0.15674572862E+03  0.86530719108E+02 0.  0.
          5    1    1    2  502    0 -0.17304079305E+02 -0.35807703599E+02  0.63659484208E+03  0.63784958114E+03  0.41800000000E+01 0. -1.
         -5    1    1    2    0  502 -0.19298240212E+02 -0.52833023919E+02  0.48263900826E+02  0.74233597614E+02  0.41800000000E+01 0.  1.
        -11    1    3    3    0    0  0.54977021166E+02  0.84859501239E+02  0.48174932091E+02  0.11200192806E+03  0.00000000000E+00 0.  1.
         11    1    3    3    0    0 -0.18374701649E+02  0.37812262782E+01  0.40621181119E+02  0.44743800558E+02  0.00000000000E+00 0. -1.
</event>
<event>
 7    1  0.6988825E-006  0.7173380E+02  0.7561462E-02  0.1354294E+00
          2   -1    0    0  501    0  0.00000000000E+00  0.00000000000E+00  0.56373996843E+03  0.56373996843E+03  0.00000000000E+00 0. -1.
         -2   -1    0    0    0  501 -0.00000000000E+00 -0.00000000000E+00 -0.39111176826E+02  0.39111176826E+02  0.00000000000E+00 0.  1.
         23    2    1    2    0    0  0.15841507592E+02 -0.49831631728E+02  0.73847531710E+02  0.13211251911E+03  0.96260661132E+02 0.  0.
          5    1    1    2  502    0  0.28946368414E+02  0.23471309614E+02  0.33720185853E+02  0.50431319171E+02  0.41800000000E+01 0. -1.
         -5    1    1    2    0  502 -0.44787876006E+02  0.26360322114E+02  0.41706107404E+03  0.42030730698E+03  0.41800000000E+01 0. -1.
        -11    1    3    3    0    0  0.14598475709E+02 -0.24873443076E+02 -0.19933523238E+02  0.35059221500E+02  0.00000000000E+00 0.  1.
         11    1    3    3    0    0  0.12430318827E+01 -0.24958188652E+02  0.93781054949E+02  0.97053297607E+02  0.00000000000E+00 0. -1.
</event>
<event>
 7    1  0.1549897E-005  0.2022901E+03  0.7561462E-02  0.1147821E+00
          2   -1    0    0  501    0  0.00000000000E+00  0.00000000000E+00  0.12937746526E+04  0.12937746526E+04  0.00000000000E+00 0. -1.
         -2   -1    0    0    0  501 -0.00000000000E+00 -0.00000000000E+00 -0.41218213314E+02  0.41218213314E+02  0.00000000000E+00 0.  1.
         23    2    1    2    0    0  0.98681609125E+02  0.16716362110E+03  0.39868338159E+03  0.45044266776E+03  0.79173366644E+02 0.  0.
          5    1    1    2  502    0 -0.52623948227E+02 -0.68275850238E+02  0.62550255637E+03  0.63142837446E+03  0.41800000000E+01 0.  1.
         -5    1    1    2    0  502 -0.46057660898E+02 -0.98887770861E+02  0.22837050136E+03  0.25312182372E+03  0.41800000000E+01 0.  1.
        -11    1    3    3    0    0  0.77464066566E+02  0.55117876470E+02  0.16535430415E+03  0.19073727432E+03  0.00000000000E+00 0. -1.
         11    1    3    3    0    0  0.21217542559E+02  0.11204574463E+03  0.23332907744E+03  0.25970539344E+03  0.00000000000E+00 0.  1.
</event>
<event>
 7    1  0.6988825E-006  0.1046124E+03  0.7561462E-02  0.1270885E+00
          2   -1    0    0  501    0  0.00000000000E+00  0.00000000000E+00  0.13280966925E+04  0.13280966925E+04  0.00000000000E+00 0. -1.
         -2   -1    0    0    0  501 -0.00000000000E+00 -0.00000000000E+00 -0.12444102189E+02  0.12444102189E+02  0.00000000000E+00 0.  1.
         23    2    1    2    0    0 -0.13842005986E+02  0.37397391942E+02  0.26436553735E+03  0.28108700863E+03  0.86779047174E+02 0.  0.
          5    1    1    2  502    0  0.27674542713E+01 -0.83043793881E+02  0.72979527324E+03  0.73452198317E+03  0.41800000000E+01 0.  1.
         -5    1    1    2    0  502  0.11074551715E+02  0.45646401939E+02  0.32149177973E+03  0.32493180290E+03  0.41800000000E+01 0.  1.
        -11    1    3    3    0    0 -0.22776515096E+02  0.54781580913E+02  0.24969951719E+03  0.25665081362E+03  0.00000000000E+00 0. -1.
         11    1    3    3    0    0  0.89345091097E+01 -0.17384188971E+02  0.14666020159E+02  0.24436195009E+02  0.00000000000E+00 0.  1.
</event>
<event>
 7    1  0.6988825E-006  0.1008445E+03  0.7561462E-02  0.1278530E+00
          2   -1    0    0  501    0  0.00000000000E+00  0.00000000000E+00  0.54789517078E+02  0.54789517078E+02  0.00000000000E+00 0. -1.
         -2   -1    0    0    0  501 -0.00000000000E+00 -0.00000000000E+00 -0.31894694757E+03  0.31894694757E+03  0.00000000000E+00 0.  1.
         23    2    1    2    0    0  0.64453652322E+02 -0.21024994138E+02 -0.16479455286E+03  0.20019501940E+03  0.91238574430E+02 0.  0.
          5    1    1    2  502    0 -0.67744451056E+02  0.15932994431E+01  0.42147098433E+01  0.68022683210E+02  0.41800000000E+01 0.  1.
         -5    1    1    2    0  502  0.32907987344E+01  0.19431694695E+02 -0.10357758748E+03  0.10551876204E+03  0.41800000000E+01 0.  1.
        -11    1    3    3    0    0  0.87231954481E+02 -0.24502840441E+02 -0.12987661724E+03  0.15835952380E+03  0.00000000000E+00 0.  1.
         11    1    3    3    0    0 -0.22778302159E+02  0.34778463030E+01 -0.34917935625E+02  0.41835495605E+02  0.00000000000E+00 0. -1.
</event>
<event>
 7    1  0.6988825E-006  0.1118468E+03  0.7561462E-02  0.1257188E+00
         -2   -1    0    0    0  501 -0.00000000000E+00  0.00000000000E+00  0.10131746758E+03  0.10131746758E+03  0.00000000000E+00 0.  1.
          2   -1    0    0  501    0  0.00000000000E+00 -0.00000000000E+00 -0.19103432644E+03  0.19103432644E+03  0.00000000000E+00 0. -1.
         23    2    1    2    0    0 -0.53805923196E+02  0.18561103916E+02  0.27258862578E+02  0.11187868318E+03  0.92380745887E+02 0.  0.
          5    1    1    2  502    0  0.83030021345E+02 -0.20902516524E+02 -0.12331974563E+03  0.15018698913E+03  0.41800000000E+01 0. -1.
         -5    1    1    2    0  502 -0.29224098149E+02  0.23414126086E+01  0.63440241925E+01  0.30286121716E+02  0.41800000000E+01 0. -1.
        -11    1    3    3    0    0 -0.72473103518E+02 -0.11092103407E+02  0.15675239417E+02  0.74973986304E+02  0.00000000000E+00 0.  1.
         11    1    3    3    0    0  0.18667180322E+02  0.29653207323E+02  0.11583623160E+02  0.36904696872E+02  0.00000000000E+00 0. -1.
</event>
<event>
 7    1  0.6988825E-006  0.1715388E+03  0.7561462E-02  0.1176253E+00
          2   -1    0    0  501    0  0.00000000000E+00  0.00000000000E+00  0.15314875347E+04  0.15314875347E+04  0.00000000000E+00 0. -1.
         -2   -1    0    0    0  501 -0.00000000000E+00 -0.00000000000E+00 -0.24580426017E+02  0.24580426017E+02  0.00000000000E+00 0.  1.
         23    2    1    2    0    0 -0.11392001351E+03 -0.96472827968E+02  0.48410305567E+03  0.51488541397E+03  0.92013287052E+02 0.  0.
          5    1    1    2  502    0  0.12529909890E+03  0.10122275732E+03  0.70778766591E+03  0.72589721256E+03  0.41800000000E+01 0.  1.
         -5    1    1    2    0  502 -0.11379085383E+02 -0.47499293560E+01  0.31501638714E+03  0.31528533423E+03  0.41800000000E+01 0.  1.
        -11    1    3    3    0    0 -0.82276247514E+02 -0.17872275124E+02  0.17224304507E+03  0.19171975824E+03  0.00000000000E+00 0.  1.
         11    1    3    3    0    0 -0.31643765998E+02 -0.78600552844E+02  0.31186001060E+03  0.32316565573E+03  0.00000000000E+00 0. -1.
</event>
<event>
 7    1  0.6988825E-006  0.1057946E+03  0.7561462E-02  0.1268562E+00
         -2   -1    0    0    0  501 -0.00000000000E+00  0.00000000000E+00  0.27600683194E+03  0.27600683194E+03  0.00000000000E+00 0.  1.
          2   -1    0    0  501    0  0.00000000000E+00 -0.00000000000E+00 -0.43927504184E+02  0.43927504184E+02  0.00000000000E+00 0. -1.
         23    2    1    2    0    0  0.34757833631E+02 -0.15293426573E+01  0.78777784007E+02  0.11904070418E+03  0.82184573430E+02 0.  0.
          5    1    1    2  502    0 -0.40533762774E+02 -0.53623306483E+02  0.51096793931E+02  0.84538746577E+02  0.41800000000E+01 0.  1.
         -5    1    1    2    0  502  0.57759291430E+01  0.55152649140E+02  0.10220474982E+03  0.11635488537E+03  0.41800000000E+01 0.  1.
        -11    1    3    3    0    0  0.53068733638E+02  0.23149706635E+02  0.57952310084E+02  0.81918677060E+02  0.00000000000E+00 0.  1.
         11    1    3    3    0    0 -0.18310900007E+02 -0.24679049292E+02  0.20825473923E+02  0.37122027115E+02  0.00000000000E+00 0. -1.
</event>
<event>
 7    1  0.6988825E-006  0.1134823E+03  0.7561462E-02  0.1254254E+00
         -2   -1    0    0    0  501 -0.00000000000E+00  0.00000000000E+00  0.34673348264E+02  0.34673348264E+02  0.00000000000E+00 0.  1.
          2   -1    0    0  501    0  0.00000000000E+00 -0.00000000000E+00 -0.47627034337E+03  0.47627034337E+03  0.00000000000E+00 0. -1.
         23    2    1    2    0    0 -0.12371216496E+02 -0.49632588943E+02 -0.10645236234E+03  0.14957603292E+03  0.91784766120E+02 0.  0.
          5    1    1    2  502    0 -0.14919167566E+02  0.86683942530E+02 -0.23872849917E+03  0.25445128447E+03  0.41800000000E+01 0. -1.
         -5    1    1    2    0  502  0.27290384062E+02 -0.37051353586E+02 -0.96416133587E+02  0.10691637424E+03  0.41800000000E+01 0. -1.
        -11    1    3    3    0    0 -0.25854862295E+02 -0.66357818195E+02 -0.10646996711E+03  0.12809249719E+03  0.00000000000E+00 0. -1.
         11    1    3    3    0    0  0.13483645799E+02  0.16725229252E+02  0.17604762202E-01  0.21483535730E+02  0.00000000000E+00 0.  1.
</event>
<event>
 7    1  0.6988825E-006  0.5539259E+02  0.7561462E-02  0.1418251E+00
         -2   -1    0    0    0  501 -0.00000000000E+00  0.00000000000E+00  0.84965200892E+02  0.84965200892E+02  0.00000000000E+00 0.  1.
          2   -1    0    0  501    0  0.00000000000E+00 -0.00000000000E+00 -0.14520199675E+03  0.14520199675E+03  0.00000000000E+00 0. -1.
         23    2    1    2    0    0 -0.89026688841E+01  0.42221210463E+01 -0.14897934403E+02  0.96751786760E+02  0.95088779424E+02 0.  0.
          5    1    1    2  502    0 -0.89194243702E+01  0.13798007277E+00  0.42477808592E+02  0.43605180798E+02  0.41800000000E+01 0. -1.
         -5    1    1    2    0  502  0.17822093254E+02 -0.43601011191E+01 -0.87816670046E+02  0.89810230083E+02  0.41800000000E+01 0. -1.
        -11    1    3    3    0    0  0.35316148166E+02  0.11835595436E+02  0.17751770147E+02  0.41260598444E+02  0.00000000000E+00 0.  1.
         11    1    3    3    0    0 -0.44218817050E+02 -0.76134743892E+01 -0.32649704550E+02  0.55491188316E+02  0.00000000000E+00 0. -1.
</event>
<event>
 7    1  0.6988825E-006  0.1087286E+03  0.7561462E-02  0.1262943E+00
          2   -1    0    0  501    0  0.00000000000E+00  0.00000000000E+00  0.40321460038E+03  0.40321460038E+03  0.00000000000E+00 0. -1.
         -2   -1    0    0    0  501 -0.00000000000E+00 -0.00000000000E+00 -0.50384486405E+02  0.50384486405E+02  0.00000000000E+00 0.  1.
         23    2    1    2    0    0 -0.89701386847E+02 -0.47351168199E+00  0.15032685740E+03  0.19923600353E+03  0.95132844130E+02 0.  0.
          5    1    1    2  502    0  0.38073681190E+02  0.24139201975E+02  0.19096556294E+03  0.19625907597E+03  0.41800000000E+01 0. -1.
         -5    1    1    2    0  502  0.51627705656E+02 -0.23665690293E+02  0.11537693641E+02  0.58104007288E+02  0.41800000000E+01 0. -1.
        -11    1    3    3    0    0 -0.45565957968E+02 -0.36405353579E+02  0.12294837264E+03  0.13608052260E+03  0.00000000000E+00 0. -1.
         11    1    3    3    0    0 -0.44135428879E+02  0.35931841897E+02  0.27378484756E+02  0.63155480934E+02  0.00000000000E+00 0.  1.
</event>
<event>
 7    1  0.6988825E-006  0.2348306E+03  0.7561462E-02  0.1123285E+00
         -2   -1    0    0    0  501 -0.00000000000E+00  0.00000000000E+00  0.48382550776E+03  0.48382550776E+03  0.00000000000E+00 0.  1.
          2   -1    0    0  501    0  0.00000000000E+00 -0.00000000000E+00 -0.33237127988E+03  0.33237127988E+03  0.00000000000E+00 0. -1.
         23    2    1    2    0    0  0.17984141270E+03  0.11735308938E+03  0.40098604710E+03  0.46401860212E+03  0.91699355711E+02 0.  0.
          5    1    1    2  502    0  0.16071098457E+02 -0.97391086607E+01 -0.31860694659E+01  0.19512915768E+02  0.41800000000E+01 0. -1.
         -5    1    1    2    0  502 -0.19591251116E+03 -0.10761398072E+03 -0.24634574975E+03  0.33266526975E+03  0.41800000000E+01 0. -1.
        -11    1    3    3    0    0  0.14844860354E+03  0.57373724209E+02  0.22617831677E+03  0.27655987254E+03  0.00000000000E+00 0.  1.
         11    1    3    3    0    0  0.31392809159E+02  0.59979365170E+02  0.17480773033E+03  0.18745872958E+03  0.00000000000E+00 0. -1.
</event>
<event>
 7    1  0.6988825E-006  0.9245147E+02  0.7561462E-02  0.1297021E+00
          1   -1    0    0  501    0  0.00000000000E+00  0.00000000000E+00  0.91754843791E+03  0.91754843791E+03  0.00000000000E+00 0. -1.
         -1   -1    0    0    0  501 -0.00000000000E+00 -0.00000000000E+00 -0.19580539331E+02  0.19580539331E+02  0.00000000000E+00 0.  1.
         23    2    1    2    0    0  0.63808361564E+02  0.39997915525E+02  0.36177070221E+03  0.38053973430E+03  0.90890638412E+02 0.  0.
          5    1    1    2  502    0 -0.49364406290E+02 -0.39011545115E+02  0.53775550807E+03  0.54143993584E+03  0.41800000000E+01 0. -1.
         -5    1    1    2    0  502 -0.14443955274E+02 -0.98637040948E+00 -0.15583116954E+01  0.15149307109E+02  0.41800000000E+01 0.  1.
        -11    1    3    3    0    0  0.55874536484E+02  0.61955775165E+02  0.33398332307E+03  0.34424604862E+03  0.00000000000E+00 0.  1.
         11    1    3    3    0    0  0.79338250795E+01 -0.21957859641E+02  0.27787379135E+02  0.36293685671E+02  0.00000000000E+00 0. -1.
</event>
<event>
 7    1  0.6988825E-006  0.8274675E+02  0.7561462E-02  0.1321432E+00
          2   -1    0    0  501    0  0.00000000000E+00  0.00000000000E+00  0.17916446423E+04  0.17916446423E+04  0.00000000000E+00 0. -1.
         -2   -1    0    0    0  501 -0.00000000000E+00 -0.00000000000E+00 -0.10613694563E+02  0.10613694563E+02  0.00000000000E+00 0.  1.
         23    2    1    2    0    0 -0.67133254991E+01  0.22582863124E+01  0.28004882638E+03  0.29464045752E+03  0.91298879819E+02 0.  0.
          5    1    1    2  502    0  0.19701742127E+02 -0.37113826425E+02  0.13870889707E+04  0.13877315590E+04  0.41800000000E+01 0. -1.
         -5    1    1    2    0  502 -0.12988416628E+02  0.34855540113E+02  0.11389315069E+03  0.11988632039E+03  0.41800000000E+01 0.  1.
        -11    1    3    3    0    0  0.34442783459E+02 -0.19188480088E+02  0.18119300366E+03  0.18543302747E+03  0.00000000000E+00 0. -1.
         11    1    3    3    0    0 -0.41156108958E+02  0.21446766400E+02  0.98855822717E+02  0.10920743005E+03  0.00000000000E+00 0.  1.
</event>
<event>
 7    1  0.6988825E-006  0.1876886E+03  0.7561462E-02  0.1160563E+00
          1   -1    0    0  501    0  0.00000000000E+00  0.00000000000E+00  0.25417019624E+03  0.25417019624E+03  0.00000000000E+00 0. -1.
         -1   -1    0    0    0  501 -0.00000000000E+00 -0.00000000000E+00 -0.20020412793E+03  0.20020412793E+03  0.00000000000E+00 0.  1.
         23    2    1    2    0    0 -0.12383584955E+03 -0.10430567645E+03 -0.89276647459E+02  0.20461649911E+03  0.87650442965E+02 0.  0.
          5    1    1    2  502    0  0.65370794067E+02 -0.18314083530E+02  0.38385235698E+02  0.78100224661E+02  0.41800000000E+01 0. -1.
         -5    1    1    2    0  502  0.58465055483E+02  0.12261975998E+03  0.10485748007E+03  0.17165760041E+03  0.41800000000E+01 0. -1.
        -11    1    3    3    0    0 -0.20879245235E+02  0.48151481313E+01 -0.42285553671E+02  0.47404605076E+02  0.00000000000E+00 0.  1.
         11    1    3    3    0    0 -0.10295660431E+03 -0.10912082459E+03 -0.46991093788E+02  0.15721189403E+03  0.00000000000E+00 0. -1.
</event>
<event>
 7    1  0.6988825E-006  0.8226959E+02  0.7561462E-02  0.1322731E+00
          2   -1    0    0  501    0  0.00000000000E+00  0.00000000000E+00  0.31929837081E+03  0.31929837081E+03  0.00000000000E+00 0.  1.
         -2   -1    0    0    0  501 -0.00000000000E+00 -0.00000000000E+00 -0.41678685912E+02  0.41678685912E+02  0.00000000000E+00 0. -1.
         23    2    1    2    0    0 -0.29641206335E+02  0.56051353112E+01  0.76944907008E+02  0.12259963519E+03  0.90554586741E+02 0.  0.
          5    1    1    2  502    0 -0.21823201839E+02  0.15205255530E+02 -0.31304494302E+01  0.27105793622E+02  0.41800000000E+01 0.  1.
         -5    1    1    2    0  502  0.51464408174E+02 -0.20810390841E+02  0.20380522732E+03  0.21127162791E+03  0.41800000000E+01 0.  1.
        -11    1    3    3    0    0  0.18378482378E+02 -0.20299842830E+02  0.59197670921E+02  0.65224354929E+02  0.00000000000E+00 0.  1.
         11    1    3    3    0    0 -0.48019688713E+02  0.25904978141E+02  0.17747236087E+02  0.57375280263E+02  0.00000000000E+00 0. -1.
</event>
<event>
 7    1  0.6988825E-006  0.1088935E+03  0.7561462E-02  0.1262633E+00
         -2   -1    0    0    0  501 -0.00000000000E+00  0.00000000000E+00  0.44308483964E+02  0.44308483964E+02  0.00000000000E+00 0. -1.
          2   -1    0    0  501    0  0.00000000000E+00 -0.00000000000E+00 -0.32157356874E+03  0.32157356874E+03  0.00000000000E+00 0.  1.
         23    2    1    2    0    0 -0.17284934886E+02  0.22767892555E+02 -0.69119723883E+02  0.12136408709E+03  0.95574889488E+02 0.  0.
          5    1    1    2  502    0 -0.43424649706E+02  0.24586481824E+02 -0.66514257680E+02  0.83257517170E+02  0.41800000000E+01 0.  1.
         -5    1    1    2    0  502  0.60709584592E+02 -0.47354374380E+02 -0.14163110322E+03  0.16126044845E+03  0.41800000000E+01 0.  1.
        -11    1    3    3    0    0 -0.29765273102E+02 -0.26454941800E+02 -0.56352761528E+02  0.69003399628E+02  0.00000000000E+00 0.  1.
         11    1    3    3    0    0  0.12480338215E+02  0.49222834355E+02 -0.12766962355E+02  0.52360687464E+02  0.00000000000E+00 0. -1.
</event>
<event>
 7    1  0.6988825E-006  0.1672385E+03  0.7561462E-02  0.1180759E+00
         -2   -1    0    0    0  501 -0.00000000000E+00  0.00000000000E+00  0.12106673642E+02  0.12106673642E+02  0.00000000000E+00 0.  1.
          2   -1    0    0  501    0  0.00000000000E+00 -0.00000000000E+00 -0.29480280809E+04  0.29480280809E+04  0.00000000000E+00 0. -1.
         23    2    1    2    0    0 -0.10399664308E+03  0.80294268723E+02 -0.76285521267E+03  0.77950958523E+03  0.91785873681E+02 0.  0.
          5    1    1    2  502    0  0.12665188459E+03 -0.50075716175E+02 -0.19066887629E+04  0.19115511471E+04  0.41800000000E+01 0.  1.
         -5    1    1    2    0  502 -0.22655241511E+02 -0.30218552548E+02 -0.26637743169E+03  0.26907402215E+03  0.41800000000E+01 0.  1.
        -11    1    3    3    0    0 -0.99302520236E+02  0.21962955403E+02 -0.47480775393E+03  0.48557776424E+03  0.00000000000E+00 0.  1.
         11    1    3    3    0    0 -0.46941228481E+01  0.58331313320E+02 -0.28804745874E+03  0.29393182099E+03  0.00000000000E+00 0. -1.
</event>
<event>
 7    1  0.6988825E-006  0.1753065E+03  0.7561462E-02  0.1172424E+00
         -1   -1    0    0    0  501 -0.00000000000E+00  0.00000000000E+00  0.20578751063E+03  0.20578751063E+03  0.00000000000E+00 0. -1.
          1   -1    0    0  501    0  0.00000000000E+00 -0.00000000000E+00 -0.18646563601E+03  0.18646563601E+03  0.00000000000E+00 0.  1.
         23    2    1    2    0    0  0.14282883599E+03 -0.71072888683E+02  0.27746462286E+02  0.18935354584E+03  0.98150228005E+02 0.  0.
          5    1    1    2  502    0 -0.82650152481E+02 -0.14042514006E+02  0.33620215786E+02  0.90421409048E+02  0.41800000000E+01 0.  1.
         -5    1    1    2    0  502 -0.60178683508E+02  0.85115402688E+02 -0.42044803447E+02  0.11247819175E+03  0.41800000000E+01 0.  1.
        -11    1    3    3    0    0  0.10339491682E+03 -0.65820650187E+02  0.61545409072E+02  0.13715212063E+03  0.00000000000E+00 0. -1.
         11    1    3    3    0    0  0.39433919168E+02 -0.52522384959E+01 -0.33798946786E+02  0.52201425211E+02  0.00000000000E+00 0.  1.
</event>
<event>
 7    1  0.6988825E-006  0.6901946E+02  0.7561462E-02  0.1363460E+00
         -3   -1    0    0    0  501 -0.00000000000E+00  0.00000000000E+00  0.25269760985E+03  0.25269760985E+03  0.00000000000E+00 0.  1.
          3   -1    0    0  501    0  0.00000000000E+00 -0.00000000000E+00 -0.72338638858E+02  0.72338638858E+02  0.00000000000E+00 0. -1.
         23    2    1    2    0    0  0.31291728171E+02 -0.82882103104E+01  0.17018894312E+03  0.19542576439E+03  0.90438301303E+02 0.  0.
          5    1    1    2  502    0  0.97947068431E+01 -0.17424846717E+02  0.57937319422E+02  0.61430993375E+02  0.41800000000E+01 0.  1.
         -5    1    1    2    0  502 -0.41086435014E+02  0.25713057027E+02 -0.47767291551E+02  0.68179490949E+02  0.41800000000E+01 0.  1.
        -11    1    3    3    0    0  0.46662835704E+01  0.25515224453E+02  0.14115083895E+03  0.14351432060E+03  0.00000000000E+00 0.  1.
         11    1    3    3    0    0  0.26625444601E+02 -0.33803434763E+02  0.29038104174E+02  0.51911443786E+02  0.00000000000E+00 0. -1.
</event>
<event>
 7    1  0.6988825E-006  0.1020373E+03  0.7561462E-02  0.1276069E+00
          1   -1    0    0  501    0  0.00000000000E+00  0.00000000000E+00  0.40287087654E+03  0.40287087654E+03  0.00000000000E+00 0. -1.
         -1   -1    0    0    0  501 -0.00000000000E+00 -0.00000000000E+00 -0.43523414314E+02  0.43523414314E+02  0.00000000000E+00 0.  1.
         23    2    1    2    0    0  0.48344456742E+02 -0.46533080267E+02  0.10094430055E+03  0.15156862762E+03  0.90998807721E+02 0.  0.
          5    1    1    2  502    0 -0.19528539849E+02 -0.18054718234E+02  0.20329165465E+03  0.20506658912E+03  0.41800000000E+01 0.  1.
         -5    1    1    2    0  502 -0.28815916892E+02  0.64587798501E+02  0.55111507024E+02  0.89759074126E+02  0.41800000000E+01 0.  1.
        -11    1    3    3    0    0  0.40203295811E+02  0.15980633024E+02  0.16759405087E+02  0.46395724855E+02  0.00000000000E+00 0.  1.
         11    1    3    3    0    0  0.81411609307E+01 -0.62513713292E+02  0.84184895465E+02  0.10517290276E+03  0.00000000000E+00 0. -1.
</event>
<event>
 7    1  0.6988825E-006  0.1061065E+03  0.7561462E-02  0.1267955E+00
         -1   -1    0    0    0  501 -0.00000000000E+00  0.00000000000E+00  0.94755108533E+01  0.94755108533E+01  0.00000000000E+00 0.  1.
          1   -1    0    0  501    0  0.00000000000E+00 -0.00000000000E+00 -0.26880111864E+04  0.26880111864E+04  0.00000000000E+00 0. -1.
         23    2    1    2    0    0  0.25413895795E+02  0.78323737762E+02 -0.51598471591E+03  0.52975634277E+03  0.87298806743E+02 0.  0.
          5    1    1    2  502    0 -0.15477989914E+02 -0.32296559152E+01 -0.16003907972E+04  0.16004743594E+04  0.41800000000E+01 0. -1.
         -5    1    1    2    0  502 -0.99359058810E+01 -0.75094081847E+02 -0.56216016242E+03  0.56725599509E+03  0.41800000000E+01 0. -1.
        -11    1    3    3    0    0 -0.31055288942E+02  0.44189093712E+02 -0.22855359454E+03  0.23484857366E+03  0.00000000000E+00 0.  1.
         11    1    3    3    0    0  0.56469184737E+02  0.34134644050E+02 -0.28743112137E+03  0.29490776911E+03  0.00000000000E+00 0. -1.
</event>
<event>
 7    1  0.6988825E-006  0.9380534E+02  0.7561462E-02  0.1293890E+00
          1   -1    0    0  501    0  0.00000000000E+00  0.00000000000E+00  0.11273481184E+04  0.11273481184E+04  0.00000000000E+00 0. -1.
         -1   -1    0    0    0  501 -0.00000000000E+00 -0.00000000000E+00 -0.13030942728E+02  0.13030942728E+02  0.00000000000E+00 0.  1.
         23    2    1    2    0    0 -0.19794179945E+02  0.86725609706E+01  0.28010624273E+03  0.29656421422E+03  0.94993700135E+02 0.  0.
          5    1    1    2  502    0  0.53750141221E+02  0.46303646845E+01  0.16600475871E+03  0.17460117489E+03  0.41800000000E+01 0. -1.
         -5    1    1    2    0  502 -0.33955961276E+02 -0.13302925655E+02  0.66820617422E+03  0.66921367200E+03  0.41800000000E+01 0. -1.
        -11    1    3    3    0    0 -0.38684966894E+02 -0.33121554308E+02  0.16407936032E+03  0.17180104920E+03  0.00000000000E+00 0. -1.
         11    1    3    3    0    0  0.18890786949E+02  0.41794115279E+02  0.11602688240E+03  0.12476316501E+03  0.00000000000E+00 0.  1.
</event>
<event>
 7    1  0.6988825E-006  0.1138851E+03  0.7561462E-02  0.1253540E+00
         -1   -1    0    0    0  501 -0.00000000000E+00  0.00000000000E+00  0.91286331656E+02  0.91286331656E+02  0.00000000000E+00 0.  1.
          1   -1    0    0  501    0  0.00000000000E+00 -0.00000000000E+00 -0.23874654332E+03  0.23874654332E+03  0.00000000000E+00 0. -1.
         23    2    1    2    0    0 -0.87740258664E+02  0.34120335053E+01 -0.11985231579E+02  0.12579897807E+03  0.89284613139E+02 0.  0.
          5    1    1    2  502    0  0.61791732400E+02  0.24822427960E+02 -0.35847007002E+01  0.66818362760E+02  0.41800000000E+01 0.  1.
         -5    1    1    2    0  502  0.25948526264E+02 -0.28234461465E+02 -0.13189027938E+03  0.13741553415E+03  0.41800000000E+01 0.  1.
        -11    1    3    3    0    0 -0.61170522210E+02 -0.38914074224E+02  0.58557538132E+01  0.72735327131E+02  0.00000000000E+00 0. -1.
         11    1    3    3    0    0 -0.26569736454E+02  0.42326107729E+02 -0.17840985392E+02  0.53063650935E+02  0.00000000000E+00 0.  1.
</event>
<event>
 7    1  0.6988825E-006  0.1229093E+03  0.7561462E-02  0.1238373E+00
          3   -1    0    0  501    0  0.00000000000E+00  0.00000000000E+00  0.26064703006E+03  0.26064703006E+03  0.00000000000E+00 0. -1.
         -3   -1    0    0    0  501 -0.00000000000E+00 -0.00000000000E+00 -0.80807275220E+02  0.80807275220E+02  0.00000000000E+00 0.  1.
         23    2    1    2    0    0  0.89893493309E+02 -0.15098072395E+02  0.49876507945E+02  0.13934586796E+03  0.92848333012E+02 0.  0.
          5    1    1    2  502    0 -0.83982632634E+01 -0.49528979769E+02  0.36806140229E+02  0.62416464346E+02  0.41800000000E+01 0. -1.
         -5    1    1    2    0  502 -0.81495230045E+02  0.64627052164E+02  0.93157106667E+02  0.13969197298E+03  0.41800000000E+01 0. -1.
        -11    1    3    3    0    0  0.63343969741E+02 -0.13146137340E+02 -0.17400849068E+02  0.66993051713E+02  0.00000000000E+00 0.  1.
         11    1    3    3    0    0  0.26549523567E+02 -0.19519350551E+01  0.67277357012E+02  0.72352816246E+02  0.00000000000E+00 0. -1.
</event>
<event>
 7    1  0.6988825E-006  0.1625361E+03  0.7561462E-02  0.1185863E+00
         -1   -1    0    0    0  501 -0.00000000000E+00  0.00000000000E+00  0.67468672026E+02  0.67468672026E+02  0.00000000000E+00 0.  1.
          1   -1    0    0  501    0  0.00000000000E+00 -0.00000000000E+00 -0.45218243053E+03  0.45218243053E+03  0.00000000000E+00 0. -1.
         23    2    1    2    0    0 -0.64593902137E+02  0.11902525797E+03 -0.19539981814E+03  0.25540327253E+03  0.93329301182E+02 0.  0.
          5    1    1    2  502    0  0.89205358666E+02 -0.12945483772E+03 -0.15976701258E+03  0.22418546281E+03  0.41800000000E+01 0. -1.
         -5    1    1    2    0  502 -0.24611456528E+02  0.10429579750E+02 -0.29546927774E+02  0.40062367218E+02  0.41800000000E+01 0. -1.
        -11    1    3    3    0    0 -0.35842421218E+02  0.28577736635E+02 -0.13581347692E+03  0.14334108519E+03  0.00000000000E+00 0. -1.
         11    1    3    3    0    0 -0.28751480920E+02  0.90447521337E+02 -0.59586341224E+02  0.11206218734E+03  0.00000000000E+00 0.  1.
</event>
<event>
 7    1  0.6988825E-006  0.1753528E+03  0.7561462E-02  0.1172378E+00
          2   -1    0    0  501    0  0.00000000000E+00  0.00000000000E+00  0.15751395005E+04  0.15751395005E+04  0.00000000000E+00 0.  1.
         -2   -1    0    0    0  501 -0.00000000000E+00 -0.00000000000E+00 -0.22619248590E+02  0.22619248590E+02  0.00000000000E+00 0. -1.
         23    2    1    2    0    0 -0.64195396023E+02 -0.12499619644E+03  0.46262864526E+03  0.49174968671E+03  0.89707262604E+02 0.  0.
          5    1    1    2  502    0  0.82122730370E+02  0.29912250324E+02  0.62854862717E+03  0.63460990748E+03  0.41800000000E+01 0. -1.
         -5    1    1    2    0  502 -0.17927334347E+02  0.95083946114E+02  0.46134297949E+03  0.47139915491E+03  0.41800000000E+01 0. -1.
        -11    1    3    3    0    0 -0.83164888467E+02 -0.71774428469E+02  0.28998703249E+03  0.31009747866E+03  0.00000000000E+00 0.  1.
         11    1    3    3    0    0  0.18969492444E+02 -0.53221767969E+02  0.17264161277E+03  0.18165220805E+03  0.00000000000E+00 0. -1.
</event>
<event>
 6    1  0.6988825E-006  0.1484569E+03  0.7561462E-02  0.1202382E+00
          2   -1    0    0  501    0  0.00000000000E+00  0.00000000000E+00  0.31737666428E+03  0.31737666428E+03  0.00000000000E+00 0.  1.
         -2   -1    0    0    0  501 -0.00000000000E+00 -0.00000000000E+00 -0.13483375067E+03  0.13483375067E+03  0.00000000000E+00 0. -1.
          5    1    1    2  502    0 -0.83668930232E+02  0.11572801507E+03  0.15766915157E+03  0.21276864693E+03  0.41800000000E+01 0.  1.
         -5    1    1    2    0  502 -0.52889107598E+01 -0.28952166615E+02  0.27215872265E+02  0.40303556070E+02  0.41800000000E+01 0. -1.
        -11    1    1    2    0    0  0.21649524214E+02 -0.19075313552E+02 -0.74224496487E+02  0.79635704082E+02  0.00000000000E+00 0. -1.
         11    1    1    2    0    0  0.67308316777E+02 -0.67700534905E+02  0.71882386257E+02  0.11950250787E+03  0.00000000000E+00 0.  1.
</event>
<event>
 7    1  0.6988825E-006  0.1606844E+03  0.7561462E-02  0.1187926E+00
          2   -1    0    0  501    0  0.00000000000E+00  0.00000000000E+00  0.12362143199E+04  0.12362143199E+04  0.00000000000E+00 0. -1.
         -2   -1    0    0    0  501 -0.00000000000E+00 -0.00000000000E+00 -0.28476031849E+02  0.28476031849E+02  0.00000000000E+00 0.  1.
         23    2    1    2    0    0  0.43029452755E+02 -0.14036479472E+03  0.43018856914E+03  0.46357430559E+03  0.91022647657E+02 0.  0.
          5    1    1    2  502    0 -0.40063414126E+02  0.81518133957E+02  0.68707628426E+03  0.69306679051E+03  0.41800000000E+01 0.  1.
         -5    1    1    2    0  502 -0.29660386286E+01  0.58846660759E+02  0.90473434629E+02  0.10804925563E+03  0.41800000000E+01 0.  1.
        -11    1    3    3    0    0  0.56770609779E+02 -0.38521736654E+02  0.14436475948E+03  0.15983744902E+03  0.00000000000E+00 0. -1.
         11    1    3    3    0    0 -0.13741157024E+02 -0.10184305806E+03  0.28582380966E+03  0.30373685657E+03  0.00000000000E+00 0.  1.
</event>
<event>
 7    1  0.6988825E-006  0.8327765E+02  0.7561462E-02  0.1319999E+00
         -1   -1    0    0    0  501 -0.00000000000E+00  0.00000000000E+00  0.57274464130E+02  0.57274464130E+02  0.00000000000E+00 0.  1.
          1   -1    0    0  501    0  0.00000000000E+00 -0.00000000000E+00 -0.23204427857E+03  0.23204427857E+03  0.00000000000E+00 0. -1.
         23    2    1    2    0    0 -0.83753396287E+01 -0.20855822447E+02 -0.52699349876E+02  0.10509442510E+03  0.88105079687E+02 0.  0.
          5    1    1    2  502    0  0.42870394324E+02  0.15114321778E+02 -0.13815901128E+03  0.14550497665E+03  0.41800000000E+01 0. -1.
         -5    1    1    2    0  502 -0.34495054695E+02  0.57415006692E+01  0.16088546711E+02  0.38719340951E+02  0.41800000000E+01 0.  1.
        -11    1    3    3    0    0 -0.37816486997E+02 -0.36319792980E+02 -0.14404696997E+02  0.54375631918E+02  0.00000000000E+00 0.  1.
         11    1    3    3    0    0  0.29441147368E+02  0.15463970534E+02 -0.38294652879E+02  0.50718793185E+02  0.00000000000E+00 0. -1.
</event>
<event>
 7    1  0.6988825E-006  0.9278767E+02  0.7561462E-02  0.1296238E+00
         -1   -1    0    0    0  501 -0.00000000000E+00  0.00000000000E+00  0.16684241235E+02  0.16684241235E+02  0.00000000000E+00 0.  1.
          1   -1    0    0  501    0  0.00000000000E+00 -0.00000000000E+00 -0.76040181433E+03  0.76040181433E+03  0.00000000000E+00 0. -1.
         23    2    1    2    0    0  0.26503606623E+02 -0.57915791719E+01 -0.26343309432E+03  0.28003851855E+03  0.91041710972E+02 0.  0.
          5    1    1    2  502    0 -0.48231710620E+02 -0.23547644299E+02 -0.43684481480E+03  0.44014958148E+03  0.41800000000E+01 0.  1.
         -5    1    1    2    0  502  0.21728103998E+02  0.29339223471E+02 -0.43439663974E+02  0.56897955529E+02  0.41800000000E+01 0.  1.
        -11    1    3    3    0    0 -0.33197651065E+02 -0.11225931730E+02 -0.95754310255E+02  0.10196564869E+03  0.00000000000E+00 0. -1.
         11    1    3    3    0    0  0.59701257687E+02  0.54343525581E+01 -0.16767878407E+03  0.17807286987E+03  0.00000000000E+00 0.  1.
</event>
<event>
 7    1  0.6988825E-006  0.9941048E+02  0.7561462E-02  0.1281541E+00
          2   -1    0    0  501    0  0.00000000000E+00  0.00000000000E+00  0.28353135018E+03  0.28353135018E+03  0.00000000000E+00 0.  1.
         -2   -1    0    0    0  501 -0.00000000000E+00 -0.00000000000E+00 -0.49227788306E+02  0.49227788306E+02  0.00000000000E+00 0. -1.
         23    2    1    2    0    0 -0.47534073506E+02 -0.13535744503E+02  0.96014878170E+02  0.13985042041E+03  0.88862695977E+02 0.  0.
          5    1    1    2  502    0 -0.34961388801E+02 -0.13089976916E+01  0.88668092450E+02  0.95412343020E+02  0.41800000000E+01 0. -1.
         -5    1    1    2    0  502  0.82495462307E+02  0.14844742194E+02  0.49620591252E+02  0.97496375052E+02  0.41800000000E+01 0. -1.
        -11    1    3    3    0    0  0.65412397405E+01 -0.23746322528E+02 -0.47060090784E+01  0.25076326932E+02  0.00000000000E+00 0. -1.
         11    1    3    3    0    0 -0.54075313247E+02  0.10210578025E+02  0.10072088725E+03  0.11477409348E+03  0.00000000000E+00 0.  1.
</event>
<event>
 7    1  0.6988825E-006  0.1297023E+03  0.7561462E-02  0.1227898E+00
         -2   -1    0    0    0  501 -0.00000000000E+00  0.00000000000E+00  0.18659330394E+02  0.18659330394E+02  0.00000000000E+00 0.  1.
          2   -1    0    0  501    0  0.00000000000E+00 -0.00000000000E+00 -0.94192524647E+03  0.94192524647E+03  0.00000000000E+00 0. -1.
         23    2    1    2    0    0 -0.70876881570E+02 -0.14563747416E+02 -0.32269951433E+03  0.34287518327E+03  0.90513975029E+02 0.  0.
          5    1    1    2  502    0  0.33065023011E+02  0.69856101206E+02 -0.32020557400E+03  0.32942715833E+03  0.41800000000E+01 0.  1.
         -5    1    1    2    0  502  0.37811858559E+02 -0.55292353790E+02 -0.28036082774E+03  0.28828223526E+03  0.41800000000E+01 0.  1.
        -11    1    3    3    0    0  0.17908908895E+02 -0.18849931183E+02 -0.93325271630E+02  0.96879591495E+02  0.00000000000E+00 0.  1.
         11    1    3    3    0    0 -0.88785790465E+02  0.42861837673E+01 -0.22937424270E+03  0.24599559178E+03  0.00000000000E+00 0. -1.
</event>
<event>
 7    1  0.6988825E-006  0.1185128E+03  0.7561462E-02  0.1245571E+00
          1   -1    0    0  501    0  0.00000000000E+00  0.00000000000E+00  0.36393273259E+03  0.36393273259E+03  0.00000000000E+00 0. -1.
         -1   -1    0    0    0  501 -0.00000000000E+00 -0.00000000000E+00 -0.84322381076E+02  0.84322381076E+02  0.00000000000E+00 0.  1.
         23    2    1    2    0    0  0.40445171084E+01  0.36935589791E+02 -0.33131612836E+02  0.10254034306E+03  0.89644979082E+02 0.  0.
          5    1    1    2  502    0 -0.72183656591E+02 -0.91204582905E+01  0.17294096645E+03  0.18766915920E+03  0.41800000000E+01 0. -1.
         -5    1    1    2    0  502  0.68139139482E+02 -0.27815131500E+02  0.13980099790E+03  0.15804561140E+03  0.41800000000E+01 0.  1.
        -11    1    3    3    0    0 -0.18988594850E+02 -0.20864331494E+02  0.62617226634E+01  0.28898031660E+02  0.00000000000E+00 0. -1.
         11    1    3    3    0    0  0.23033111959E+02  0.57799921285E+02 -0.39393335499E+02  0.73642311403E+02  0.00000000000E+00 0.  1.
</event>
<event>
 7    1  0.6988825E-006  0.1121425E+03  0.7561462E-02  0.1256653E+00
         -2   -1    0    0    0  501 -0.00000000000E+00  0.00000000000E+00  0.12904956384E+03  0.12904956384E+03  0.00000000000E+00 0.  1.
          2   -1    0    0  501    0  0.00000000000E+00 -0.00000000000E+00 -0.12920994668E+03  0.12920994668E+03  0.00000000000E+00 0. -1.
         23    2    1    2    0    0 -0.62465430947E+02  0.16723181319E+02  0.22520601552E+02  0.11562556977E+03  0.93169201100E+02 0.  0.
          5    1    1    2  502    0  0.70397363140E+02  0.32614183678E+02 -0.42679138172E+02  0.88647926931E+02  0.41800000000E+01 0. -1.
         -5    1    1    2    0  502 -0.79319321931E+01 -0.49337364997E+02  0.19998153781E+02  0.53986013817E+02  0.41800000000E+01 0. -1.
        -11    1    3    3    0    0 -0.58406754274E+02 -0.18282814209E+02  0.43064379291E+02  0.74834156666E+02  0.00000000000E+00 0.  1.
         11    1    3    3    0    0 -0.40586766729E+01  0.35005995528E+02 -0.20543777739E+02  0.40791413104E+02  0.00000000000E+00 0. -1.
</event>
<event>
 7    1  0.6988825E-006  0.1183679E+03  0.7561462E-02  0.1245814E+00
         -1   -1    0    0    0  501 -0.00000000000E+00  0.00000000000E+00  0.32885239852E+02  0.32885239852E+02  0.00000000000E+00 0.  1.
          1   -1    0    0  501    0  0.00000000000E+00 -0.00000000000E+00 -0.67082191964E+03  0.67082191964E+03  0.00000000000E+00 0. -1.
         23    2    1    2    0    0 -0.67787563595E+02  0.64298313377E+02 -0.19738638571E+03  0.23630510027E+03  0.90273408442E+02 0.  0.
          5    1    1    2  502    0 -0.60533457568E+01 -0.34501347446E+02 -0.32559337591E+03  0.32749886230E+03  0.41800000000E+01 0.  1.
         -5    1    1    2    0  502  0.73840909352E+02 -0.29796965931E+02 -0.11495691817E+03  0.13990319692E+03  0.41800000000E+01 0.  1.
        -11    1    3    3    0    0 -0.77868148587E+02  0.25959791871E+02 -0.16793258919E+03  0.18691900350E+03  0.00000000000E+00 0. -1.
         11    1    3    3    0    0  0.10080584991E+02  0.38338521507E+02 -0.29453796517E+02  0.49386096772E+02  0.00000000000E+00 0.  1.
</event>
<event>
 7    1  0.6988825E-006  0.1119195E+03  0.7561462E-02  0.1257056E+00
          2   -1    0    0  501    0  0.00000000000E+00  0.00000000000E+00  0.30775789870E+03  0.30775789870E+03  0.00000000000E+00 0. -1.
         -2   -1    0    0    0  501 -0.00000000000E+00 -0.00000000000E+00 -0.53362385401E+02  0.53362385401E+02  0.00000000000E+00 0.  1.
         23    2    1    2    0    0  0.46867189834E+02  0.11866024034E+02  0.44185262157E+02  0.11177391853E+03  0.90574474677E+02 0.  0.
          5    1    1    2  502    0 -0.89955175107E+02 -0.58479024853E+01  0.14725387755E+03  0.17270584340E+03  0.41800000000E+01 0. -1.
         -5    1    1    2    0  502  0.43087985273E+02 -0.60181215490E+01  0.62956373590E+02  0.76640522164E+02  0.41800000000E+01 0. -1.
        -11    1    3    3    0    0  0.93897545357E+01  0.41226165389E+02  0.48055185744E+02  0.64008320395E+02  0.00000000000E+00 0.  1.
         11    1    3    3    0    0  0.37477435298E+02 -0.29360141355E+02 -0.38699235868E+01  0.47765598138E+02  0.00000000000E+00 0. -1.
</event>
<event>
 7    1  0.6988825E-006  0.8978205E+02  0.7561462E-02  0.1303380E+00
          1   -1    0    0  501    0  0.00000000000E+00  0.00000000000E+00  0.15072048006E+03  0.15072048006E+03  0.00000000000E+00 0. -1.
         -1   -1    0    0    0  501 -0.00000000000E+00 -0.00000000000E+00 -0.13106444311E+03  0.13106444311E+03  0.00000000000E+00 0.  1.
         23    2    1    2    0    0 -0.36000284297E+02 -0.56411838649E+00 -0.78082838115E+02  0.12496524332E+03  0.90680999828E+02 0.  0.
          5    1    1    2  502    0 -0.54301524780E+01 -0.43362315265E+02  0.83959739340E+02  0.94744325272E+02  0.41800000000E+01 0. -1.
         -5    1    1    2    0  502  0.41430436775E+02  0.43926433652E+02  0.13779135724E+02  0.62075354578E+02  0.41800000000E+01 0.  1.
        -11    1    3    3    0    0 -0.39836171355E+02 -0.27193405165E+02 -0.67191538980E+01  0.48698550920E+02  0.00000000000E+00 0. -1.
         11    1    3    3    0    0  0.38358870581E+01  0.26629286778E+02 -0.71363684217E+02  0.76266692395E+02  0.00000000000E+00 0.  1.
</event>
<event>
 7    1  0.6988825E-006  0.1058445E+03  0.7561462E-02  0.1268465E+00
          2   -1    0    0  501    0  0.00000000000E+00  0.00000000000E+00  0.50307386729E+03  0.50307386729E+03  0.00000000000E+00 0. -1.
         -2   -1    0    0    0  501 -0.00000000000E+00 -0.00000000000E+00 -0.31201711370E+02  0.31201711370E+02  0.00000000000E+00 0.  1.
         23    2    1    2    0    0  0.12114186624E+02  0.19262923145E+02  0.84884388024E+02  0.12693603641E+03  0.91594673881E+02 0.  0.
          5    1    1    2  502    0 -0.40393011742E+02 -0.57013293665E+02  0.30244103237E+03  0.31043543856E+03  0.41800000000E+01 0.  1.
         -5    1    1    2    0  502  0.28278825119E+02  0.37750370521E+02  0.84546735528E+02  0.96904103695E+02  0.41800000000E+01 0.  1.
        -11    1    3    3    0    0 -0.15560739519E+02 -0.32281047096E+02  0.34036014088E+02  0.49423201748E+02  0.00000000000E+00 0. -1.
         11    1    3    3    0    0  0.27674926142E+02  0.51543970241E+02  0.50848373936E+02  0.77512834661E+02  0.00000000000E+00 0.  1.
</event>
<event>
 7    1  0.6988825E-006  0.1278264E+03  0.7561462E-02  0.1230717E+00
         -2   -1    0    0    0  501 -0.00000000000E+00  0.00000000000E+00  0.17612856412E+02  0.17612856412E+02  0.00000000000E+00 0.  1.
          2   -1    0    0  501    0  0.00000000000E+00 -0.00000000000E+00 -0.16215075823E+04  0.16215075823E+04  0.00000000000E+00 0. -1.
         23    2    1    2    0    0 -0.28185727014E+02 -0.77338518975E+02 -0.25974065877E+03  0.28665088383E+03  0.89038405502E+02 0.  0.
          5    1    1    2  502    0  0.73368026133E+02  0.22588054593E+02 -0.59448835853E+03  0.59943887787E+03  0.41800000000E+01 0. -1.
         -5    1    1    2    0  502 -0.45182299119E+02  0.54750464382E+02 -0.74966570860E+03  0.75303067703E+03  0.41800000000E+01 0. -1.
        -11    1    3    3    0    0  0.67610757475E+00  0.12902000941E+02 -0.33966843569E+01  0.13358750479E+02  0.00000000000E+00 0.  1.
         11    1    3    3    0    0 -0.28861834589E+02 -0.90240519916E+02 -0.25634397442E+03  0.27329213335E+03  0.00000000000E+00 0. -1.
</event>
<event>
 7    1  0.6988825E-006  0.1107549E+03  0.7561462E-02  0.1259178E+00
          3   -1    0    0  501    0  0.00000000000E+00  0.00000000000E+00  0.54596741736E+02  0.54596741736E+02  0.00000000000E+00 0. -1.
         -3   -1    0    0    0  501 -0.00000000000E+00 -0.00000000000E+00 -0.36947372234E+03  0.36947372234E+03  0.00000000000E+00 0.  1.
         23    2    1    2    0    0 -0.53434051678E+02 -0.74180275749E+02 -0.13468110591E+03  0.18642055073E+03  0.90860939102E+02 0.  0.
          5    1    1    2  502    0 -0.36493968032E+01 -0.19037531827E+02 -0.10017302496E+03  0.10211685975E+03  0.41800000000E+01 0.  1.
         -5    1    1    2    0  502  0.57083448481E+02  0.93217807576E+02 -0.80022849735E+02  0.13553305360E+03  0.41800000000E+01 0.  1.
        -11    1    3    3    0    0 -0.21753203759E+02 -0.41022017534E+02 -0.13262064968E+03  0.14051421464E+03  0.00000000000E+00 0.  1.
         11    1    3    3    0    0 -0.31680847919E+02 -0.33158258215E+02 -0.20604562368E+01  0.45906336084E+02  0.00000000000E+00 0. -1.
</event>
<event>
 7    1  0.6988825E-006  0.1045648E+03  0.7561462E-02  0.1270980E+00
          2   -1    0    0  501    0  0.00000000000E+00  0.00000000000E+00  0.63982135241E+03  0.63982135241E+03  0.00000000000E+00 0. -1.
         -2   -1    0    0    0  501 -0.00000000000E+00 -0.00000000000E+00 -0.29603807597E+02  0.29603807597E+02  0.00000000000E+00 0.  1.
         23    2    1    2    0    0  0.56420909161E+02 -0.59713018952E+02  0.23091984328E+03  0.26167123713E+03  0.91645505595E+02 0.  0.
          5    1    1    2  502    0 -0.40890894308E+02  0.25634567349E+01  0.24284054846E+02  0.47810294576E+02  0.41800000000E+01 0. -1.
         -5    1    1    2    0  502 -0.15530014853E+02  0.57149562217E+02  0.35501364669E+03  0.35994362831E+03  0.41800000000E+01 0. -1.
        -11    1    3    3    0    0 -0.11069246395E+02 -0.34991958675E+02  0.27308712622E+02  0.45746378794E+02  0.00000000000E+00 0.  1.
         11    1    3    3    0    0  0.67490155556E+02 -0.24721060278E+02  0.20361113066E+03  0.21592485833E+03  0.00000000000E+00 0. -1.
</event>
<event>
 7    1  0.6988825E-006  0.9661658E+02  0.7561462E-02  0.1287576E+00
         -2   -1    0    0    0  501 -0.00000000000E+00  0.00000000000E+00  0.24258336856E+02  0.24258336856E+02  0.00000000000E+00 0.  1.
          2   -1    0    0  501    0  0.00000000000E+00 -0.00000000000E+00 -0.10108753188E+04  0.10108753188E+04  0.00000000000E+00 0. -1.
         23    2    1    2    0    0  0.26305655604E+02 -0.44487687459E+02 -0.11715913128E+03  0.15520419078E+03  0.87697987104E+02 0.  0.
          5    1    1    2  502    0 -0.41118336018E+02 -0.28848407315E+02 -0.19845469086E+03  0.20475518281E+03  0.41800000000E+01 0. -1.
         -5    1    1    2    0  502  0.14812680414E+02  0.73336094774E+02 -0.67100315977E+03  0.67517428203E+03  0.41800000000E+01 0. -1.
        -11    1    3    3    0    0 -0.12292834512E+02 -0.14558262177E+02  0.81414720639E+01  0.20720529562E+02  0.00000000000E+00 0.  1.
         11    1    3    3    0    0  0.38598490117E+02 -0.29929425282E+02 -0.12530060335E+03  0.13448366122E+03  0.00000000000E+00 0. -1.
</event>
<event>
 7    1  0.6988825E-006  0.1138334E+03  0.7561462E-02  0.1253631E+00
          2   -1    0    0  501    0  0.00000000000E+00  0.00000000000E+00  0.80354643496E+02  0.80354643496E+02  0.00000000000E+00 0. -1.
         -2   -1    0    0    0  501 -0.00000000000E+00 -0.00000000000E+00 -0.20251469394E+03  0.20251469394E+03  0.00000000000E+00 0.  1.
         23    2    1    2    0    0 -0.24658877529E+01  0.53776394598E+02 -0.44800762930E+02  0.12626639901E+03  0.10506242878E+03 0.  0.
          5    1    1    2  502    0 -0.59044966070E+02 -0.39419067349E+02 -0.53336519034E+02  0.88895599169E+02  0.41800000000E+01 0.  1.
         -5    1    1    2    0  502  0.61510853823E+02 -0.14357327249E+02 -0.24022768484E+02  0.67707339258E+02  0.41800000000E+01 0.  1.
        -11    1    3    3    0    0 -0.39149959548E+02  0.23328459737E+02 -0.60795917258E+02  0.75980786529E+02  0.00000000000E+00 0.  1.
         11    1    3    3    0    0  0.36684071795E+02  0.30447934861E+02  0.15995154329E+02  0.50285612483E+02  0.00000000000E+00 0. -1.
</event>
<event>
 7    1  0.6988825E-006  0.1189888E+03  0.7561462E-02  0.1244775E+00
         -1   -1    0    0    0  501 -0.00000000000E+00  0.00000000000E+00  0.52639766936E+02  0.52639766936E+02  0.00000000000E+00 0.  1.
          1   -1    0    0  501    0  0.00000000000E+00 -0.00000000000E+00 -0.31148083828E+03  0.31148083828E+03  0.00000000000E+00 0. -1.
         23    2    1    2    0    0 -0.16622376332E+01 -0.67836251161E+02 -0.11885895000E+03  0.16450350116E+03  0.91265721350E+02 0.  0.
          5    1    1    2  502    0  0.58265312463E+02  0.56825528137E+02 -0.10149001539E+03  0.13016022015E+03  0.41800000000E+01 0.  1.
         -5    1    1    2    0  502 -0.56603074830E+02  0.11010723024E+02 -0.38492105955E+02  0.69456883911E+02  0.41800000000E+01 0.  1.
        -11    1    3    3    0    0  0.24688476758E+02 -0.67971241622E+02 -0.42853521885E+02  0.84059710386E+02  0.00000000000E+00 0.  1.
         11    1    3    3    0    0 -0.26350714391E+02  0.13499046111E+00 -0.76005428112E+02  0.80443790773E+02  0.00000000000E+00 0. -1.
</event>
<event>
 7    1  0.6988825E-006  0.1582861E+03  0.7561462E-02  0.1190645E+00
         -2   -1    0    0    0  501 -0.00000000000E+00  0.00000000000E+00  0.39089862983E+02  0.39089862983E+02  0.00000000000E+00 0.  1.
          2   -1    0    0  501    0  0.00000000000E+00 -0.00000000000E+00 -0.13005272737E+04  0.13005272737E+04  0.00000000000E+00 0. -1.
         23    2    1    2    0    0 -0.67872002076E+02 -0.12660528451E+03 -0.22539973011E+03  0.28621436761E+03  0.10236268442E+03 0.  0.
          5    1    1    2  502    0  0.47423796356E+02  0.74727638302E+02 -0.24744939257E+03  0.26283437878E+03  0.41800000000E+01 0. -1.
         -5    1    1    2    0  502  0.20448205720E+02  0.51877646207E+02 -0.78858828800E+03  0.79056839025E+03  0.41800000000E+01 0. -1.
        -11    1    3    3    0    0 -0.48548084441E+02 -0.48721227167E+01 -0.94897727955E+02  0.10670629247E+03  0.00000000000E+00 0. -1.
         11    1    3    3    0    0 -0.19323917635E+02 -0.12173316179E+03 -0.13050200215E+03  0.17950807514E+03  0.00000000000E+00 0.  1.
</event>
<event>
 7    1  0.7988691E-006  0.1339820E+03  0.7561462E-02  0.1221664E+00
         -2   -1    0    0    0  501 -0.00000000000E+00  0.00000000000E+00  0.39830714357E+02  0.39830714357E+02  0.00000000000E+00 0.  1.
          2   -1    0    0  501    0  0.00000000000E+00 -0.00000000000E+00 -0.54647945190E+03  0.54647945190E+03  0.00000000000E+00 0. -1.
         23    2    1    2    0    0  0.26342718381E+02 -0.93630476534E+02 -0.20532444989E+03  0.24586374610E+03  0.93969393815E+02 0.  0.
          5    1    1    2  502    0 -0.66077957456E+02  0.60684180250E+02 -0.10880969506E+03  0.14108822890E+03  0.41800000000E+01 0.  1.
         -5    1    1    2    0  502  0.39735239076E+02  0.32946296283E+02 -0.19251459259E+03  0.19935819127E+03  0.41800000000E+01 0.  1.
        -11    1    3    3    0    0  0.47237151779E+02 -0.22676034333E+02 -0.13061112522E+03  0.14072958848E+03  0.00000000000E+00 0. -1.
         11    1    3    3    0    0 -0.20894433399E+02 -0.70954442201E+02 -0.74713324668E+02  0.10513415762E+03  0.00000000000E+00 0.  1.
</event>
<event>
 7    1  0.6988825E-006  0.1812805E+03  0.7561462E-02  0.1166570E+00
         -3   -1    0    0    0  501 -0.00000000000E+00  0.00000000000E+00  0.17123529085E+03  0.17123529085E+03  0.00000000000E+00 0.  1.
          3   -1    0    0  501    0  0.00000000000E+00 -0.00000000000E+00 -0.19618722498E+03  0.19618722498E+03  0.00000000000E+00 0. -1.
         23    2    1    2    0    0  0.12359183755E+03 -0.74735704675E+02 -0.17066866920E+02  0.17614518091E+03  0.99375444394E+02 0.  0.
          5    1    1    2  502    0 -0.86675705005E+01  0.74824036413E+02  0.47229172968E+01  0.75587972266E+02  0.41800000000E+01 0.  1.
         -5    1    1    2    0  502 -0.11492426705E+03 -0.88331737730E-01 -0.12607984511E+02  0.11568936266E+03  0.41800000000E+01 0.  1.
        -11    1    3    3    0    0  0.11942357629E+03 -0.24750068972E+02  0.33071268528E+01  0.12200612106E+03  0.00000000000E+00 0.  1.
         11    1    3    3    0    0  0.41682612550E+01 -0.49985635703E+02 -0.20373993773E+02  0.54139059844E+02  0.00000000000E+00 0. -1.
</event>
<event>
 7    1  0.6988825E-006  0.1023527E+03  0.7561462E-02  0.1275425E+00
          4   -1    0    0  501    0  0.00000000000E+00  0.00000000000E+00  0.74629343972E+02  0.74629343972E+02  0.00000000000E+00 0. -1.
         -4   -1    0    0    0  501 -0.00000000000E+00 -0.00000000000E+00 -0.17532343610E+03  0.17532343610E+03  0.00000000000E+00 0.  1.
         23    2    1    2    0    0 -0.62478003927E+01 -0.14845702904E+02 -0.79981906022E+02  0.12216951308E+03  0.90933243271E+02 0.  0.
          5    1    1    2  502    0  0.36929990680E+02 -0.37090259429E+02  0.18550643784E+02  0.55687613892E+02  0.41800000000E+01 0. -1.
         -5    1    1    2    0  502 -0.30682190288E+02  0.51935962333E+02 -0.39262829890E+02  0.72095653096E+02  0.41800000000E+01 0. -1.
        -11    1    3    3    0    0 -0.63484693501E+01 -0.53099612423E+02 -0.53491773683E+02  0.75638890489E+02  0.00000000000E+00 0.  1.
         11    1    3    3    0    0  0.10066895745E+00  0.38253909519E+02 -0.26490132338E+02  0.46530622594E+02  0.00000000000E+00 0. -1.
</event>
<event>
 7    1  0.6988825E-006  0.1088744E+03  0.7561462E-02  0.1262669E+00
         -4   -1    0    0    0  501 -0.00000000000E+00  0.00000000000E+00  0.36223504520E+02  0.36223504520E+02  0.00000000000E+00 0.  1.
          4   -1    0    0  501    0  0.00000000000E+00 -0.00000000000E+00 -0.40880841097E+03  0.40880841097E+03  0.00000000000E+00 0. -1.
         23    2    1    2    0    0  0.41451295739E+02  0.17156727169E+02 -0.11789318853E+03  0.15775558276E+03  0.94738887392E+02 0.  0.
          5    1    1    2  502    0 -0.26162777252E+02  0.49786913030E+02 -0.68186437349E+02  0.88487797243E+02  0.41800000000E+01 0. -1.
         -5    1    1    2    0  502 -0.15288518487E+02 -0.66943640200E+02 -0.18650528057E+03  0.19878853549E+03  0.41800000000E+01 0. -1.
        -11    1    3    3    0    0  0.33601397197E+02  0.49192564564E+02 -0.36333361071E+02  0.69778760585E+02  0.00000000000E+00 0.  1.
         11    1    3    3    0    0  0.78498985421E+01 -0.32035837395E+02 -0.81559827460E+02  0.87976822175E+02  0.00000000000E+00 0. -1.
</event>
<event>
 7    1  0.6988825E-006  0.1050077E+03  0.7561462E-02  0.1270104E+00
          2   -1    0    0  501    0  0.00000000000E+00  0.00000000000E+00  0.45789471655E+03  0.45789471655E+03  0.00000000000E+00 0. -1.
         -2   -1    0    0    0  501 -0.00000000000E+00 -0.00000000000E+00 -0.33008623445E+02  0.33008623445E+02  0.00000000000E+00 0.  1.
         23    2    1    2    0    0 -0.12480599985E+02 -0.20652291756E+02  0.76745543630E+02  0.12313637978E+03  0.93222352612E+02 0.  0.
          5    1    1    2  502    0 -0.44233294369E+02 -0.19894511680E+02  0.14557115742E+03  0.15349531002E+03  0.41800000000E+01 0. -1.
         -5    1    1    2    0  502  0.56713894354E+02  0.40546803436E+02  0.20256939206E+03  0.21427165021E+03  0.41800000000E+01 0.  1.
        -11    1    3    3    0    0 -0.48125482955E+02 -0.27155839921E+02  0.64399293473E+02  0.84857355316E+02  0.00000000000E+00 0. -1.
         11    1    3    3    0    0  0.35644882970E+02  0.65035481642E+01  0.12346250157E+02  0.38279024460E+02  0.00000000000E+00 0.  1.
</event>
<event>
 7    1  0.6988825E-006  0.7135505E+02  0.7561462E-02  0.1355545E+00
         -1   -1    0    0    0  501 -0.00000000000E+00  0.00000000000E+00  0.24253524829E+03  0.24253524829E+03  0.00000000000E+00 0.  1.
          1   -1    0    0  501    0  0.00000000000E+00 -0.00000000000E+00 -0.49366875372E+02  0.49366875372E+02  0.00000000000E+00 0. -1.
         23    2    1    2    0    0  0.33524196254E+02  0.50252880562E+01  0.88875670453E+02  0.12554906731E+03  0.81942408132E+02 0.  0.
          5    1    1    2  502    0  0.49403160775E+01 -0.35891074639E+02 -0.13260072514E+02  0.38805642435E+02  0.41800000000E+01 0. -1.
         -5    1    1    2    0  502 -0.38464512332E+02  0.30865786583E+02  0.11755277498E+03  0.12754741391E+03  0.41800000000E+01 0. -1.
        -11    1    3    3    0    0  0.51299417677E+01 -0.18919815251E+02  0.86099041851E+02  0.88302438921E+02  0.00000000000E+00 0.  1.
         11    1    3    3    0    0  0.28394254487E+02  0.23945103308E+02  0.27766286012E+01  0.37246628393E+02  0.00000000000E+00 0. -1.
</event>
<event>
 7    1  0.6988825E-006  0.1341043E+03  0.7561462E-02  0.1221490E+00
         -2   -1    0    0    0  501 -0.00000000000E+00  0.00000000000E+00  0.21319326179E+02  0.21319326179E+02  0.00000000000E+00 0. -1.
          2   -1    0    0  501    0  0.00000000000E+00 -0.00000000000E+00 -0.12314949176E+04  0.12314949176E+04  0.00000000000E+00 0.  1.
         23    2    1    2    0    0  0.11886375227E+03 -0.98432643368E+01 -0.53695329501E+03  0.55775901852E+03  0.92470537207E+02 0.  0.
          5    1    1    2  502    0 -0.82049657637E+02  0.22689978514E+02 -0.16867220994E+03  0.18898351317E+03  0.41800000000E+01 0.  1.
         -5    1    1    2    0  502 -0.36814094638E+02 -0.12846714177E+02 -0.50455008651E+03  0.50607171214E+03  0.41800000000E+01 0.  1.
        -11    1    3    3    0    0  0.55273090588E+00  0.21390659839E+02 -0.34308996040E+02  0.40434799975E+02  0.00000000000E+00 0.  1.
         11    1    3    3    0    0  0.11831102137E+03 -0.31233924176E+02 -0.50264429897E+03  0.51732421854E+03  0.00000000000E+00 0. -1.
</event>
<event>
 7    1  0.6988825E-006  0.9024166E+02  0.7561462E-02  0.1302268E+00
         -2   -1    0    0    0  501 -0.00000000000E+00  0.00000000000E+00  0.10151666820E+03  0.10151666820E+03  0.00000000000E+00 0.  1.
          2   -1    0    0  501    0  0.00000000000E+00 -0.00000000000E+00 -0.14163945264E+03  0.14163945264E+03  0.00000000000E+00 0. -1.
         23    2    1    2    0    0  0.34877048636E+02 -0.40165789820E+02 -0.86662918640E+01  0.10363179320E+03  0.88514093534E+02 0.  0.
          5    1    1    2  502    0  0.12366397645E+02  0.46342011778E+02 -0.65157405614E+02  0.81015243953E+02  0.41800000000E+01 0.  1.
         -5    1    1    2    0  502 -0.47243446281E+02 -0.61762219580E+01  0.33700913038E+02  0.58509083686E+02  0.41800000000E+01 0.  1.
        -11    1    3    3    0    0 -0.14668779708E+02 -0.30760167748E+02 -0.33176009737E+02  0.47560578635E+02  0.00000000000E+00 0. -1.
         11    1    3    3    0    0  0.49545828344E+02 -0.94056220720E+01  0.24509717873E+02  0.56071214567E+02  0.00000000000E+00 0.  1.
</event>
<event>
 7    1  0.6988825E-006  0.1453085E+03  0.7561462E-02  0.1206359E+00
          3   -1    0    0  501    0  0.00000000000E+00  0.00000000000E+00  0.35975455953E+02  0.35975455953E+02  0.00000000000E+00 0. -1.
         -3   -1    0    0    0  501 -0.00000000000E+00 -0.00000000000E+00 -0.60478540921E+03  0.60478540921E+03  0.00000000000E+00 0.  1.
         23    2    1    2    0    0 -0.95882499680E+02 -0.15792895684E+01 -0.27798840574E+03  0.30997389628E+03  0.98032212828E+02 0.  0.
          5    1    1    2  502    0  0.54865696965E+02  0.62392450632E+02 -0.17246361373E+03  0.19147906690E+03  0.41800000000E+01 0.  1.
         -5    1    1    2    0  502  0.41016802715E+02 -0.60813161064E+02 -0.11835793379E+03  0.13930790198E+03  0.41800000000E+01 0.  1.
        -11    1    3    3    0    0 -0.39576864628E+02 -0.47121919480E+02 -0.95140983185E+02  0.11330759105E+03  0.00000000000E+00 0.  1.
         11    1    3    3    0    0 -0.56305635052E+02  0.45542629912E+02 -0.18284742255E+03  0.19666630523E+03  0.00000000000E+00 0. -1.
</event>
<event>
 7    1  0.6988825E-006  0.1087946E+03  0.7561462E-02  0.1262818E+00
         -1   -1    0    0    0  501 -0.00000000000E+00  0.00000000000E+00  0.58505592486E+03  0.58505592486E+03  0.00000000000E+00 0.  1.
          1   -1    0    0  501    0  0.00000000000E+00 -0.00000000000E+00 -0.23282101561E+02  0.23282101561E+02  0.00000000000E+00 0. -1.
         23    2    1    2    0    0  0.97762767867E+01 -0.16622490626E+02  0.34585916173E+03  0.35806098477E+03  0.90648917672E+02 0.  0.
          5    1    1    2  502    0  0.56158502117E+02  0.21530594436E+02  0.10018324511E+03  0.11692518487E+03  0.41800000000E+01 0.  1.
         -5    1    1    2    0  502 -0.65934778904E+02 -0.49081038100E+01  0.11573141646E+03  0.13335185678E+03  0.41800000000E+01 0.  1.
        -11    1    3    3    0    0  0.17796142859E+02 -0.51903478449E+02  0.23990017603E+03  0.24609503903E+03  0.00000000000E+00 0.  1.
         11    1    3    3    0    0 -0.80198660724E+01  0.35280987823E+02  0.10595898570E+03  0.11196594574E+03  0.00000000000E+00 0. -1.
</event>
<event>
 7    1  0.6988825E-006  0.1110949E+03  0.7561462E-02  0.1258556E+00
         -2   -1    0    0    0  501 -0.00000000000E+00  0.00000000000E+00  0.32382693862E+02  0.32382693862E+02  0.00000000000E+00 0.  1.
          2   -1    0    0  501    0  0.00000000000E+00 -0.00000000000E+00 -0.47012175384E+03  0.47012175384E+03  0.00000000000E+00 0. -1.
         23    2    1    2    0    0  0.26963874855E+02 -0.36921452598E+02 -0.12395505268E+03  0.16162367380E+03  0.93097328854E+02 0.  0.
          5    1    1    2  502    0 -0.77268015675E+02  0.19898278119E+02 -0.19113502314E+03  0.20716263464E+03  0.41800000000E+01 0.  1.
         -5    1    1    2    0  502  0.50304140820E+02  0.17023174479E+02 -0.12264898416E+03  0.13371813926E+03  0.41800000000E+01 0.  1.
        -11    1    3    3    0    0 -0.26997222523E+02 -0.10924324469E+02 -0.65930464284E+01  0.29860662254E+02  0.00000000000E+00 0.  1.
         11    1    3    3    0    0  0.53961097378E+02 -0.25997128128E+02 -0.11736200625E+03  0.13176301155E+03  0.00000000000E+00 0. -1.
</event>
<event>
 7    1  0.6988825E-006  0.2781553E+03  0.7561462E-02  0.1096701E+00
         -1   -1    0    0    0  501 -0.00000000000E+00  0.00000000000E+00  0.54434744605E+03  0.54434744605E+03  0.00000000000E+00 0.  1.
          1   -1    0    0  501    0  0.00000000000E+00 -0.00000000000E+00 -0.20838720521E+03  0.20838720521E+03  0.00000000000E+00 0. -1.
         23    2    1    2    0    0 -0.21145743186E+03 -0.14592071300E+03  0.37385705934E+03  0.46448150978E+03  0.99834223248E+02 0.  0.
          5    1    1    2  502    0  0.15720759832E+03  0.16500579540E+03 -0.33934848461E+02  0.23045647708E+03  0.41800000000E+01 0. -1.
         -5    1    1    2    0  502  0.54249833538E+02 -0.19085082401E+02 -0.39619700416E+01  0.57796664400E+02  0.41800000000E+01 0. -1.
        -11    1    3    3    0    0 -0.10269802122E+03 -0.20549135129E+02  0.10351316812E+03  0.14725531057E+03  0.00000000000E+00 0. -1.
         11    1    3    3    0    0 -0.10875941064E+03 -0.12537157787E+03  0.27034389123E+03  0.31722619921E+03  0.00000000000E+00 0.  1.
</event>
<event>
 7    1  0.6988825E-006  0.1360881E+03  0.7561462E-02  0.1218692E+00
          2   -1    0    0  501    0  0.00000000000E+00  0.00000000000E+00  0.64562349421E+03  0.64562349421E+03  0.00000000000E+00 0. -1.
         -2   -1    0    0    0  501 -0.00000000000E+00 -0.00000000000E+00 -0.31362110702E+02  0.31362110702E+02  0.00000000000E+00 0.  1.
         23    2    1    2    0    0  0.89979943137E+02  0.17504698086E+02  0.29385973525E+03  0.32102541927E+03  0.91109665775E+02 0.  0.
          5    1    1    2  502    0  0.19167325961E+02 -0.28681958365E+02  0.31515409329E+02  0.46911987225E+02  0.41800000000E+01 0. -1.
         -5    1    1    2    0  502 -0.10914726910E+03  0.11177260279E+02  0.28888623893E+03  0.30904819841E+03  0.41800000000E+01 0. -1.
        -11    1    3    3    0    0 -0.17499065087E+02  0.93525735035E+01  0.29667658521E+02  0.35691145571E+02  0.00000000000E+00 0.  1.
         11    1    3    3    0    0  0.10747900822E+03  0.81521245823E+01  0.26419207673E+03  0.28533427370E+03  0.00000000000E+00 0. -1.
</event>
<event>
 7    1  0.6988825E-006  0.8793986E+02  0.7561462E-02  0.1307919E+00
          1   -1    0    0  501    0  0.00000000000E+00  0.00000000000E+00  0.27947733005E+03  0.27947733005E+03  0.00000000000E+00 0. -1.
         -1   -1    0    0    0  501 -0.00000000000E+00 -0.00000000000E+00 -0.82572735598E+02  0.82572735598E+02  0.00000000000E+00 0.  1.
         23    2    1    2    0    0  0.63121855808E+02 -0.36456023719E+02  0.31793605338E+01  0.12020352065E+03  0.95526790470E+02 0.  0.
          5    1    1    2  502    0 -0.65844868581E+02  0.15440223499E+01  0.19569649397E+03  0.20652486745E+03  0.41800000000E+01 0.  1.
         -5    1    1    2    0  502  0.27230127728E+01  0.34912001369E+02 -0.19712600559E+01  0.35321677541E+02  0.41800000000E+01 0.  1.
        -11    1    3    3    0    0  0.53804189269E+02 -0.23630399540E+02  0.45945243163E+02  0.74593913523E+02  0.00000000000E+00 0. -1.
         11    1    3    3    0    0  0.93176665395E+01 -0.12825624179E+02 -0.42765882630E+02  0.45609607128E+02  0.00000000000E+00 0.  1.
</event>
<event>
 7    1  0.6988825E-006  0.9209958E+02  0.7561462E-02  0.1297845E+00
          1   -1    0    0  501    0  0.00000000000E+00  0.00000000000E+00  0.55841541763E+03  0.55841541763E+03  0.00000000000E+00 0. -1.
         -1   -1    0    0    0  501 -0.00000000000E+00 -0.00000000000E+00 -0.36040917315E+02  0.36040917315E+02  0.00000000000E+00 0.  1.
         23    2    1    2    0    0  0.59691949402E+02 -0.69799518607E+01  0.98612141082E+02  0.14854658568E+03  0.93433854667E+02 0.  0.
          5    1    1    2  502    0 -0.62597439164E+02  0.16546547124E+02  0.42899649746E+03  0.43387520653E+03  0.41800000000E+01 0.  1.
         -5    1    1    2    0  502  0.29054897620E+01 -0.95665952632E+01 -0.52341382267E+01  0.12034542728E+02  0.41800000000E+01 0.  1.
        -11    1    3    3    0    0  0.18723975869E+02 -0.47378405266E+02  0.30462898399E+02  0.59357297250E+02  0.00000000000E+00 0.  1.
         11    1    3    3    0    0  0.40967973533E+02  0.40398453406E+02  0.68149242683E+02  0.89189288433E+02  0.00000000000E+00 0. -1.
</event>
<event>
 7    1  0.6988825E-006  0.6354658E+02  0.7561462E-02  0.1383524E+00
         -2   -1    0    0    0  501 -0.00000000000E+00  0.00000000000E+00  0.29111791562E+02  0.29111791562E+02  0.00000000000E+00 0. -1.
          2   -1    0    0  501    0  0.00000000000E+00 -0.00000000000E+00 -0.44977283937E+03  0.44977283937E+03  0.00000000000E+00 0.  1.
         23    2    1    2    0    0  0.24978312819E+02 -0.28309122482E+02 -0.16742182873E+03  0.19392718141E+03  0.90290422671E+02 0.  0.
          5    1    1    2  502    0 -0.80386150944E+01  0.98896105085E+01 -0.25866494904E+03  0.25901245528E+03  0.41800000000E+01 0. -1.
         -5    1    1    2    0  502 -0.16939697725E+02  0.18419511974E+02  0.54257299675E+01  0.25944994238E+02  0.41800000000E+01 0. -1.
        -11    1    3    3    0    0 -0.29249104748E+02 -0.12639849435E+02 -0.24285783612E+02  0.40063389870E+02  0.00000000000E+00 0. -1.
         11    1    3    3    0    0  0.54227417567E+02 -0.15669273047E+02 -0.14313604512E+03  0.15386379154E+03  0.00000000000E+00 0.  1.
</event>
<event>
 7    1  0.6988825E-006  0.1042611E+03  0.7561462E-02  0.1271582E+00
         -3   -1    0    0    0  501 -0.00000000000E+00  0.00000000000E+00  0.20612150846E+02  0.20612150846E+02  0.00000000000E+00 0. -1.
          3   -1    0    0  501    0  0.00000000000E+00 -0.00000000000E+00 -0.75124438552E+03  0.75124438552E+03  0.00000000000E+00 0.  1.
         23    2    1    2    0    0 -0.46443203467E+02 -0.31474122808E+02 -0.22337637292E+03  0.24640113785E+03  0.87572399761E+02 0.  0.
          5    1    1    2  502    0  0.42609470232E+02  0.68008457499E+02 -0.19343682322E+03  0.20946597390E+03  0.41800000000E+01 0.  1.
         -5    1    1    2    0  502  0.38337332355E+01 -0.36534334692E+02 -0.31381903854E+03  0.31598942462E+03  0.41800000000E+01 0.  1.
        -11    1    3    3    0    0 -0.37625091003E+02 -0.54673284402E+02 -0.20512332130E+03  0.21559311780E+03  0.00000000000E+00 0.  1.
         11    1    3    3    0    0 -0.88181124649E+01  0.23199161594E+02 -0.18253051620E+02  0.30808020052E+02  0.00000000000E+00 0. -1.
</event>
<event>
 7    1  0.6988825E-006  0.1264101E+03  0.7561462E-02  0.1232882E+00
         -1   -1    0    0    0  501 -0.00000000000E+00  0.00000000000E+00  0.27979579865E+02  0.27979579865E+02  0.00000000000E+00 0.  1.
          1   -1    0    0  501    0  0.00000000000E+00 -0.00000000000E+00 -0.81503654565E+03  0.81503654565E+03  0.00000000000E+00 0. -1.
         23    2    1    2    0    0 -0.67497748668E+02 -0.73408176437E+02 -0.28542393876E+03  0.31649381253E+03  0.93577786396E+02 0.  0.
          5    1    1    2  502    0 -0.95614220438E+01  0.36667196703E+02 -0.33811166560E+02  0.50956564736E+02  0.41800000000E+01 0. -1.
         -5    1    1    2    0  502  0.77059170712E+02  0.36740979734E+02 -0.46782186046E+03  0.47556574825E+03  0.41800000000E+01 0. -1.
        -11    1    3    3    0    0 -0.47634285596E+02  0.54115731755E+01 -0.16005047679E+03  0.16707622635E+03  0.00000000000E+00 0. -1.
         11    1    3    3    0    0 -0.19863463072E+02 -0.78819749612E+02 -0.12537346197E+03  0.14941758618E+03  0.00000000000E+00 0.  1.
</event>
<event>
 7    1  0.6988825E-006  0.1041574E+03  0.7561462E-02  0.1271789E+00
          2   -1    0    0  501    0  0.00000000000E+00  0.00000000000E+00  0.15261862294E+04  0.15261862294E+04  0.00000000000E+00 0. -1.
         -2   -1    0    0    0  501 -0.00000000000E+00 -0.00000000000E+00 -0.11134801030E+02  0.11134801030E+02  0.00000000000E+00 0.  1.
         23    2    1    2    0    0 -0.13898662592E+02  0.67200846247E+02  0.49135212932E+03  0.50438640058E+03  0.90937338551E+02 0.  0.
          5    1    1    2  502    0  0.40034364194E+02 -0.29767783466E+02  0.89346859684E+03  0.89487008955E+03  0.41800000000E+01 0. -1.
         -5    1    1    2    0  502 -0.26135701602E+02 -0.37433062780E+02  0.13023070217E+03  0.13806454025E+03  0.41800000000E+01 0.  1.
        -11    1    3    3    0    0 -0.51657825033E+02  0.31886167190E+02  0.22393613830E+03  0.23201864705E+03  0.00000000000E+00 0.  1.
         11    1    3    3    0    0  0.37759162441E+02  0.35314679057E+02  0.26741599102E+03  0.27236775353E+03  0.00000000000E+00 0. -1.
</event>
<event>
 7    1  0.6988825E-006  0.1250477E+03  0.7561462E-02  0.1234995E+00
         -2   -1    0    0    0  501 -0.00000000000E+00  0.00000000000E+00  0.35855613649E+02  0.35855613649E+02  0.00000000000E+00 0.  1.
          2   -1    0    0  501    0  0.00000000000E+00 -0.00000000000E+00 -0.59025864466E+03  0.59025864466E+03  0.00000000000E+00 0. -1.
         23    2    1    2    0    0 -0.83879873313E+02  0.28091975387E+02 -0.16844803597E+03  0.21086296122E+03  0.90903549787E+02 0.  0.
          5    1    1    2  502    0  0.65184038701E+02 -0.71065711948E+02 -0.31995371011E+03  0.33419626468E+03  0.41800000000E+01 0. -1.
         -5    1    1    2    0  502  0.18695834612E+02  0.42973736560E+02 -0.66001284936E+02  0.81055032410E+02  0.41800000000E+01 0. -1.
        -11    1    3    3    0    0 -0.42980870376E+02  0.45033549488E+02 -0.37593747774E+02  0.72723212728E+02  0.00000000000E+00 0. -1.
         11    1    3    3    0    0 -0.40899002937E+02 -0.16941574100E+02 -0.13085428819E+03  0.13813974849E+03  0.00000000000E+00 0.  1.
</event>
<event>
 7    1  0.6988825E-006  0.1049280E+03  0.7561462E-02  0.1270262E+00
         -2   -1    0    0    0  501 -0.00000000000E+00  0.00000000000E+00  0.14089697732E+02  0.14089697732E+02  0.00000000000E+00 0.  1.
          2   -1    0    0  501    0  0.00000000000E+00 -0.00000000000E+00 -0.10760683993E+04  0.10760683993E+04  0.00000000000E+00 0. -1.
         23    2    1    2    0    0 -0.48090360170E+02 -0.30207115659E+01 -0.32757266632E+03  0.34361787073E+03  0.91910728026E+02 0.  0.
          5    1    1    2  502    0 -0.12950295944E+02  0.36483045383E+02 -0.86114682489E+02  0.94508908076E+02  0.41800000000E+01 0. -1.
         -5    1    1    2    0  502  0.61040656115E+02 -0.33462333817E+02 -0.64829135273E+03  0.65203131819E+03  0.41800000000E+01 0. -1.
        -11    1    3    3    0    0  0.15075926495E+02  0.27245345722E+02 -0.68526385473E+02  0.75269236274E+02  0.00000000000E+00 0.  1.
         11    1    3    3    0    0 -0.63166286666E+02 -0.30266057288E+02 -0.25904628084E+03  0.26834863445E+03  0.00000000000E+00 0. -1.
</event>
<event>
 7    1  0.6988825E-006  0.1274077E+03  0.7561462E-02  0.1231354E+00
         -1   -1    0    0    0  501 -0.00000000000E+00  0.00000000000E+00  0.38313816674E+02  0.38313816674E+02  0.00000000000E+00 0.  1.
          1   -1    0    0  501    0  0.00000000000E+00 -0.00000000000E+00 -0.57465430585E+03  0.57465430585E+03  0.00000000000E+00 0. -1.
         23    2    1    2    0    0 -0.94071548035E+02 -0.39578543153E+02 -0.25458910298E+03  0.28839863084E+03  0.89119255404E+02 0.  0.
          5    1    1    2  502    0  0.12582211683E+02  0.62179056892E+02 -0.60876703284E+02  0.88022682131E+02  0.41800000000E+01 0.  1.
         -5    1    1    2    0  502  0.81489336352E+02 -0.22600513738E+02 -0.22087468291E+03  0.23654680955E+03  0.41800000000E+01 0.  1.
        -11    1    3    3    0    0 -0.51045810282E+02 -0.48471142061E+01 -0.35314877459E+02  0.62260017936E+02  0.00000000000E+00 0.  1.
         11    1    3    3    0    0 -0.43025737753E+02 -0.34731428947E+02 -0.21927422553E+03  0.22613861290E+03  0.00000000000E+00 0. -1.
</event>
<event>
 7    1  0.6988825E-006  0.9305155E+02  0.7561462E-02  0.1295626E+00
          2   -1    0    0  501    0  0.00000000000E+00  0.00000000000E+00  0.10061270126E+03  0.10061270126E+03  0.00000000000E+00 0. -1.
         -2   -1    0    0    0  501 -0.00000000000E+00 -0.00000000000E+00 -0.12515554520E+03  0.12515554520E+03  0.00000000000E+00 0.  1.
         23    2    1    2    0    0 -0.20836628839E+02  0.15031196392E+02 -0.29453894043E+02  0.97976041545E+02  0.89842478128E+02 0.  0.
          5    1    1    2  502    0  0.65895499322E+01 -0.68101182719E+02 -0.13156805276E+02  0.69798045683E+02  0.41800000000E+01 0.  1.
         -5    1    1    2    0  502  0.14247078907E+02  0.53069986328E+02  0.18067855382E+02  0.57994159226E+02  0.41800000000E+01 0.  1.
        -11    1    3    3    0    0 -0.35656587070E+02 -0.65654137888E+01  0.20443020234E+02  0.41622276919E+02  0.00000000000E+00 0. -1.
         11    1    3    3    0    0  0.14819958231E+02  0.21596610180E+02 -0.49896914276E+02  0.56353764626E+02  0.00000000000E+00 0.  1.
</event>
<event>
 7    1  0.6988825E-006  0.6940508E+02  0.7561462E-02  0.1362128E+00
         -2   -1    0    0    0  501 -0.00000000000E+00  0.00000000000E+00  0.14457238100E+02  0.14457238100E+02  0.00000000000E+00 0.  1.
          2   -1    0    0  501    0  0.00000000000E+00 -0.00000000000E+00 -0.13702828029E+04  0.13702828029E+04  0.00000000000E+00 0. -1.
         23    2    1    2    0    0 -0.92394264921E+01  0.26502076020E+02 -0.19832392841E+03  0.22016077709E+03  0.91381946555E+02 0.  0.
          5    1    1    2  502    0  0.44256355796E+00 -0.32263282833E+02 -0.11511362009E+04  0.11515959103E+04  0.41800000000E+01 0.  1.
         -5    1    1    2    0  502  0.87968629342E+01  0.57612068125E+01 -0.63654355319E+01  0.12983353609E+02  0.41800000000E+01 0.  1.
        -11    1    3    3    0    0 -0.43155007546E+02 -0.10858032804E+02 -0.80364759883E+02  0.91862648469E+02  0.00000000000E+00 0.  1.
         11    1    3    3    0    0  0.33915581054E+02  0.37360108824E+02 -0.11795916852E+03  0.12829812862E+03  0.00000000000E+00 0. -1.
</event>
<event>
 7    1  0.6988825E-006  0.1196131E+03  0.7561462E-02  0.1243737E+00
         -1   -1    0    0    0  501 -0.00000000000E+00  0.00000000000E+00  0.99386961779E+02  0.99386961779E+02  0.00000000000E+00 0.  1.
          1   -1    0    0  501    0  0.00000000000E+00 -0.00000000000E+00 -0.16586025005E+03  0.16586025005E+03  0.00000000000E+00 0. -1.
         23    2    1    2    0    0 -0.49459505578E+02  0.92544860978E+01  0.13536559701E+02  0.10842897824E+03  0.95087941768E+02 0.  0.
          5    1    1    2  502    0  0.29018949045E+02 -0.66619832028E+02 -0.53163246887E+02  0.90133815201E+02  0.41800000000E+01 0.  1.
         -5    1    1    2    0  502  0.20440556533E+02  0.57365345931E+02 -0.26846601083E+02  0.66684418381E+02  0.41800000000E+01 0.  1.
        -11    1    3    3    0    0  0.76886652218E+01  0.39843822264E+02 -0.53099290384E+01  0.40924822442E+02  0.00000000000E+00 0. -1.
         11    1    3    3    0    0 -0.57148170800E+02 -0.30589336166E+02  0.18846488739E+02  0.67504155803E+02  0.00000000000E+00 0.  1.
</event>
<event>
 7    1  0.6988825E-006  0.7070595E+02  0.7561462E-02  0.1357709E+00
         -2   -1    0    0    0  501 -0.00000000000E+00  0.00000000000E+00  0.95228730150E+02  0.95228730150E+02  0.00000000000E+00 0.  1.
          2   -1    0    0  501    0  0.00000000000E+00 -0.00000000000E+00 -0.13122895252E+03  0.13122895252E+03  0.00000000000E+00 0. -1.
         23    2    1    2    0    0 -0.11035638834E+02 -0.27111987775E+02 -0.75114035184E+01  0.94867309138E+02  0.89925190879E+02 0.  0.
          5    1    1    2  502    0 -0.36573033065E+02  0.22469289683E+02 -0.60195179799E+02  0.74049900726E+02  0.41800000000E+01 0.  1.
         -5    1    1    2    0  502  0.47608671899E+02  0.46426980915E+01  0.31706360951E+02  0.57540472803E+02  0.41800000000E+01 0.  1.
        -11    1    3    3    0    0 -0.23407956287E+02 -0.29509023019E+02 -0.43025715364E+02  0.57183275874E+02  0.00000000000E+00 0. -1.
         11    1    3    3    0    0  0.12372317454E+02  0.23970352445E+01  0.35514311846E+02  0.37684033264E+02  0.00000000000E+00 0.  1.
</event>
<event>
 7    1  0.6988825E-006  0.1080642E+03  0.7561462E-02  0.1264197E+00
         -1   -1    0    0    0  501 -0.00000000000E+00  0.00000000000E+00  0.12719013105E+02  0.12719013105E+02  0.00000000000E+00 0.  1.
          1   -1    0    0  501    0  0.00000000000E+00 -0.00000000000E+00 -0.12657155011E+04  0.12657155011E+04  0.00000000000E+00 0. -1.
         23    2    1    2    0    0  0.26254626691E+02  0.22130332223E+02 -0.26865853129E+03  0.28591897699E+03  0.91614398098E+02 0.  0.
          5    1    1    2  502    0  0.46204548535E+02 -0.68026765486E+01 -0.24354018860E+03  0.24801296857E+03  0.41800000000E+01 0. -1.
         -5    1    1    2    0  502 -0.72459175226E+02 -0.15327655674E+02 -0.74079776807E+03  0.74450256862E+03  0.41800000000E+01 0.  1.
        -11    1    3    3    0    0  0.43045234490E+02 -0.21639767941E+02 -0.16989058191E+03  0.17658986832E+03  0.00000000000E+00 0. -1.
         11    1    3    3    0    0 -0.16790607799E+02  0.43770100164E+02 -0.98767949379E+02  0.10932910867E+03  0.00000000000E+00 0.  1.
</event>
<event>
 7    1  0.6988825E-006  0.1037748E+03  0.7561462E-02  0.1272553E+00
          2   -1    0    0  501    0  0.00000000000E+00  0.00000000000E+00  0.77914351107E+02  0.77914351107E+02  0.00000000000E+00 0. -1.
         -2   -1    0    0    0  501 -0.00000000000E+00 -0.00000000000E+00 -0.19021698100E+03  0.19021698100E+03  0.00000000000E+00 0.  1.
         23    2    1    2    0    0  0.33893933677E+02 -0.12146671511E+02 -0.93931285222E+02  0.13667481318E+03  0.92523390797E+02 0.  0.
          5    1    1    2  502    0 -0.50059832187E+02 -0.39991142201E+02 -0.36411716994E+02  0.73814387402E+02  0.41800000000E+01 0. -1.
         -5    1    1    2    0  502  0.16165898510E+02  0.52137813712E+02  0.18040372325E+02  0.57642131526E+02  0.41800000000E+01 0. -1.
        -11    1    3    3    0    0  0.12220850373E+02  0.34801739025E+02 -0.10210323570E+02  0.38272195265E+02  0.00000000000E+00 0. -1.
         11    1    3    3    0    0  0.21673083304E+02 -0.46948410536E+02 -0.83720961652E+02  0.98402617911E+02  0.00000000000E+00 0.  1.
</event>
<event>
 7    1  0.6988825E-006  0.8979943E+02  0.7561462E-02  0.1303338E+00
         -2   -1    0    0    0  501 -0.00000000000E+00  0.00000000000E+00  0.56649502278E+02  0.56649502278E+02  0.00000000000E+00 0.  1.
          2   -1    0    0  501    0  0.00000000000E+00 -0.00000000000E+00 -0.20551724401E+03  0.20551724401E+03  0.00000000000E+00 0. -1.
         23    2    1    2    0    0  0.12497520895E+02  0.18131111774E+02 -0.50617915463E+02  0.10158801222E+03  0.85282035726E+02 0.  0.
          5    1    1    2  502    0 -0.43330956398E+02 -0.58694987020E+02 -0.40873136630E+02  0.83730275179E+02  0.41800000000E+01 0.  1.
         -5    1    1    2    0  502  0.30833435503E+02  0.40563875246E+02 -0.57376689636E+02  0.76848458888E+02  0.41800000000E+01 0.  1.
        -11    1    3    3    0    0  0.32169233231E+02  0.14944322880E+02  0.10751058422E+02  0.37064506070E+02  0.00000000000E+00 0.  1.
         11    1    3    3    0    0 -0.19671712337E+02  0.31867888941E+01 -0.61368973885E+02  0.64523506147E+02  0.00000000000E+00 0. -1.
</event>
<event>
 7    1  0.6988825E-006  0.1437572E+03  0.7561462E-02  0.1208361E+00
         -1   -1    0    0    0  501 -0.00000000000E+00  0.00000000000E+00  0.43498016436E+02  0.43498016436E+02  0.00000000000E+00 0.  1.
          1   -1    0    0  501    0  0.00000000000E+00 -0.00000000000E+00 -0.74980029308E+03  0.74980029308E+03  0.00000000000E+00 0. -1.
         23    2    1    2    0    0 -0.27907518557E+02  0.11957777138E+03 -0.16521477981E+03  0.22452739164E+03  0.89660209299E+02 0.  0.
          5    1    1    2  502    0  0.40203649280E+02 -0.47727363655E+02 -0.43801345798E+03  0.44245620848E+03  0.41800000000E+01 0. -1.
         -5    1    1    2    0  502 -0.12296130723E+02 -0.71850407724E+02 -0.10307403886E+03  0.12631470939E+03  0.41800000000E+01 0. -1.
        -11    1    3    3    0    0 -0.60576748730E+02  0.69868317351E+02 -0.10419664972E+03  0.13931283526E+03  0.00000000000E+00 0.  1.
         11    1    3    3    0    0  0.32669230172E+02  0.49709454029E+02 -0.61018130092E+02  0.85214556385E+02  0.00000000000E+00 0. -1.
</event>
<event>
 7    1  0.6988825E-006  0.5066096E+02  0.7561462E-02  0.1441809E+00
         -1   -1    0    0    0  501 -0.00000000000E+00  0.00000000000E+00  0.40372123214E+02  0.40372123214E+02  0.00000000000E+00 0.  1.
          1   -1    0    0  501    0  0.00000000000E+00 -0.00000000000E+00 -0.76383870395E+03  0.76383870395E+03  0.00000000000E+00 0. -1.
         23    2    1    2    0    0 -0.26749634377E+02  0.77622599562E+01 -0.26591449205E+02  0.95421597932E+02  0.87306245837E+02 0.  0.
          5    1    1    2  502    0  0.48512710274E+01  0.24077686840E+02 -0.23358752736E+02  0.34152211693E+02  0.41800000000E+01 0.  1.
         -5    1    1    2    0  502  0.21898363350E+02 -0.31839946796E+02 -0.67351637879E+03  0.67463701754E+03  0.41800000000E+01 0. -1.
        -11    1    3    3    0    0 -0.21223607915E+02  0.16716370083E+02 -0.57089630686E+02  0.63159357925E+02  0.00000000000E+00 0. -1.
         11    1    3    3    0    0 -0.55260264622E+01 -0.89541101265E+01  0.30498181481E+02  0.32262240007E+02  0.00000000000E+00 0.  1.
</event>
<event>
 7    1  0.6988825E-006  0.1468369E+03  0.7561462E-02  0.1204415E+00
         -1   -1    0    0    0  501 -0.00000000000E+00  0.00000000000E+00  0.26905209197E+02  0.26905209197E+02  0.00000000000E+00 0.  1.
          1   -1    0    0  501    0  0.00000000000E+00 -0.00000000000E+00 -0.98407935077E+03  0.98407935077E+03  0.00000000000E+00 0. -1.
         23    2    1    2    0    0 -0.67657435134E+02  0.99272460966E+02 -0.48197761742E+03  0.50512677885E+03  0.91750144333E+02 0.  0.
          5    1    1    2  502    0 -0.40354161880E+01 -0.62107704731E+02 -0.35848303474E+03  0.36386977089E+03  0.41800000000E+01 0.  1.
         -5    1    1    2    0  502  0.71692851322E+02 -0.37164756235E+02 -0.11671348941E+03  0.14198801023E+03  0.41800000000E+01 0.  1.
        -11    1    3    3    0    0 -0.24081678609E+02 -0.14837989306E+02 -0.11151901267E+03  0.11505035141E+03  0.00000000000E+00 0. -1.
         11    1    3    3    0    0 -0.43575756525E+02  0.11411045027E+03 -0.37045860474E+03  0.39007642744E+03  0.00000000000E+00 0.  1.
</event>
<event>
 7    1  0.6988825E-006  0.1099091E+03  0.7561462E-02  0.1260738E+00
         -1   -1    0    0    0  501 -0.00000000000E+00  0.00000000000E+00  0.81680481079E+02  0.81680481079E+02  0.00000000000E+00 0.  1.
          1   -1    0    0  501    0  0.00000000000E+00 -0.00000000000E+00 -0.25778428024E+03  0.25778428024E+03  0.00000000000E+00 0. -1.
         23    2    1    2    0    0  0.40903817228E+02  0.18559278803E+02  0.19433021501E+02  0.10303461696E+03  0.90669293994E+02 0.  0.
          5    1    1    2  502    0  0.39579636354E+02 -0.26790475390E+02 -0.10179054767E+03  0.11253028561E+03  0.41800000000E+01 0. -1.
         -5    1    1    2    0  502 -0.80483453582E+02  0.82311965869E+01 -0.93746272992E+02  0.12389985875E+03  0.41800000000E+01 0. -1.
        -11    1    3    3    0    0  0.20703624518E+02  0.49627279528E+02  0.33548261042E+02  0.63379750398E+02  0.00000000000E+00 0.  1.
         11    1    3    3    0    0  0.20200192710E+02 -0.31068000725E+02 -0.14115239542E+02  0.39654866560E+02  0.00000000000E+00 0. -1.
</event>
<event>
 7    1  0.6988825E-006  0.1086030E+03  0.7561462E-02  0.1263179E+00
          1   -1    0    0  501    0  0.00000000000E+00  0.00000000000E+00  0.33475731903E+03  0.33475731903E+03  0.00000000000E+00 0. -1.
         -1   -1    0    0    0  501 -0.00000000000E+00 -0.00000000000E+00 -0.39902046673E+02  0.39902046673E+02  0.00000000000E+00 0.  1.
         23    2    1    2    0    0  0.18717590670E+02 -0.28861234938E+02  0.10053259972E+03  0.14101101900E+03  0.92703747435E+02 0.  0.
          5    1    1    2  502    0  0.46537256162E+02 -0.77691200230E+01  0.11572533429E+03  0.12504359574E+03  0.41800000000E+01 0.  1.
         -5    1    1    2    0  502 -0.65254846832E+02  0.36630354961E+02  0.78597338340E+02  0.10860475097E+03  0.41800000000E+01 0.  1.
        -11    1    3    3    0    0  0.17354768141E+02 -0.60643955785E+02  0.84328460507E+02  0.10530985995E+03  0.00000000000E+00 0. -1.
         11    1    3    3    0    0  0.13628225297E+01  0.31782720847E+02  0.16204139216E+02  0.35701159049E+02  0.00000000000E+00 0.  1.
</event>
<event>
 7    1  0.6988825E-006  0.1478735E+03  0.7561462E-02  0.1203111E+00
          1   -1    0    0  501    0  0.00000000000E+00  0.00000000000E+00  0.81249239832E+03  0.81249239832E+03  0.00000000000E+00 0. -1.
         -1   -1    0    0    0  501 -0.00000000000E+00 -0.00000000000E+00 -0.32271706607E+02  0.32271706607E+02  0.00000000000E+00 0.  1.
         23    2    1    2    0    0 -0.52611692151E+02  0.91915482166E+02  0.21190499432E+03  0.25328589010E+03  0.89630181806E+02 0.  0.
          5    1    1    2  502    0 -0.29717238087E+01  0.29505314049E+02  0.89868587858E+02  0.94727135411E+02  0.41800000000E+01 0. -1.
         -5    1    1    2    0  502  0.55583415960E+02 -0.12142079622E+03  0.47844710954E+03  0.49675107942E+03  0.41800000000E+01 0. -1.
        -11    1    3    3    0    0 -0.59343744405E+02  0.24106705012E+02  0.64544447273E+02  0.90932936280E+02  0.00000000000E+00 0.  1.
         11    1    3    3    0    0  0.67320522541E+01  0.67808777154E+02  0.14736054705E+03  0.16235295382E+03  0.00000000000E+00 0. -1.
</event>
<event>
 7    1  0.6988825E-006  0.1782204E+03  0.7561462E-02  0.1169537E+00
         -1   -1    0    0    0  501 -0.00000000000E+00  0.00000000000E+00  0.26386291456E+02  0.26386291456E+02  0.00000000000E+00 0.  1.
          1   -1    0    0  501    0  0.00000000000E+00 -0.00000000000E+00 -0.15122248469E+04  0.15122248469E+04  0.00000000000E+00 0. -1.
         23    2    1    2    0    0  0.55639627916E+02 -0.14577619408E+03 -0.47350276019E+03  0.50671149538E+03  0.90582607012E+02 0.  0.
          5    1    1    2  502    0 -0.56615311817E+00 -0.21239725246E+02 -0.17134546319E+03  0.17270838606E+03  0.41800000000E+01 0.  1.
         -5    1    1    2    0  502 -0.55073474798E+02  0.16701591933E+03 -0.84099033206E+03  0.85919125691E+03  0.41800000000E+01 0.  1.
        -11    1    3    3    0    0  0.37919887909E+02 -0.57778409070E+02 -0.33216214955E+03  0.33927563432E+03  0.00000000000E+00 0. -1.
         11    1    3    3    0    0  0.17719740007E+02 -0.87997785012E+02 -0.14134061064E+03  0.16743586106E+03  0.00000000000E+00 0.  1.
</event>
<event>
 7    1  0.6988825E-006  0.1119936E+03  0.7561462E-02  0.1256922E+00
          2   -1    0    0  501    0  0.00000000000E+00  0.00000000000E+00  0.23857785142E+04  0.23857785142E+04  0.00000000000E+00 0.  1.
         -2   -1    0    0    0  501 -0.00000000000E+00 -0.00000000000E+00 -0.33864555419E+02  0.33864555419E+02  0.00000000000E+00 0. -1.
         23    2    1    2    0    0 -0.10003410532E+03  0.82989799339E+01  0.10972455753E+03  0.17172499584E+03  0.85873746725E+02 0.  0.
          5    1    1    2  502    0  0.36509186028E+01  0.14984169852E+02  0.13711561410E+04  0.13712492443E+04  0.41800000000E+01 0.  1.
         -5    1    1    2    0  502  0.96383186712E+02 -0.23283149786E+02  0.87103326027E+03  0.87666882952E+03  0.41800000000E+01 0.  1.
        -11    1    3    3    0    0 -0.64796429042E+02  0.25399382598E+02  0.11268575483E+03  0.13244540458E+03  0.00000000000E+00 0.  1.
         11    1    3    3    0    0 -0.35237676273E+02 -0.17100402664E+02 -0.29611972940E+01  0.39279591263E+02  0.00000000000E+00 0. -1.
</event>
<event>
 7    1  0.6988825E-006  0.1284009E+03  0.7561462E-02  0.1229848E+00
         -1   -1    0    0    0  501 -0.00000000000E+00  0.00000000000E+00  0.47820124907E+02  0.47820124907E+02  0.00000000000E+00 0.  1.
          1   -1    0    0  501    0  0.00000000000E+00 -0.00000000000E+00 -0.38009518725E+03  0.38009518725E+03  0.00000000000E+00 0. -1.
         23    2    1    2    0    0 -0.91755645536E+02 -0.13315128451E+02 -0.16289199323E+03  0.19784220458E+03  0.63335182335E+02 0.  0.
          5    1    1    2  502    0  0.94077388178E+01  0.58071048809E+02 -0.44527653626E+02  0.73898150159E+02  0.41800000000E+01 0. -1.
         -5    1    1    2    0  502  0.82347906718E+02 -0.44755920358E+02 -0.12485541549E+03  0.15617495742E+03  0.41800000000E+01 0. -1.
        -11    1    3    3    0    0 -0.45816544691E+02 -0.30410842690E+02 -0.48237751204E+02  0.73149543825E+02  0.00000000000E+00 0.  1.
         11    1    3    3    0    0 -0.45939100845E+02  0.17095714240E+02 -0.11465424202E+03  0.12469266075E+03  0.00000000000E+00 0. -1.
</event>
<event>
 7    1  0.6988825E-006  0.1353174E+03  0.7561462E-02  0.1219772E+00
          3   -1    0    0  501    0  0.00000000000E+00  0.00000000000E+00  0.13711881146E+04  0.13711881146E+04  0.00000000000E+00 0. -1.
         -3   -1    0    0    0  501 -0.00000000000E+00 -0.00000000000E+00 -0.15292605058E+02  0.15292605058E+02  0.00000000000E+00 0.  1.
         23    2    1    2    0    0  0.62175271097E+02  0.52224272343E+02  0.38054913258E+03  0.39979946635E+03  0.91808670764E+02 0.  0.
          5    1    1    2  502    0 -0.92786824375E+02 -0.67240716517E+02  0.76618512312E+03  0.77471789964E+03  0.41800000000E+01 0. -1.
         -5    1    1    2    0  502  0.30611553278E+02  0.15016444174E+02  0.20916125389E+03  0.21196335371E+03  0.41800000000E+01 0. -1.
        -11    1    3    3    0    0  0.56254924403E+02  0.77440052572E+02  0.31820107385E+03  0.33228527151E+03  0.00000000000E+00 0. -1.
         11    1    3    3    0    0  0.59203466941E+01 -0.25215780229E+02  0.62348058725E+02  0.67514194836E+02  0.00000000000E+00 0.  1.
</event>
<event>
 7    1  0.6988825E-006  0.1061495E+03  0.7561462E-02  0.1267871E+00
         -2   -1    0    0    0  501 -0.00000000000E+00  0.00000000000E+00  0.29742485401E+02  0.29742485401E+02  0.00000000000E+00 0. -1.
          2   -1    0    0  501    0  0.00000000000E+00 -0.00000000000E+00 -0.80899919678E+03  0.80899919678E+03  0.00000000000E+00 0.  1.
         23    2    1    2    0    0  0.52088001473E+02 -0.37908043560E+02 -0.12497052278E+03  0.16949734069E+03  0.94665396395E+02 0.  0.
          5    1    1    2  502    0  0.29630900841E+02  0.47998788391E+02 -0.21678246680E+03  0.22404013990E+03  0.41800000000E+01 0. -1.
         -5    1    1    2    0  502 -0.81718902315E+02 -0.10090744830E+02 -0.43750372180E+03  0.44520420159E+03  0.41800000000E+01 0. -1.
        -11    1    3    3    0    0  0.19736297299E+02 -0.35788321367E+02 -0.13037333304E+03  0.13662917458E+03  0.00000000000E+00 0.  1.
         11    1    3    3    0    0  0.32351704175E+02 -0.21197221937E+01  0.54028102623E+01  0.32868166118E+02  0.00000000000E+00 0. -1.
</event>
<event>
 7    1  0.6988825E-006  0.1083652E+03  0.7561462E-02  0.1263627E+00
          2   -1    0    0  501    0  0.00000000000E+00  0.00000000000E+00  0.15106886892E+04  0.15106886892E+04  0.00000000000E+00 0. -1.
         -2   -1    0    0    0  501 -0.00000000000E+00 -0.00000000000E+00 -0.94833176066E+01  0.94833176066E+01  0.00000000000E+00 0.  1.
         23    2    1    2    0    0 -0.12446573164E+01 -0.18142175613E+02  0.36681420001E+03  0.37875950114E+03  0.92603534829E+02 0.  0.
          5    1    1    2  502    0  0.59876661394E+02 -0.71655887021E+01  0.45137858180E+03  0.45540823088E+03  0.41800000000E+01 0. -1.
         -5    1    1    2    0  502 -0.58632004078E+02  0.25307764315E+02  0.68301258974E+03  0.68600427475E+03  0.41800000000E+01 0. -1.
        -11    1    3    3    0    0 -0.30113216419E+02 -0.44140985337E+02  0.17198641892E+03  0.18009597631E+03  0.00000000000E+00 0.  1.
         11    1    3    3    0    0  0.28868559102E+02  0.25998809725E+02  0.19482778110E+03  0.19866352483E+03  0.00000000000E+00 0. -1.
</event>
<event>
 7    1  0.6988825E-006  0.1389403E+03  0.7561462E-02  0.1214762E+00
          1   -1    0    0  501    0  0.00000000000E+00  0.00000000000E+00  0.30011147495E+03  0.30011147495E+03  0.00000000000E+00 0. -1.
         -1   -1    0    0    0  501 -0.00000000000E+00 -0.00000000000E+00 -0.67892809194E+02  0.67892809194E+02  0.00000000000E+00 0.  1.
         23    2    1    2    0    0 -0.90798458351E+02 -0.47069413874E+01  0.78776616283E+02  0.15015716592E+03  0.89860468877E+02 0.  0.
          5    1    1    2  502    0 -0.10985480106E+01  0.49949870244E+02  0.34696164914E+02  0.60971244082E+02  0.41800000000E+01 0. -1.
         -5    1    1    2    0  502  0.91897006361E+02 -0.45242928856E+02  0.11874588456E+03  0.15687587415E+03  0.41800000000E+01 0. -1.
        -11    1    3    3    0    0  0.14784956102E+02  0.11073718038E+02  0.18342627373E+01  0.18563046030E+02  0.00000000000E+00 0.  1.
         11    1    3    3    0    0 -0.10558341445E+03 -0.15780659426E+02  0.76942353545E+02  0.13159411989E+03  0.00000000000E+00 0. -1.
</event>
<event>
 7    1  0.6988825E-006  0.1603166E+03  0.7561462E-02  0.1188340E+00
         -3   -1    0    0    0  501 -0.00000000000E+00  0.00000000000E+00  0.11775860328E+03  0.11775860328E+03  0.00000000000E+00 0.  1.
          3   -1    0    0  501    0  0.00000000000E+00 -0.00000000000E+00 -0.25926236340E+03  0.25926236340E+03  0.00000000000E+00 0. -1.
         23    2    1    2    0    0 -0.12604063295E+03 -0.52752772696E+02 -0.61316841111E+02  0.17516689526E+03  0.90854774283E+02 0.  0.
          5    1    1    2  502    0  0.14727151044E+03  0.29505651546E+02 -0.79712499717E+02  0.17009125866E+03  0.41800000000E+01 0.  1.
         -5    1    1    2    0  502 -0.21230877490E+02  0.23247121150E+02 -0.47441929125E+00  0.31762812760E+02  0.41800000000E+01 0.  1.
        -11    1    3    3    0    0 -0.79676754306E+02 -0.45313320872E+02 -0.82806971215E+02  0.12352601632E+03  0.00000000000E+00 0. -1.
         11    1    3    3    0    0 -0.46363878642E+02 -0.74394518239E+01  0.21490130103E+02  0.51640878943E+02  0.00000000000E+00 0.  1.
</event>
<event>
 7    1  0.6988825E-006  0.1081281E+03  0.7561462E-02  0.1264076E+00
          2   -1    0    0  501    0  0.00000000000E+00  0.00000000000E+00  0.99005411489E+03  0.99005411489E+03  0.00000000000E+00 0. -1.
         -2   -1    0    0    0  501 -0.00000000000E+00 -0.00000000000E+00 -0.15579611290E+03  0.15579611290E+03  0.00000000000E+00 0.  1.
         23    2    1    2    0    0  0.28611553884E+02 -0.15996777275E+02 -0.13650921786E+03  0.16617641789E+03  0.88911851878E+02 0.  0.
          5    1    1    2  502    0  0.50903126520E+02  0.86706651728E+01  0.37053657053E+03  0.37414052337E+03  0.41800000000E+01 0. -1.
         -5    1    1    2    0  502 -0.79514680404E+02  0.73261121020E+01  0.60023064932E+03  0.60553328653E+03  0.41800000000E+01 0.  1.
        -11    1    3    3    0    0  0.46609029378E+02  0.14729366346E+02 -0.11403082084E+03  0.12406604674E+03  0.00000000000E+00 0.  1.
         11    1    3    3    0    0 -0.17997475493E+02 -0.30726143620E+02 -0.22478397017E+02  0.42110371150E+02  0.00000000000E+00 0. -1.
</event>
<event>
 7    1  0.6988825E-006  0.9036310E+02  0.7561462E-02  0.1301975E+00
          2   -1    0    0  501    0  0.00000000000E+00  0.00000000000E+00  0.10272617240E+04  0.10272617240E+04  0.00000000000E+00 0. -1.
         -2   -1    0    0    0  501 -0.00000000000E+00 -0.00000000000E+00 -0.12018131517E+02  0.12018131517E+02  0.00000000000E+00 0.  1.
         23    2    1    2    0    0  0.17203835421E+02 -0.16588404999E+02  0.40751641916E+03  0.41835164986E+03  0.91527722184E+02 0.  0.
          5    1    1    2  502    0  0.20612734138E+02  0.39663003330E+02  0.52566234674E+03  0.52757597920E+03  0.41800000000E+01 0. -1.
         -5    1    1    2    0  502 -0.37816569559E+02 -0.23074598332E+02  0.82064826544E+02  0.93352226418E+02  0.41800000000E+01 0. -1.
        -11    1    3    3    0    0 -0.34342421343E+02 -0.19883287609E+02  0.12484950941E+03  0.13100437790E+03  0.00000000000E+00 0.  1.
         11    1    3    3    0    0  0.51546256763E+02  0.32948826106E+01  0.28266690974E+03  0.28734727196E+03  0.00000000000E+00 0. -1.
</event>
<event>
 7    1  0.6988825E-006  0.1651858E+03  0.7561462E-02  0.1182963E+00
          1   -1    0    0  501    0  0.00000000000E+00  0.00000000000E+00  0.93262670032E+03  0.93262670032E+03  0.00000000000E+00 0.  1.
         -1   -1    0    0    0  501 -0.00000000000E+00 -0.00000000000E+00 -0.34366214668E+02  0.34366214668E+02  0.00000000000E+00 0. -1.
         23    2    1    2    0    0  0.12276009191E+03  0.66628891176E+02  0.49165763916E+03  0.51924042847E+03  0.91509229655E+02 0.  0.
          5    1    1    2  502    0 -0.14442871917E+03 -0.74050228052E+02  0.37369218168E+03  0.40743884234E+03  0.41800000000E+01 0. -1.
         -5    1    1    2    0  502  0.21668627264E+02  0.74213368764E+01  0.32910664812E+02  0.40313644178E+02  0.41800000000E+01 0. -1.
        -11    1    3    3    0    0  0.16850724219E+02  0.26640569452E+02  0.28659858469E+02  0.42603454495E+02  0.00000000000E+00 0. -1.
         11    1    3    3    0    0  0.10590936769E+03  0.39988321724E+02  0.46299778069E+03  0.47663697397E+03  0.00000000000E+00 0.  1.
</event>
<event>
 7    1  0.6988825E-006  0.1161431E+03  0.7561462E-02  0.1249599E+00
         -1   -1    0    0    0  501 -0.00000000000E+00  0.00000000000E+00  0.81634185342E+02  0.81634185342E+02  0.00000000000E+00 0.  1.
          1   -1    0    0  501    0  0.00000000000E+00 -0.00000000000E+00 -0.33426018640E+03  0.33426018640E+03  0.00000000000E+00 0. -1.
         23    2    1    2    0    0  0.84823849827E+02 -0.37277100799E+02 -0.25367890718E+02  0.13322309117E+03  0.92304899108E+02 0.  0.
          5    1    1    2  502    0 -0.98282318382E+02  0.58234484079E+02 -0.23042030508E+03  0.25721908684E+03  0.41800000000E+01 0. -1.
         -5    1    1    2    0  502  0.13458468555E+02 -0.20957383280E+02  0.31621947405E+01  0.25452193724E+02  0.41800000000E+01 0.  1.
        -11    1    3    3    0    0  0.53164755407E+02 -0.25144369141E+02  0.31724881572E+02  0.66822141748E+02  0.00000000000E+00 0.  1.
         11    1    3    3    0    0  0.31659094419E+02 -0.12132731659E+02 -0.57092772291E+02  0.66400949427E+02  0.00000000000E+00 0. -1.
</event>
<event>
 7    1  0.6988825E-006  0.1019538E+03  0.7561462E-02  0.1276240E+00
         -1   -1    0    0    0  501 -0.00000000000E+00  0.00000000000E+00  0.39258179205E+03  0.39258179205E+03  0.00000000000E+00 0.  1.
          1   -1    0    0  501    0  0.00000000000E+00 -0.00000000000E+00 -0.55790111822E+02  0.55790111822E+02  0.00000000000E+00 0. -1.
         23    2    1    2    0    0 -0.64660958221E+02 -0.70074762777E+02  0.18048097042E+03  0.22662123808E+03  0.98449443709E+02 0.  0.
          5    1    1    2  502    0  0.26408188473E+02 -0.11641856229E+01  0.13554629639E+03  0.13816301463E+03  0.41800000000E+01 0.  1.
         -5    1    1    2    0  502  0.38252769748E+02  0.71238948400E+02  0.20764413412E+02  0.83587651163E+02  0.41800000000E+01 0.  1.
        -11    1    3    3    0    0 -0.88998640266E+01 -0.17035722194E+02 -0.96494228568E+01  0.21506621581E+02  0.00000000000E+00 0. -1.
         11    1    3    3    0    0 -0.55761094194E+02 -0.53039040583E+02  0.19013039328E+03  0.20511461650E+03  0.00000000000E+00 0.  1.
</event>
<event>
 7    1  0.6988825E-006  0.9632708E+02  0.7561462E-02  0.1288215E+00
          1   -1    0    0  501    0  0.00000000000E+00  0.00000000000E+00  0.84998833165E+03  0.84998833165E+03  0.00000000000E+00 0. -1.
         -1   -1    0    0    0  501 -0.00000000000E+00 -0.00000000000E+00 -0.25918583232E+02  0.25918583232E+02  0.00000000000E+00 0.  1.
         23    2    1    2    0    0  0.32318672239E+02  0.12461067504E+02  0.87872880512E+02  0.13066683074E+03  0.90290657035E+02 0.  0.
          5    1    1    2  502    0 -0.67373641359E+02  0.17140760292E+02  0.45110269733E+03  0.45644729066E+03  0.41800000000E+01 0. -1.
         -5    1    1    2    0  502  0.35054969120E+02 -0.29601827795E+02  0.28509417058E+03  0.28879279348E+03  0.41800000000E+01 0.  1.
        -11    1    3    3    0    0  0.53936240201E+02  0.54491726562E+01  0.92742812249E+02  0.10742458151E+03  0.00000000000E+00 0.  1.
         11    1    3    3    0    0 -0.21617567963E+02  0.70118948474E+01 -0.48699317378E+01  0.23242249226E+02  0.00000000000E+00 0. -1.
</event>
<event>
 7    1  0.6988825E-006  0.8409401E+02  0.7561462E-02  0.1317819E+00
          2   -1    0    0  501    0  0.00000000000E+00  0.00000000000E+00  0.53278219940E+03  0.53278219940E+03  0.00000000000E+00 0. -1.
         -2   -1    0    0    0  501 -0.00000000000E+00 -0.00000000000E+00 -0.31466437970E+02  0.31466437970E+02  0.00000000000E+00 0.  1.
         23    2    1    2    0    0 -0.37510560405E+02 -0.57528206530E+02  0.17994646085E+03  0.21262024735E+03  0.90056116523E+02 0.  0.
          5    1    1    2  502    0  0.44119316436E+02  0.51051645954E+02  0.33088039377E+03  0.33771599314E+03  0.41800000000E+01 0.  1.
         -5    1    1    2    0  502 -0.66087560303E+01  0.64765605759E+01 -0.95110931940E+01  0.13912396879E+02  0.41800000000E+01 0.  1.
        -11    1    3    3    0    0 -0.23429664610E+02 -0.68617645501E+02  0.18067585894E+03  0.19468203939E+03  0.00000000000E+00 0. -1.
         11    1    3    3    0    0 -0.14080895796E+02  0.11089438971E+02 -0.72939809535E+00  0.17938207956E+02  0.00000000000E+00 0.  1.
</event>
<event>
 7    1  0.6988825E-006  0.5766806E+02  0.7561462E-02  0.1407887E+00
          1   -1    0    0  501    0  0.00000000000E+00  0.00000000000E+00  0.67346120016E+02  0.67346120016E+02  0.00000000000E+00 0. -1.
         -1   -1    0    0    0  501 -0.00000000000E+00 -0.00000000000E+00 -0.19053107230E+03  0.19053107230E+03  0.00000000000E+00 0.  1.
         23    2    1    2    0    0 -0.13994680679E+02 -0.10248437831E+02 -0.57578027871E+02  0.11556684508E+03  0.98689334899E+02 0.  0.
          5    1    1    2  502    0  0.39840260236E-02  0.77152330810E+01 -0.10233215307E+03  0.10270767639E+03  0.41800000000E+01 0.  1.
         -5    1    1    2    0  502  0.13990696653E+02  0.25332047504E+01  0.36725228652E+02  0.39602670853E+02  0.41800000000E+01 0.  1.
        -11    1    3    3    0    0  0.88689479653E+01 -0.47343107375E+02 -0.53211429187E+02  0.71773840987E+02  0.00000000000E+00 0.  1.
         11    1    3    3    0    0 -0.22863628644E+02  0.37094669544E+02 -0.43665986843E+01  0.43793004092E+02  0.00000000000E+00 0. -1.
</event>
<event>
 7    1  0.6988825E-006  0.1297331E+03  0.7561462E-02  0.1227852E+00
         -2   -1    0    0    0  501 -0.00000000000E+00  0.00000000000E+00  0.43351870478E+03  0.43351870478E+03  0.00000000000E+00 0.  1.
          2   -1    0    0  501    0  0.00000000000E+00 -0.00000000000E+00 -0.50414076210E+02  0.50414076210E+02  0.00000000000E+00 0. -1.
         23    2    1    2    0    0  0.36577700043E+02 -0.84734291921E+02  0.14203295488E+03  0.19707183600E+03  0.10072794998E+03 0.  0.
          5    1    1    2  502    0 -0.72331728289E+02  0.49521790693E+02  0.82364010951E+02  0.12035609403E+03  0.41800000000E+01 0.  1.
         -5    1    1    2    0  502  0.35754028246E+02  0.35212501228E+02  0.15870766274E+03  0.16650485095E+03  0.41800000000E+01 0.  1.
        -11    1    3    3    0    0  0.56494502975E+02 -0.84236978869E+02  0.14497487390E+03  0.17693278819E+03  0.00000000000E+00 0.  1.
         11    1    3    3    0    0 -0.19916802932E+02 -0.49731305223E+00 -0.29419190188E+01  0.20139047813E+02  0.00000000000E+00 0. -1.
</event>
<event>
 7    1  0.6988825E-006  0.8961606E+02  0.7561462E-02  0.1303784E+00
          1   -1    0    0  501    0  0.00000000000E+00  0.00000000000E+00  0.11403605210E+03  0.11403605210E+03  0.00000000000E+00 0. -1.
         -1   -1    0    0    0  501 -0.00000000000E+00 -0.00000000000E+00 -0.10807231075E+03  0.10807231075E+03  0.00000000000E+00 0.  1.
         23    2    1    2    0    0  0.20068921044E+02  0.15115600334E+02 -0.24613086943E+01  0.94224694991E+02  0.90779910444E+02 0.  0.
          5    1    1    2  502    0 -0.54802558347E+02  0.33394700533E+02  0.19189146830E+02  0.67113502227E+02  0.41800000000E+01 0. -1.
         -5    1    1    2    0  502  0.34733637304E+02 -0.48510300867E+02 -0.10764096789E+02  0.60770165626E+02  0.41800000000E+01 0. -1.
        -11    1    3    3    0    0  0.26932824513E+01  0.31270196990E+02  0.36790824191E+02  0.48359525791E+02  0.00000000000E+00 0. -1.
         11    1    3    3    0    0  0.17375638593E+02 -0.16154596656E+02 -0.39252132885E+02  0.45865169199E+02  0.00000000000E+00 0.  1.
</event>
<event>
 7    1  0.6988825E-006  0.1043919E+03  0.7561462E-02  0.1271322E+00
          1   -1    0    0  501    0  0.00000000000E+00  0.00000000000E+00  0.13317046897E+03  0.13317046897E+03  0.00000000000E+00 0. -1.
         -1   -1    0    0    0  501 -0.00000000000E+00 -0.00000000000E+00 -0.18501651599E+03  0.18501651599E+03  0.00000000000E+00 0.  1.
         23    2    1    2    0    0  0.85490883614E+02 -0.29954928526E+01 -0.97387752055E+02  0.15994480990E+03  0.93703275320E+02 0.  0.
          5    1    1    2  502    0 -0.42235706802E+02 -0.22039856774E+01  0.87711577507E+02  0.97465407765E+02  0.41800000000E+01 0.  1.
         -5    1    1    2    0  502 -0.43255176811E+02  0.51994785300E+01 -0.42169872479E+02  0.60776767295E+02  0.41800000000E+01 0.  1.
        -11    1    3    3    0    0  0.58280656736E+02 -0.44195882138E+02 -0.37085905061E+02  0.82007775862E+02  0.00000000000E+00 0. -1.
         11    1    3    3    0    0  0.27210226878E+02  0.41200389286E+02 -0.60301846994E+02  0.77937034040E+02  0.00000000000E+00 0.  1.
</event>
<event>
 7    1  0.6988825E-006  0.9024252E+02  0.7561462E-02  0.1302265E+00
         -1   -1    0    0    0  501 -0.00000000000E+00  0.00000000000E+00  0.38724764888E+02  0.38724764888E+02  0.00000000000E+00 0.  1.
          1   -1    0    0  501    0  0.00000000000E+00 -0.00000000000E+00 -0.37493193550E+03  0.37493193550E+03  0.00000000000E+00 0. -1.
         23    2    1    2    0    0  0.92821032740E+01 -0.25445866472E+02 -0.70417786206E+02  0.11865502476E+03  0.91578931665E+02 0.  0.
          5    1    1    2  502    0 -0.53417491607E+02  0.13025730527E+02 -0.23047024832E+03  0.23697490548E+03  0.41800000000E+01 0. -1.
         -5    1    1    2    0  502  0.44135388333E+02  0.12420135945E+02 -0.35319136083E+02  0.58026770149E+02  0.41800000000E+01 0. -1.
        -11    1    3    3    0    0 -0.21203443046E+02 -0.40189789867E+02 -0.59415954194E+01  0.45826932722E+02  0.00000000000E+00 0.  1.
         11    1    3    3    0    0  0.30485546320E+02  0.14743923395E+02 -0.64476190787E+02  0.72828092038E+02  0.00000000000E+00 0. -1.
</event>
<event>
 7    1  0.6988825E-006  0.9253280E+02  0.7561462E-02  0.1296832E+00
          3   -1    0    0  501    0  0.00000000000E+00  0.00000000000E+00  0.36481571232E+02  0.36481571232E+02  0.00000000000E+00 0. -1.
         -3   -1    0    0    0  501 -0.00000000000E+00 -0.00000000000E+00 -0.29242959419E+03  0.29242959419E+03  0.00000000000E+00 0.  1.
         23    2    1    2    0    0 -0.35666908120E+01 -0.63416294681E+01 -0.15242176714E+03  0.17657166871E+03  0.88838176178E+02 0.  0.
          5    1    1    2  502    0 -0.51664359437E+02 -0.89080109174E+01 -0.36271350026E+02  0.63887729082E+02  0.41800000000E+01 0. -1.
         -5    1    1    2    0  502  0.55231050249E+02  0.15249640385E+02 -0.67254905799E+02  0.88451767634E+02  0.41800000000E+01 0.  1.
        -11    1    3    3    0    0 -0.29744566539E+02  0.21580260869E+02 -0.12277984966E+03  0.12816137632E+03  0.00000000000E+00 0.  1.
         11    1    3    3    0    0  0.26177875727E+02 -0.27921890337E+02 -0.29641917475E+02  0.48410292389E+02  0.00000000000E+00 0. -1.
</event>
<event>
 7    1  0.6988825E-006  0.1141522E+03  0.7561462E-02  0.1253068E+00
          1   -1    0    0  501    0  0.00000000000E+00  0.00000000000E+00  0.40442604765E+03  0.40442604765E+03  0.00000000000E+00 0. -1.
         -1   -1    0    0    0  501 -0.00000000000E+00 -0.00000000000E+00 -0.53807645024E+02  0.53807645024E+02  0.00000000000E+00 0.  1.
         23    2    1    2    0    0  0.77692332265E+01 -0.76397650325E+02  0.81222870427E+02  0.15144692647E+03  0.10218637334E+03 0.  0.
          5    1    1    2  502    0 -0.63701297348E+02  0.32272416879E+02  0.16989532491E+03  0.18434006076E+03  0.41800000000E+01 0.  1.
         -5    1    1    2    0  502  0.55932064122E+02  0.44125233446E+02  0.99500207292E+02  0.12244670545E+03  0.41800000000E+01 0.  1.
        -11    1    3    3    0    0  0.22698740535E+02 -0.38761129809E+02  0.97856939278E+02  0.10767375990E+03  0.00000000000E+00 0.  1.
         11    1    3    3    0    0 -0.14929507308E+02 -0.37636520516E+02 -0.16634068851E+02  0.43773166570E+02  0.00000000000E+00 0. -1.
</event>
<event>
 7    1  0.6988825E-006  0.2499775E+03  0.7561462E-02  0.1113319E+00
          2   -1    0    0  501    0  0.00000000000E+00  0.00000000000E+00  0.21552329030E+04  0.21552329030E+04  0.00000000000E+00 0. -1.
         -2   -1    0    0    0  501 -0.00000000000E+00 -0.00000000000E+00 -0.34646469078E+02  0.34646469078E+02  0.00000000000E+00 0.  1.
         23    2    1    2    0    0 -0.18539116465E+03  0.14184368239E+03  0.66720815265E+03  0.71256899601E+03  0.89990782574E+02 0.  0.
          5    1    1    2  502    0  0.44796126402E+02 -0.89569113185E+02  0.36037821339E+03  0.37405781380E+03  0.41800000000E+01 0. -1.
         -5    1    1    2    0  502  0.14059503825E+03 -0.52274569204E+02  0.10930000679E+04  0.11032525623E+04  0.41800000000E+01 0. -1.
        -11    1    3    3    0    0 -0.19221392619E+03  0.11957084707E+03  0.59055208199E+03  0.63245169178E+03  0.00000000000E+00 0.  1.
         11    1    3    3    0    0  0.68227615434E+01  0.22272835317E+02  0.76656070656E+02  0.80117304226E+02  0.00000000000E+00 0. -1.
</event>
<event>
 7    1  0.6988825E-006  0.9063543E+02  0.7561462E-02  0.1301320E+00
         -1   -1    0    0    0  501 -0.00000000000E+00  0.00000000000E+00  0.78370037870E+02  0.78370037870E+02  0.00000000000E+00 0.  1.
          1   -1    0    0  501    0  0.00000000000E+00 -0.00000000000E+00 -0.28096878090E+03  0.28096878090E+03  0.00000000000E+00 0. -1.
         23    2    1    2    0    0 -0.37591531234E+02 -0.18040033411E+02  0.18527113791E+02  0.10188829986E+03  0.91101073957E+02 0.  0.
          5    1    1    2  502    0  0.22688973553E+02  0.63323132517E+02 -0.18672092647E+03  0.19851142389E+03  0.41800000000E+01 0. -1.
         -5    1    1    2    0  502  0.14902557681E+02 -0.45283099105E+02 -0.34404930350E+02  0.58939095025E+02  0.41800000000E+01 0. -1.
        -11    1    3    3    0    0  0.12743874847E+02 -0.62993456801E+00  0.41844447256E+02  0.43746553348E+02  0.00000000000E+00 0.  1.
         11    1    3    3    0    0 -0.50335406081E+02 -0.17410098843E+02 -0.23317333465E+02  0.58141746508E+02  0.00000000000E+00 0. -1.
</event>
<event>
 7    1  0.6988825E-006  0.1622515E+03  0.7561462E-02  0.1186178E+00
         -2   -1    0    0    0  501 -0.00000000000E+00  0.00000000000E+00  0.10909273092E+03  0.10909273092E+03  0.00000000000E+00 0.  1.
          2   -1    0    0  501    0  0.00000000000E+00 -0.00000000000E+00 -0.28453013868E+03  0.28453013868E+03  0.00000000000E+00 0. -1.
         23    2    1    2    0    0 -0.76039145675E+01  0.13705749829E+03 -0.65860262191E+02  0.17799011776E+03  0.92197237102E+02 0.  0.
          5    1    1    2  502    0 -0.55639887596E+02 -0.42072020916E+02 -0.55734495909E+02  0.89384889494E+02  0.41800000000E+01 0. -1.
         -5    1    1    2    0  502  0.63243802164E+02 -0.94985477376E+02 -0.53842649655E+02  0.12624786234E+03  0.41800000000E+01 0. -1.
        -11    1    3    3    0    0  0.10730127867E+02  0.73619714347E+02  0.12581891753E+02  0.75453972624E+02  0.00000000000E+00 0. -1.
         11    1    3    3    0    0 -0.18334042435E+02  0.63437783944E+02 -0.78442153944E+02  0.10253614514E+03  0.00000000000E+00 0.  1.
</event>
<event>
 7    1  0.6988825E-006  0.1610698E+03  0.7561462E-02  0.1187494E+00
          3   -1    0    0  501    0  0.00000000000E+00  0.00000000000E+00  0.19584020539E+03  0.19584020539E+03  0.00000000000E+00 0. -1.
         -3   -1    0    0    0  501 -0.00000000000E+00 -0.00000000000E+00 -0.13881428595E+03  0.13881428595E+03  0.00000000000E+00 0.  1.
         23    2    1    2    0    0 -0.53621479077E+02  0.11457294149E+03  0.31492602673E+02  0.15492477656E+03  0.83711889416E+02 0.  0.
          5    1    1    2  502    0  0.93415323717E+02 -0.95224174176E+02  0.19469143986E+02  0.13487248059E+03  0.41800000000E+01 0.  1.
         -5    1    1    2    0  502 -0.39793844639E+02 -0.19348767315E+02  0.60641727763E+01  0.44857234191E+02  0.41800000000E+01 0.  1.
        -11    1    3    3    0    0  0.16688067446E+02  0.29239718644E+02 -0.12519881371E+02  0.35919356495E+02  0.00000000000E+00 0.  1.
         11    1    3    3    0    0 -0.70309546523E+02  0.85333222847E+02  0.44012484045E+02  0.11900542007E+03  0.00000000000E+00 0. -1.
</event>
<event>
 7    1  0.6988825E-006  0.2385856E+03  0.7561462E-02  0.1120739E+00
          1   -1    0    0  501    0  0.00000000000E+00  0.00000000000E+00  0.24918127800E+03  0.24918127800E+03  0.00000000000E+00 0. -1.
         -1   -1    0    0    0  501 -0.00000000000E+00 -0.00000000000E+00 -0.24765885252E+03  0.24765885252E+03  0.00000000000E+00 0.  1.
         23    2    1    2    0    0 -0.11848063470E+03  0.17969311894E+03 -0.52918212404E+02  0.24201004533E+03  0.97166079674E+02 0.  0.
          5    1    1    2  502    0  0.66411351043E+02 -0.10415862311E+02 -0.60723424566E+01  0.67626204078E+02  0.41800000000E+01 0.  1.
         -5    1    1    2    0  502  0.52069283661E+02 -0.16927725663E+03  0.60512980340E+02  0.18720388111E+03  0.41800000000E+01 0.  1.
        -11    1    3    3    0    0 -0.13289108930E+03  0.16730494866E+03 -0.59680323325E+02  0.22183942043E+03  0.00000000000E+00 0.  1.
         11    1    3    3    0    0  0.14410454601E+02  0.12388170282E+02  0.67621109205E+01  0.20170624899E+02  0.00000000000E+00 0. -1.
</event>
<event>
 7    1  0.6988825E-006  0.1698194E+03  0.7561462E-02  0.1178036E+00
          2   -1    0    0  501    0  0.00000000000E+00  0.00000000000E+00  0.96567489414E+03  0.96567489414E+03  0.00000000000E+00 0.  1.
         -2   -1    0    0    0  501 -0.00000000000E+00 -0.00000000000E+00 -0.48384269168E+02  0.48384269168E+02  0.00000000000E+00 0. -1.
         23    2    1    2    0    0 -0.29684687715E+02  0.14883673773E+03  0.19150609133E+03  0.26209955134E+03  0.94805256239E+02 0.  0.
          5    1    1    2  502    0  0.80737871667E+01 -0.13904704894E+03  0.37014044879E+03  0.39550055890E+03  0.41800000000E+01 0. -1.
         -5    1    1    2    0  502  0.21610900548E+02 -0.97896887968E+01  0.35564408484E+03  0.35645905306E+03  0.41800000000E+01 0. -1.
        -11    1    3    3    0    0 -0.60917105887E+02  0.79478605866E+02  0.85793937923E+02  0.13186486403E+03  0.00000000000E+00 0.  1.
         11    1    3    3    0    0  0.31232418172E+02  0.69358131868E+02  0.10571215341E+03  0.13023468731E+03  0.00000000000E+00 0. -1.
</event>
<event>
 7    1  0.6988825E-006  0.4277897E+02  0.7561462E-02  0.1488703E+00
         -2   -1    0    0    0  501 -0.00000000000E+00  0.00000000000E+00  0.11999874275E+03  0.11999874275E+03  0.00000000000E+00 0.  1.
          2   -1    0    0  501    0  0.00000000000E+00 -0.00000000000E+00 -0.10478878665E+03  0.10478878665E+03  0.00000000000E+00 0. -1.
         23    2    1    2    0    0  0.37469001111E+02  0.83965535433E+01  0.22171047754E+02  0.93752440683E+02  0.82604700955E+02 0.  0.
          5    1    1    2  502    0 -0.32310566086E+02  0.15087478835E+01 -0.64498112027E+02  0.72275361334E+02  0.41800000000E+01 0. -1.
         -5    1    1    2    0  502 -0.51584350247E+01 -0.99053014267E+01  0.57537020377E+02  0.58759727383E+02  0.41800000000E+01 0. -1.
        -11    1    3    3    0    0  0.19461956733E+02  0.11704196866E+02  0.53132735707E+02  0.57782727417E+02  0.00000000000E+00 0.  1.
         11    1    3    3    0    0  0.18007044378E+02 -0.33076433223E+01 -0.30961687952E+02  0.35969713266E+02  0.00000000000E+00 0. -1.
</event>
<event>
 7    1  0.6988825E-006  0.1753354E+03  0.7561462E-02  0.1172395E+00
          2   -1    0    0  501    0  0.00000000000E+00  0.00000000000E+00  0.90578694404E+02  0.90578694404E+02  0.00000000000E+00 0. -1.
         -2   -1    0    0    0  501 -0.00000000000E+00 -0.00000000000E+00 -0.40536476877E+03  0.40536476877E+03  0.00000000000E+00 0.  1.
         23    2    1    2    0    0  0.96962834763E+02 -0.11546867251E+03 -0.20876329782E+03  0.27318181225E+03  0.91166783255E+02 0.  0.
          5    1    1    2  502    0 -0.56267364813E+02  0.12133872619E+03 -0.31386875257E+02  0.13744712130E+03  0.41800000000E+01 0.  1.
         -5    1    1    2    0  502 -0.40695469950E+02 -0.58700536793E+01 -0.74635901284E+02  0.85314529625E+02  0.41800000000E+01 0.  1.
        -11    1    3    3    0    0  0.31641899520E+02 -0.10463364986E+03 -0.14137686414E+03  0.17870878042E+03  0.00000000000E+00 0.  1.
         11    1    3    3    0    0  0.65320935243E+02 -0.10835022649E+02 -0.67386433686E+02  0.94473031822E+02  0.00000000000E+00 0. -1.
</event>
<event>
 7    1  0.6988825E-006  0.1250795E+03  0.7561462E-02  0.1234945E+00
          1   -1    0    0  501    0  0.00000000000E+00  0.00000000000E+00  0.29979226177E+03  0.29979226177E+03  0.00000000000E+00 0. -1.
         -1   -1    0    0    0  501 -0.00000000000E+00 -0.00000000000E+00 -0.29532081036E+03  0.29532081036E+03  0.00000000000E+00 0.  1.
         23    2    1    2    0    0 -0.39467126298E+02 -0.46597141069E+02 -0.26358520379E+03  0.28520007709E+03  0.90183017788E+02 0.  0.
          5    1    1    2  502    0  0.62460851385E+02  0.85135773179E+02  0.21979250307E+03  0.24387635112E+03  0.41800000000E+01 0. -1.
         -5    1    1    2    0  502 -0.22993725087E+02 -0.38538632110E+02  0.48264152134E+02  0.66036643915E+02  0.41800000000E+01 0.  1.
        -11    1    3    3    0    0 -0.41064625447E+02 -0.67197741565E+02 -0.24522131931E+03  0.25755647028E+03  0.00000000000E+00 0.  1.
         11    1    3    3    0    0  0.15974991497E+01  0.20600600496E+02 -0.18363884479E+02  0.27643606811E+02  0.00000000000E+00 0. -1.
</event>
<event>
 7    1  0.6988825E-006  0.1029418E+03  0.7561462E-02  0.1274229E+00
          4   -1    0    0  501    0  0.00000000000E+00  0.00000000000E+00  0.33805852227E+02  0.33805852227E+02  0.00000000000E+00 0. -1.
         -4   -1    0    0    0  501 -0.00000000000E+00 -0.00000000000E+00 -0.42551844636E+03  0.42551844636E+03  0.00000000000E+00 0.  1.
         23    2    1    2    0    0 -0.16920605742E+02  0.47260352812E+02 -0.14252174082E+03  0.17601699386E+03  0.90275620593E+02 0.  0.
          5    1    1    2  502    0 -0.52130700587E+02 -0.17245132746E+02 -0.71272173713E+02  0.90067750571E+02  0.41800000000E+01 0.  1.
         -5    1    1    2    0  502  0.69051306329E+02 -0.30015220067E+02 -0.17791867960E+03  0.19323955416E+03  0.41800000000E+01 0.  1.
        -11    1    3    3    0    0 -0.27993062753E+02  0.11831731599E+01 -0.12058461195E+03  0.12379685012E+03  0.00000000000E+00 0.  1.
         11    1    3    3    0    0  0.11072457011E+02  0.46077179652E+02 -0.21937128877E+02  0.52220143741E+02  0.00000000000E+00 0. -1.
</event>
<event>
 7    1  0.6988825E-006  0.1054632E+03  0.7561462E-02  0.1269210E+00
         -4   -1    0    0    0  501 -0.00000000000E+00  0.00000000000E+00  0.19651139062E+03  0.19651139062E+03  0.00000000000E+00 0.  1.
          4   -1    0    0  501    0  0.00000000000E+00 -0.00000000000E+00 -0.73737620651E+02  0.73737620651E+02  0.00000000000E+00 0. -1.
         23    2    1    2    0    0 -0.27061463682E+02 -0.44004927219E+02  0.44588477531E+02  0.11395055173E+03  0.91256996857E+02 0.  0.
          5    1    1    2  502    0  0.37511476267E+02  0.71446914310E+02  0.93475037171E+01  0.81342612706E+02  0.41800000000E+01 0. -1.
         -5    1    1    2    0  502 -0.10450012585E+02 -0.27441987091E+02  0.68837788725E+02  0.74955846837E+02  0.41800000000E+01 0. -1.
        -11    1    3    3    0    0  0.11901444769E+02 -0.57888920492E+02  0.42006450118E+02  0.72507333111E+02  0.00000000000E+00 0. -1.
         11    1    3    3    0    0 -0.38962908451E+02  0.13883993273E+02  0.25820274132E+01  0.41443218622E+02  0.00000000000E+00 0.  1.
</event>
<event>
 7    1  0.6988825E-006  0.1239938E+03  0.7561462E-02  0.1236650E+00
         -2   -1    0    0    0  501 -0.00000000000E+00  0.00000000000E+00  0.15353745392E+02  0.15353745392E+02  0.00000000000E+00 0.  1.
          2   -1    0    0  501    0  0.00000000000E+00 -0.00000000000E+00 -0.10762244912E+04  0.10762244912E+04  0.00000000000E+00 0. -1.
         23    2    1    2    0    0 -0.24869790329E+02 -0.59438115317E+02 -0.34734904450E+03  0.36431439801E+03  0.89006886561E+02 0.  0.
          5    1    1    2  502    0 -0.48697446138E+02  0.50711409065E+01 -0.24916399010E+03  0.25396323375E+03  0.41800000000E+01 0.  1.
         -5    1    1    2    0  502  0.73567236467E+02  0.54366974410E+02 -0.46435771118E+03  0.47330060482E+03  0.41800000000E+01 0.  1.
        -11    1    3    3    0    0 -0.49856386979E+02 -0.64761657016E+02 -0.22649908748E+03  0.24079362153E+03  0.00000000000E+00 0.  1.
         11    1    3    3    0    0  0.24986596650E+02  0.53235416988E+01 -0.12084995702E+03  0.12352077647E+03  0.00000000000E+00 0. -1.
</event>
<event>
 7    1  0.6988825E-006  0.1403956E+03  0.7561462E-02  0.1212798E+00
         -2   -1    0    0    0  501 -0.00000000000E+00  0.00000000000E+00  0.77436470401E+02  0.77436470401E+02  0.00000000000E+00 0.  1.
          2   -1    0    0  501    0  0.00000000000E+00 -0.00000000000E+00 -0.31106886265E+03  0.31106886265E+03  0.00000000000E+00 0. -1.
         23    2    1    2    0    0 -0.39037474127E+02  0.82788338589E+02 -0.26923723403E+02  0.13013718845E+03  0.88504053825E+02 0.  0.
          5    1    1    2  502    0  0.84568836641E+02 -0.57728259952E+02 -0.14542220927E+03  0.17790315196E+03  0.41800000000E+01 0. -1.
         -5    1    1    2    0  502 -0.45531362514E+02 -0.25060078637E+02 -0.61286459578E+02  0.80464992644E+02  0.41800000000E+01 0. -1.
        -11    1    3    3    0    0 -0.35366174912E+02  0.10130210345E+03 -0.16450428035E+02  0.10855182667E+03  0.00000000000E+00 0.  1.
         11    1    3    3    0    0 -0.36712992148E+01 -0.18513764861E+02 -0.10473295368E+02  0.21585361779E+02  0.00000000000E+00 0. -1.
</event>
<event>
 7    1  0.6988825E-006  0.1601636E+03  0.7561462E-02  0.1188512E+00
         -1   -1    0    0    0  501 -0.00000000000E+00  0.00000000000E+00  0.33303059823E+03  0.33303059823E+03  0.00000000000E+00 0.  1.
          1   -1    0    0  501    0  0.00000000000E+00 -0.00000000000E+00 -0.80363822275E+02  0.80363822275E+02  0.00000000000E+00 0. -1.
         23    2    1    2    0    0  0.90750539195E+02 -0.81713593857E+02  0.11945501896E+03  0.19360591550E+03  0.91109698579E+02 0.  0.
          5    1    1    2  502    0 -0.97427926484E+02  0.75134325997E+01  0.93288246617E+02  0.13516220583E+03  0.41800000000E+01 0. -1.
         -5    1    1    2    0  502  0.66773872890E+01  0.74200161257E+02  0.39923510377E+02  0.84626299177E+02  0.41800000000E+01 0. -1.
        -11    1    3    3    0    0 -0.16225668405E+02 -0.12599604461E+02  0.35652812962E+02  0.41147848302E+02  0.00000000000E+00 0.  1.
         11    1    3    3    0    0  0.10697620760E+03 -0.69113989396E+02  0.83802205998E+02  0.15245806719E+03  0.00000000000E+00 0. -1.
</event>
<event>
 7    1  0.6988825E-006  0.2105251E+03  0.7561462E-02  0.1141151E+00
         -2   -1    0    0    0  501 -0.00000000000E+00  0.00000000000E+00  0.81096760307E+02  0.81096760307E+02  0.00000000000E+00 0.  1.
          2   -1    0    0  501    0  0.00000000000E+00 -0.00000000000E+00 -0.65686556569E+03  0.65686556569E+03  0.00000000000E+00 0. -1.
         23    2    1    2    0    0  0.12173548673E+03 -0.16096959252E+03 -0.23720449512E+03  0.32443704434E+03  0.90899311262E+02 0.  0.
          5    1    1    2  502    0 -0.31932115072E+02  0.94709616153E+02 -0.25536826046E+03  0.27426263365E+03  0.41800000000E+01 0. -1.
         -5    1    1    2    0  502 -0.89803371659E+02  0.66259976363E+02 -0.83196049802E+02  0.13926264801E+03  0.41800000000E+01 0. -1.
        -11    1    3    3    0    0  0.71485978264E+01 -0.47631342943E+02 -0.10665812244E+03  0.11702906632E+03  0.00000000000E+00 0.  1.
         11    1    3    3    0    0  0.11458688891E+03 -0.11333824957E+03 -0.13054637269E+03  0.20740797802E+03  0.00000000000E+00 0. -1.
</event>
<event>
 7    1  0.6988825E-006  0.1120311E+03  0.7561462E-02  0.1256854E+00
          1   -1    0    0  501    0  0.00000000000E+00  0.00000000000E+00  0.56760826207E+03  0.56760826207E+03  0.00000000000E+00 0.  1.
         -1   -1    0    0    0  501 -0.00000000000E+00 -0.00000000000E+00 -0.29001432224E+02  0.29001432224E+02  0.00000000000E+00 0. -1.
         23    2    1    2    0    0 -0.33981813324E+02 -0.33497948188E+02  0.12808110787E+03  0.16480452166E+03  0.92080855752E+02 0.  0.
          5    1    1    2  502    0 -0.50289024335E+01  0.75789244352E+02  0.24259937216E+03  0.25424639071E+03  0.41800000000E+01 0.  1.
         -5    1    1    2    0  502  0.39010715758E+02 -0.42291296164E+02  0.16792634982E+03  0.17755878193E+03  0.41800000000E+01 0.  1.
        -11    1    3    3    0    0  0.23350847510E+02 -0.21474306623E+02  0.10461305207E+02  0.33404293602E+02  0.00000000000E+00 0. -1.
         11    1    3    3    0    0 -0.57332660834E+02 -0.12023641565E+02  0.11761980266E+03  0.13140022806E+03  0.00000000000E+00 0.  1.
</event>
<event>
 7    1  0.6988825E-006  0.1176461E+03  0.7561462E-02  0.1247032E+00
         -4   -1    0    0    0  501 -0.00000000000E+00  0.00000000000E+00  0.30658507951E+03  0.30658507951E+03  0.00000000000E+00 0.  1.
          4   -1    0    0  501    0  0.00000000000E+00 -0.00000000000E+00 -0.78638502115E+02  0.78638502115E+02  0.00000000000E+00 0. -1.
         23    2    1    2    0    0  0.40317077520E+02  0.33141226903E+02  0.22631628817E+03  0.24966952704E+03  0.91607875122E+02 0.  0.
          5    1    1    2  502    0  0.59107386213E+00  0.46011571530E+02  0.35020811644E+01  0.46337361335E+02  0.41800000000E+01 0. -1.
         -5    1    1    2    0  502 -0.40908151382E+02 -0.79152798433E+02 -0.18717919325E+01  0.89216693249E+02  0.41800000000E+01 0. -1.
        -11    1    3    3    0    0  0.44098551563E+02 -0.18708467970E+02  0.14891266101E+03  0.15642784162E+03  0.00000000000E+00 0.  1.
         11    1    3    3    0    0 -0.37814740428E+01  0.51849694872E+02  0.77403627154E+02  0.93241685425E+02  0.00000000000E+00 0. -1.
</event>
<event>
 7    1  0.6988825E-006  0.2012454E+03  0.7561462E-02  0.1148693E+00
         -1   -1    0    0    0  501 -0.00000000000E+00  0.00000000000E+00  0.12639038348E+04  0.12639038348E+04  0.00000000000E+00 0.  1.
          1   -1    0    0  501    0  0.00000000000E+00 -0.00000000000E+00 -0.37312305979E+02  0.37312305979E+02  0.00000000000E+00 0. -1.
         23    2    1    2    0    0  0.17400711409E+03  0.73859422360E+02  0.66735836190E+03  0.69779032438E+03  0.76226396824E+02 0.  0.
          5    1    1    2  502    0 -0.72659660698E+02  0.14328293997E+01  0.81511209278E+02  0.10928416597E+03  0.41800000000E+01 0.  1.
         -5    1    1    2    0  502 -0.10134745339E+03 -0.75292251760E+02  0.47772195768E+03  0.49414165048E+03  0.41800000000E+01 0.  1.
        -11    1    3    3    0    0  0.35568820756E+02  0.52325401286E+02  0.18669380562E+03  0.19712347828E+03  0.00000000000E+00 0.  1.
         11    1    3    3    0    0  0.13843829333E+03  0.21534021074E+02  0.48066455628E+03  0.50066684610E+03  0.00000000000E+00 0. -1.
</event>
<event>
 7    1  0.6988825E-006  0.1697237E+03  0.7561462E-02  0.1178136E+00
         -1   -1    0    0    0  501 -0.00000000000E+00  0.00000000000E+00  0.44620373713E+02  0.44620373713E+02  0.00000000000E+00 0.  1.
          1   -1    0    0  501    0  0.00000000000E+00 -0.00000000000E+00 -0.79690589664E+03  0.79690589664E+03  0.00000000000E+00 0. -1.
         23    2    1    2    0    0 -0.12403700398E+03  0.64093356229E+02 -0.21512217908E+03  0.27259176291E+03  0.92388205996E+02 0.  0.
          5    1    1    2  502    0  0.13166980784E+03 -0.85763345750E+02 -0.39965980026E+03  0.42946212653E+03  0.41800000000E+01 0. -1.
         -5    1    1    2    0  502 -0.76328038685E+01  0.21669989521E+02 -0.13750354358E+03  0.13947238091E+03  0.41800000000E+01 0. -1.
        -11    1    3    3    0    0 -0.55535324672E+02 -0.11684490580E+02 -0.12118472796E+03  0.13381493899E+03  0.00000000000E+00 0. -1.
         11    1    3    3    0    0 -0.68501679303E+02  0.75777846809E+02 -0.93937451119E+02  0.13877682392E+03  0.00000000000E+00 0.  1.
</event>
<event>
 7    1  0.6988825E-006  0.1246557E+03  0.7561462E-02  0.1235608E+00
          2   -1    0    0  501    0  0.00000000000E+00  0.00000000000E+00  0.15893189046E+04  0.15893189046E+04  0.00000000000E+00 0. -1.
         -2   -1    0    0    0  501 -0.00000000000E+00 -0.00000000000E+00 -0.12699008238E+02  0.12699008238E+02  0.00000000000E+00 0.  1.
         23    2    1    2    0    0 -0.78689018422E+02 -0.10158616729E+02  0.45692438767E+03  0.47256531891E+03  0.90790558278E+02 0.  0.
          5    1    1    2  502    0  0.45695210232E+02  0.55919499973E+02  0.33500558978E+03  0.34272621770E+03  0.41800000000E+01 0. -1.
         -5    1    1    2    0  502  0.32993808191E+02 -0.45760883244E+02  0.78468991896E+03  0.78672637628E+03  0.41800000000E+01 0. -1.
        -11    1    3    3    0    0  0.13577131348E+02 -0.23539496732E+02  0.93034630476E+02  0.96922076277E+02  0.00000000000E+00 0.  1.
         11    1    3    3    0    0 -0.92266149771E+02  0.13380880003E+02  0.36388975720E+03  0.37564324263E+03  0.00000000000E+00 0. -1.
</event>
<event>
 7    1  0.6988825E-006  0.1413455E+03  0.7561462E-02  0.1211530E+00
          1   -1    0    0  501    0  0.00000000000E+00  0.00000000000E+00  0.10201475864E+04  0.10201475864E+04  0.00000000000E+00 0. -1.
         -1   -1    0    0    0  501 -0.00000000000E+00 -0.00000000000E+00 -0.75093981299E+02  0.75093981299E+02  0.00000000000E+00 0.  1.
         23    2    1    2    0    0  0.10840053352E+03  0.19735286542E+01 -0.57554388475E+00  0.13617807585E+03  0.82398826502E+02 0.  0.
          5    1    1    2  502    0 -0.66870057542E+02  0.56081236470E+02  0.57494297129E+03  0.58154415337E+03  0.41800000000E+01 0. -1.
         -5    1    1    2    0  502 -0.41530475982E+02 -0.58054765124E+02  0.37068617765E+03  0.37751933843E+03  0.41800000000E+01 0.  1.
        -11    1    3    3    0    0  0.22936044143E+02  0.26357519053E+02  0.25844358495E+02  0.43459311978E+02  0.00000000000E+00 0. -1.
         11    1    3    3    0    0  0.85464489381E+02 -0.24383990399E+02 -0.26419902380E+02  0.92718763876E+02  0.00000000000E+00 0.  1.
</event>
<event>
 7    1  0.6988825E-006  0.1152089E+03  0.7561462E-02  0.1251217E+00
          1   -1    0    0  501    0  0.00000000000E+00  0.00000000000E+00  0.11133532518E+04  0.11133532518E+04  0.00000000000E+00 0. -1.
         -1   -1    0    0    0  501 -0.00000000000E+00 -0.00000000000E+00 -0.14022532038E+02  0.14022532038E+02  0.00000000000E+00 0.  1.
         23    2    1    2    0    0  0.40728226912E+02 -0.43514564180E+02  0.35206885902E+03  0.36737557395E+03  0.86371436707E+02 0.  0.
          5    1    1    2  502    0 -0.24480701752E+02 -0.43388890281E+02  0.28078425653E+03  0.28520023085E+03  0.41800000000E+01 0. -1.
         -5    1    1    2    0  502 -0.16247525160E+02  0.86903454461E+02  0.46647760419E+03  0.47479997902E+03  0.41800000000E+01 0. -1.
        -11    1    3    3    0    0  0.13395911694E+02 -0.59000061592E+02  0.30392985401E+03  0.30989322980E+03  0.00000000000E+00 0. -1.
         11    1    3    3    0    0  0.27332315218E+02  0.15485497412E+02  0.48139005009E+02  0.57482344146E+02  0.00000000000E+00 0.  1.
</event>
<event>
 7    1  0.6988825E-006  0.9189580E+02  0.7561462E-02  0.1298325E+00
          2   -1    0    0  501    0  0.00000000000E+00  0.00000000000E+00  0.19625368945E+03  0.19625368945E+03  0.00000000000E+00 0. -1.
         -2   -1    0    0    0  501 -0.00000000000E+00 -0.00000000000E+00 -0.69881446611E+02  0.69881446611E+02  0.00000000000E+00 0.  1.
         23    2    1    2    0    0  0.28480483547E+02  0.35508329395E+01  0.11774888110E+02  0.94077506208E+02  0.88815442501E+02 0.  0.
          5    1    1    2  502    0 -0.85901385737E+01 -0.59229207230E+02  0.89370681317E+02  0.10764051537E+03  0.41800000000E+01 0.  1.
         -5    1    1    2    0  502 -0.19890344973E+02  0.55678374290E+02  0.25226673409E+02  0.64417114481E+02  0.41800000000E+01 0.  1.
        -11    1    3    3    0    0  0.14379969508E+02  0.30717503268E+02 -0.27935378685E+02  0.43940117346E+02  0.00000000000E+00 0.  1.
         11    1    3    3    0    0  0.14100514039E+02 -0.27166670329E+02  0.39710266795E+02  0.50137388861E+02  0.00000000000E+00 0. -1.
</event>
<event>
 7    1  0.6988825E-006  0.1677132E+03  0.7561462E-02  0.1180254E+00
          1   -1    0    0  501    0  0.00000000000E+00  0.00000000000E+00  0.33391606698E+04  0.33391606698E+04  0.00000000000E+00 0. -1.
         -1   -1    0    0    0  501 -0.00000000000E+00 -0.00000000000E+00 -0.53747307662E+02  0.53747307662E+02  0.00000000000E+00 0.  1.
         23    2    1    2    0    0  0.13142431868E+03  0.18367486714E+02  0.82718725899E+02  0.18369199197E+03  0.96387987798E+02 0.  0.
          5    1    1    2  502    0 -0.15666189689E+03 -0.44017936947E+02  0.22761209873E+04  0.22819344316E+04  0.41800000000E+01 0. -1.
         -5    1    1    2    0  502  0.25237578209E+02  0.25650450232E+02  0.92657364892E+03  0.92728155391E+03  0.41800000000E+01 0.  1.
        -11    1    3    3    0    0  0.76669414345E+02 -0.51152335895E+01 -0.57254053583E+01  0.77052871311E+02  0.00000000000E+00 0.  1.
         11    1    3    3    0    0  0.54754904333E+02  0.23482720304E+02  0.88444131258E+02  0.10663912066E+03  0.00000000000E+00 0. -1.
</event>
<event>
 7    1  0.6988825E-006  0.1075367E+03  0.7561462E-02  0.1265201E+00
         -1   -1    0    0    0  501 -0.00000000000E+00  0.00000000000E+00  0.16295653252E+03  0.16295653252E+03  0.00000000000E+00 0.  1.
          1   -1    0    0  501    0  0.00000000000E+00 -0.00000000000E+00 -0.96248011516E+02  0.96248011516E+02  0.00000000000E+00 0. -1.
         23    2    1    2    0    0 -0.39473959657E+02  0.50369989666E+02  0.33709250933E+02  0.11487998783E+03  0.89251154922E+02 0.  0.
          5    1    1    2  502    0  0.83518009094E+02 -0.31333831966E+02  0.35496045013E+02  0.96096349984E+02  0.41800000000E+01 0.  1.
         -5    1    1    2    0  502 -0.44044049437E+02 -0.19036157700E+02 -0.24967749392E+01  0.48228206227E+02  0.41800000000E+01 0.  1.
        -11    1    3    3    0    0  0.95916211929E+01  0.11752581282E+02  0.48411480609E+02  0.50732571576E+02  0.00000000000E+00 0.  1.
         11    1    3    3    0    0 -0.49065580849E+02  0.38617408384E+02 -0.14702229676E+02  0.64147416252E+02  0.00000000000E+00 0. -1.
</event>
<event>
 7    1  0.6988825E-006  0.1372084E+03  0.7561462E-02  0.1217135E+00
          2   -1    0    0  501    0  0.00000000000E+00  0.00000000000E+00  0.74883387127E+03  0.74883387127E+03  0.00000000000E+00 0. -1.
         -2   -1    0    0    0  501 -0.00000000000E+00 -0.00000000000E+00 -0.54894877242E+02  0.54894877242E+02  0.00000000000E+00 0.  1.
         23    2    1    2    0    0 -0.33112073907E+02 -0.12238594753E+03  0.11002845069E+03  0.19325881384E+03  0.95749566959E+02 0.  0.
          5    1    1    2  502    0 -0.24210396406E+02  0.31881503645E+02  0.35969814158E+03  0.36194308810E+03  0.41800000000E+01 0.  1.
         -5    1    1    2    0  502  0.57322470313E+02  0.90504443886E+02  0.22421240177E+03  0.24852684658E+03  0.41800000000E+01 0.  1.
        -11    1    3    3    0    0 -0.79474068036E+01 -0.19979143017E+02  0.81110771721E+02  0.83912363331E+02  0.00000000000E+00 0. -1.
         11    1    3    3    0    0 -0.25164667103E+02 -0.10240680451E+03  0.28917678968E+02  0.10934645050E+03  0.00000000000E+00 0.  1.
</event>
<event>
 7    1  0.1105677E-005  0.2798495E+03  0.7561462E-02  0.1095771E+00
          2   -1    0    0  501    0  0.00000000000E+00  0.00000000000E+00  0.66449297191E+03  0.66449297191E+03  0.00000000000E+00 0. -1.
         -2   -1    0    0    0  501 -0.00000000000E+00 -0.00000000000E+00 -0.13452632898E+03  0.13452632898E+03  0.00000000000E+00 0.  1.
         23    2    1    2    0    0  0.32102477871E+02  0.27363800472E+03  0.20762691219E+03  0.35691203162E+03  0.91481894054E+02 0.  0.
          5    1    1    2  502    0 -0.11820830057E+02 -0.63546366736E+02  0.10632255122E+02  0.65638327199E+02  0.41800000000E+01 0.  1.
         -5    1    1    2    0  502 -0.20281647814E+02 -0.21009163798E+03  0.31170747561E+03  0.37646894207E+03  0.41800000000E+01 0.  1.
        -11    1    3    3    0    0 -0.19622652674E+02  0.12279206538E+03  0.54295190854E+02  0.13568679953E+03  0.00000000000E+00 0.  1.
         11    1    3    3    0    0  0.51725130546E+02  0.15084593934E+03  0.15333172133E+03  0.22122523209E+03  0.00000000000E+00 0. -1.
</event>
<event>
 7    1  0.6988825E-006  0.1409436E+03  0.7561462E-02  0.1212065E+00
          2   -1    0    0  501    0  0.00000000000E+00  0.00000000000E+00  0.17080327361E+03  0.17080327361E+03  0.00000000000E+00 0. -1.
         -2   -1    0    0    0  501 -0.00000000000E+00 -0.00000000000E+00 -0.17457299604E+03  0.17457299604E+03  0.00000000000E+00 0.  1.
         23    2    1    2    0    0  0.12069345659E+03 -0.38215273941E+02 -0.50270258822E+02  0.16142577716E+03  0.86624852007E+02 0.  0.
          5    1    1    2  502    0 -0.89576353751E+02  0.55008649947E+02  0.82217258750E+02  0.13351788179E+03  0.41800000000E+01 0. -1.
         -5    1    1    2    0  502 -0.31117102836E+02 -0.16793376006E+02 -0.35716722360E+02  0.50432610707E+02  0.41800000000E+01 0. -1.
        -11    1    3    3    0    0  0.59847273904E+02 -0.51320672116E+02  0.38683868456E+01  0.78933338945E+02  0.00000000000E+00 0. -1.
         11    1    3    3    0    0  0.60846182684E+02  0.13105398175E+02 -0.54138645668E+02  0.82492438219E+02  0.00000000000E+00 0.  1.
</event>
<event>
 7    1  0.6988825E-006  0.1324527E+03  0.7561462E-02  0.1223861E+00
         -2   -1    0    0    0  501 -0.00000000000E+00  0.00000000000E+00  0.16230742833E+03  0.16230742833E+03  0.00000000000E+00 0.  1.
          2   -1    0    0  501    0  0.00000000000E+00 -0.00000000000E+00 -0.12468676649E+03  0.12468676649E+03  0.00000000000E+00 0. -1.
         23    2    1    2    0    0  0.78791431869E+02 -0.43071739758E+02  0.37720129925E+02  0.13301014164E+03  0.90584905349E+02 0.  0.
          5    1    1    2  502    0  0.19044124120E+02  0.41465325910E+02 -0.25994512819E+02  0.52680537326E+02  0.41800000000E+01 0.  1.
         -5    1    1    2    0  502 -0.97835555989E+02  0.16064138484E+01  0.25895044734E+02  0.10130351585E+03  0.41800000000E+01 0.  1.
        -11    1    3    3    0    0  0.64203114581E+02 -0.67207006986E+02  0.10026312414E+02  0.93484483475E+02  0.00000000000E+00 0. -1.
         11    1    3    3    0    0  0.14588317288E+02  0.24135267228E+02  0.27693817511E+02  0.39525658170E+02  0.00000000000E+00 0.  1.
</event>
<event>
 6    1  0.6988825E-006  0.8294358E+02  0.7561462E-02  0.1320900E+00
          3   -1    0    0  501    0  0.00000000000E+00  0.00000000000E+00  0.20800297444E+03  0.20800297444E+03  0.00000000000E+00 0. -1.
         -3   -1    0    0    0  501 -0.00000000000E+00 -0.00000000000E+00 -0.38996309596E+02  0.38996309596E+02  0.00000000000E+00 0.  1.
          5    1    1    2  502    0 -0.45665584684E+02  0.43687389561E+02  0.67071294270E+02  0.92249469084E+02  0.41800000000E+01 0. -1.
         -5    1    1    2    0  502  0.56445663459E+02 -0.19026708342E+02  0.66718756169E+02  0.89537664580E+02  0.41800000000E+01 0.  1.
        -11    1    1    2    0    0 -0.21149705243E+02 -0.24636125873E+02  0.41800086364E+02  0.52929159732E+02  0.00000000000E+00 0. -1.
         11    1    1    2    0    0  0.10369626468E+02 -0.24555345835E-01 -0.65834719586E+01  0.12282990641E+02  0.00000000000E+00 0.  1.
</event>
<event>
 6    1  0.6988825E-006  0.1107694E+03  0.7561462E-02  0.1259152E+00
          2   -1    0    0  501    0  0.00000000000E+00  0.00000000000E+00  0.43633316134E+03  0.43633316134E+03  0.00000000000E+00 0.  1.
         -2   -1    0    0    0  501 -0.00000000000E+00 -0.00000000000E+00 -0.30651721313E+02  0.30651721313E+02  0.00000000000E+00 0. -1.
          5    1    1    2  502    0 -0.56609305503E+02  0.62891172389E+02  0.13128690345E+03  0.15624863664E+03  0.41800000000E+01 0. -1.
         -5    1    1    2    0  502 -0.26946660906E+02 -0.41135848732E+02  0.15383147214E+03  0.16155455675E+03  0.41800000000E+01 0.  1.
        -11    1    1    2    0    0  0.71949810530E+02 -0.13454439180E+02  0.95283257739E+02  0.12015280427E+03  0.00000000000E+00 0. -1.
         11    1    1    2    0    0  0.11606155879E+02 -0.83008844763E+01  0.25279806690E+02  0.29028884988E+02  0.00000000000E+00 0.  1.
</event>
<event>
 7    1  0.6988825E-006  0.1422215E+03  0.7561462E-02  0.1210371E+00
         -1   -1    0    0    0  501 -0.00000000000E+00  0.00000000000E+00  0.15930299848E+02  0.15930299848E+02  0.00000000000E+00 0.  1.
          1   -1    0    0  501    0  0.00000000000E+00 -0.00000000000E+00 -0.13318875554E+04  0.13318875554E+04  0.00000000000E+00 0. -1.
         23    2    1    2    0    0  0.81736457500E+02  0.45221123235E+02 -0.47112249023E+03  0.48867813407E+03  0.90133897307E+02 0.  0.
          5    1    1    2  502    0 -0.11510586493E+03 -0.35780991777E+02 -0.68441315369E+03  0.69495933468E+03  0.41800000000E+01 0.  1.
         -5    1    1    2    0  502  0.33369407425E+02 -0.94401314587E+01 -0.16042161167E+03  0.16418038654E+03  0.41800000000E+01 0.  1.
        -11    1    3    3    0    0  0.98707924709E+02  0.23735479742E+02 -0.34551654684E+03  0.36012263403E+03  0.00000000000E+00 0. -1.
         11    1    3    3    0    0 -0.16971467209E+02  0.21485643493E+02 -0.12560594339E+03  0.12855550004E+03  0.00000000000E+00 0.  1.
</event>
<event>
 7    1  0.6988825E-006  0.1039998E+03  0.7561462E-02  0.1272103E+00
         -3   -1    0    0    0  501 -0.00000000000E+00  0.00000000000E+00  0.89887325621E+02  0.89887325621E+02  0.00000000000E+00 0.  1.
          3   -1    0    0  501    0  0.00000000000E+00 -0.00000000000E+00 -0.19622801992E+03  0.19622801992E+03  0.00000000000E+00 0. -1.
         23    2    1    2    0    0 -0.10911311768E+02  0.60881177143E+02  0.13604285377E+01  0.10984203614E+03  0.90762589660E+02 0.  0.
          5    1    1    2  502    0  0.43524828188E+02 -0.80557998757E+02 -0.43387338490E+02  0.10140974003E+03  0.41800000000E+01 0.  1.
         -5    1    1    2    0  502 -0.32613516420E+02  0.19676821614E+02 -0.64313784349E+02  0.74863569374E+02  0.41800000000E+01 0.  1.
        -11    1    3    3    0    0  0.18258943221E+02  0.32755096535E+02  0.39307615878E+02  0.54326549886E+02  0.00000000000E+00 0.  1.
         11    1    3    3    0    0 -0.29170254989E+02  0.28126080608E+02 -0.37947187340E+02  0.55515486249E+02  0.00000000000E+00 0. -1.
</event>
<event>
 7    1  0.6988825E-006  0.1580765E+03  0.7561462E-02  0.1190886E+00
          1   -1    0    0  501    0  0.00000000000E+00  0.00000000000E+00  0.44988766869E+03  0.44988766869E+03  0.00000000000E+00 0. -1.
         -1   -1    0    0    0  501 -0.00000000000E+00 -0.00000000000E+00 -0.10118181495E+03  0.10118181495E+03  0.00000000000E+00 0.  1.
         23    2    1    2    0    0 -0.10536316054E+03 -0.70061354490E+02 -0.26675984130E+01  0.15721506849E+03  0.93270963785E+02 0.  0.
          5    1    1    2  502    0  0.43154563848E+02  0.85361819299E+02  0.11876990746E+03  0.15255399009E+03  0.41800000000E+01 0. -1.
         -5    1    1    2    0  502  0.62208596696E+02 -0.15300464809E+02  0.23260354470E+03  0.24130042506E+03  0.41800000000E+01 0. -1.
        -11    1    3    3    0    0 -0.52803812653E+02  0.16171478907E+02  0.74353515491E+01  0.55722920000E+02  0.00000000000E+00 0.  1.
         11    1    3    3    0    0 -0.52559347891E+02 -0.86232833398E+02 -0.10102949962E+02  0.10149214849E+03  0.00000000000E+00 0. -1.
</event>
<event>
 7    1  0.6988825E-006  0.1844657E+03  0.7561462E-02  0.1163550E+00
          2   -1    0    0  501    0  0.00000000000E+00  0.00000000000E+00  0.26585903028E+03  0.26585903028E+03  0.00000000000E+00 0.  1.
         -2   -1    0    0    0  501 -0.00000000000E+00 -0.00000000000E+00 -0.19011058172E+03  0.19011058172E+03  0.00000000000E+00 0. -1.
         23    2    1    2    0    0  0.49022071248E+02 -0.16228423837E+03 -0.64425613701E+02  0.20291523753E+03  0.91019758441E+02 0.  0.
          5    1    1    2  502    0 -0.64733351530E+02  0.10401467567E+03  0.14786729972E+03  0.19207204450E+03  0.41800000000E+01 0.  1.
         -5    1    1    2    0  502  0.15711280282E+02  0.58269562708E+02 -0.76932374579E+01  0.60982329973E+02  0.41800000000E+01 0.  1.
        -11    1    3    3    0    0  0.63960662167E+02 -0.81010319524E+02 -0.61664466044E+02  0.12023370803E+03  0.00000000000E+00 0. -1.
         11    1    3    3    0    0 -0.14938590919E+02 -0.81273918850E+02 -0.27611476568E+01  0.82681529499E+02  0.00000000000E+00 0.  1.
</event>
<event>
 7    1  0.6988825E-006  0.1102038E+03  0.7561462E-02  0.1260193E+00
          2   -1    0    0  501    0  0.00000000000E+00  0.00000000000E+00  0.33533874332E+03  0.33533874332E+03  0.00000000000E+00 0.  1.
         -2   -1    0    0    0  501 -0.00000000000E+00 -0.00000000000E+00 -0.55306046610E+02  0.55306046610E+02  0.00000000000E+00 0. -1.
         23    2    1    2    0    0 -0.67092561626E+02  0.71365976044E+01  0.80219680056E+02  0.14544070184E+03  0.10082389514E+03 0.  0.
          5    1    1    2  502    0 -0.17318174125E+02  0.37428622815E+02  0.93439377221E+02  0.10222138023E+03  0.41800000000E+01 0. -1.
         -5    1    1    2    0  502  0.84410735751E+02 -0.44565220419E+02  0.10637363943E+03  0.14298270786E+03  0.41800000000E+01 0. -1.
        -11    1    3    3    0    0 -0.49062668263E+02 -0.18186629297E+02  0.96927481730E+02  0.11014915168E+03  0.00000000000E+00 0.  1.
         11    1    3    3    0    0 -0.18029893364E+02  0.25323226902E+02 -0.16707801674E+02  0.35291550153E+02  0.00000000000E+00 0. -1.
</event>
<event>
 7    1  0.6988825E-006  0.9003904E+02  0.7561462E-02  0.1302757E+00
          1   -1    0    0  501    0  0.00000000000E+00  0.00000000000E+00  0.20957385026E+03  0.20957385026E+03  0.00000000000E+00 0. -1.
         -1   -1    0    0    0  501 -0.00000000000E+00 -0.00000000000E+00 -0.11397276058E+03  0.11397276058E+03  0.00000000000E+00 0.  1.
         23    2    1    2    0    0  0.16841924855E+02  0.35707506574E+02 -0.63660491377E+02  0.11721940067E+03  0.90161262587E+02 0.  0.
          5    1    1    2  502    0 -0.24837980836E+02  0.15656162741E+02  0.15056379309E+03  0.15345673304E+03  0.41800000000E+01 0. -1.
         -5    1    1    2    0  502  0.79960559813E+01 -0.51363669316E+02  0.86977879705E+01  0.52870477134E+02  0.41800000000E+01 0. -1.
        -11    1    3    3    0    0  0.52764447243E+02  0.90422062157E+01 -0.31396544596E+02  0.62061190761E+02  0.00000000000E+00 0. -1.
         11    1    3    3    0    0 -0.35922522388E+02  0.26665300359E+02 -0.32263946782E+02  0.55158209905E+02  0.00000000000E+00 0.  1.
</event>
<event>
 7    1  0.6988825E-006  0.1276245E+03  0.7561462E-02  0.1231024E+00
          2   -1    0    0  501    0  0.00000000000E+00  0.00000000000E+00  0.63578453090E+03  0.63578453090E+03  0.00000000000E+00 0. -1.
         -2   -1    0    0    0  501 -0.00000000000E+00 -0.00000000000E+00 -0.82757335959E+02  0.82757335959E+02  0.00000000000E+00 0.  1.
         23    2    1    2    0    0 -0.48033015157E+02  0.69507740378E+02 -0.24742899611E+01  0.14368862257E+03  0.11619725310E+03 0.  0.
          5    1    1    2  502    0  0.23811278449E+02  0.26513907298E+02  0.27548632804E+03  0.27781316312E+03  0.41800000000E+01 0. -1.
         -5    1    1    2    0  502  0.24221736707E+02 -0.96021647676E+02  0.28001515686E+03  0.29704008117E+03  0.41800000000E+01 0.  1.
        -11    1    3    3    0    0 -0.64113498098E+02  0.78871191265E+02  0.30245965711E+02  0.10604727197E+03  0.00000000000E+00 0.  1.
         11    1    3    3    0    0  0.16080482941E+02 -0.93634508875E+01 -0.32720255672E+02  0.37641350605E+02  0.00000000000E+00 0. -1.
</event>
<event>
 7    1  0.6988825E-006  0.1313271E+03  0.7561462E-02  0.1225500E+00
         -2   -1    0    0    0  501 -0.00000000000E+00  0.00000000000E+00  0.22599571663E+03  0.22599571663E+03  0.00000000000E+00 0.  1.
          2   -1    0    0  501    0  0.00000000000E+00 -0.00000000000E+00 -0.19885734481E+03  0.19885734481E+03  0.00000000000E+00 0. -1.
         23    2    1    2    0    0  0.89672549180E+02  0.52285981456E+02  0.16426503106E+03  0.21219009779E+03  0.85244631716E+02 0.  0.
          5    1    1    2  502    0 -0.69548561826E+02 -0.90269966268E+02 -0.73163387003E+02  0.13548440080E+03  0.41800000000E+01 0. -1.
         -5    1    1    2    0  502 -0.20123987354E+02  0.37983984812E+02 -0.63963272236E+02  0.77178562855E+02  0.41800000000E+01 0. -1.
        -11    1    3    3    0    0  0.34264991653E+02  0.98779052993E+01  0.21825036773E+01  0.35727104394E+02  0.00000000000E+00 0. -1.
         11    1    3    3    0    0  0.55407557527E+02  0.42408076157E+02  0.16208252738E+03  0.17646299339E+03  0.00000000000E+00 0.  1.
</event>
<event>
 7    1  0.6988825E-006  0.1921080E+03  0.7561462E-02  0.1156574E+00
          4   -1    0    0  501    0  0.00000000000E+00  0.00000000000E+00  0.73934311716E+03  0.73934311716E+03  0.00000000000E+00 0.  1.
         -4   -1    0    0    0  501 -0.00000000000E+00 -0.00000000000E+00 -0.66821067054E+02  0.66821067054E+02  0.00000000000E+00 0. -1.
         23    2    1    2    0    0 -0.40459086600E+00 -0.18217080511E+03  0.44724794917E+03  0.49059573149E+03  0.86412254870E+02 0.  0.
          5    1    1    2  502    0  0.14747944836E+02  0.91575483327E+02  0.19973877263E+03  0.22026488761E+03  0.41800000000E+01 0.  1.
         -5    1    1    2    0  502 -0.14343353970E+02  0.90595321782E+02  0.25535328310E+02  0.95303565116E+02  0.41800000000E+01 0.  1.
        -11    1    3    3    0    0  0.37859882763E+02 -0.12612673950E+03  0.26034978176E+03  0.29175903414E+03  0.00000000000E+00 0.  1.
         11    1    3    3    0    0 -0.38264473629E+02 -0.56044065609E+02  0.18689816741E+03  0.19883669735E+03  0.00000000000E+00 0. -1.
</event>
<event>
 7    1  0.6988825E-006  0.1078591E+03  0.7561462E-02  0.1264587E+00
         -1   -1    0    0    0  501 -0.00000000000E+00  0.00000000000E+00  0.18549913684E+03  0.18549913684E+03  0.00000000000E+00 0.  1.
          1   -1    0    0  501    0  0.00000000000E+00 -0.00000000000E+00 -0.70967640580E+02  0.70967640580E+02  0.00000000000E+00 0. -1.
         23    2    1    2    0    0 -0.43842071773E+02 -0.29348097951E+02  0.50845876729E+02  0.11798458618E+03  0.92474976538E+02 0.  0.
          5    1    1    2  502    0  0.52942060505E+02 -0.23078217104E+02  0.34582433370E+01  0.58007738469E+02  0.41800000000E+01 0. -1.
         -5    1    1    2    0  502 -0.90999887321E+01  0.52426315055E+02  0.60227376195E+02  0.80474452770E+02  0.41800000000E+01 0.  1.
        -11    1    3    3    0    0 -0.65028149375E+02  0.37558568325E+01  0.20360732126E+02  0.68244604801E+02  0.00000000000E+00 0.  1.
         11    1    3    3    0    0  0.21186077602E+02 -0.33103954783E+02  0.30485144603E+02  0.49739981382E+02  0.00000000000E+00 0. -1.
</event>
<event>
 7    1  0.6988825E-006  0.1084800E+03  0.7561462E-02  0.1263411E+00
         -2   -1    0    0    0  501 -0.00000000000E+00  0.00000000000E+00  0.15612049175E+02  0.15612049175E+02  0.00000000000E+00 0.  1.
          2   -1    0    0  501    0  0.00000000000E+00 -0.00000000000E+00 -0.10745242250E+04  0.10745242250E+04  0.00000000000E+00 0. -1.
         23    2    1    2    0    0 -0.15425590272E+02  0.93305442656E+01 -0.18691252772E+03  0.20902628829E+03  0.91818779601E+02 0.  0.
          5    1    1    2  502    0  0.57301540045E+02  0.30876872842E+02 -0.36518747645E+03  0.37096659301E+03  0.41800000000E+01 0.  1.
         -5    1    1    2    0  502 -0.41875949773E+02 -0.40207417108E+02 -0.50681217161E+03  0.51014339283E+03  0.41800000000E+01 0.  1.
        -11    1    3    3    0    0 -0.40055637644E+02 -0.27954100396E+02 -0.94520533988E+02  0.10639556937E+03  0.00000000000E+00 0.  1.
         11    1    3    3    0    0  0.24630047372E+02  0.37284644662E+02 -0.92391993730E+02  0.10263071892E+03  0.00000000000E+00 0. -1.
</event>
<event>
 7    1  0.6988825E-006  0.9282463E+02  0.7561462E-02  0.1296152E+00
          2   -1    0    0  501    0  0.00000000000E+00  0.00000000000E+00  0.38855856280E+03  0.38855856280E+03  0.00000000000E+00 0. -1.
         -2   -1    0    0    0  501 -0.00000000000E+00 -0.00000000000E+00 -0.39254866561E+02  0.39254866561E+02  0.00000000000E+00 0.  1.
         23    2    1    2    0    0 -0.33112633510E+02  0.49153377109E+02  0.16906763232E+03  0.20055895824E+03  0.90152817211E+02 0.  0.
          5    1    1    2  502    0  0.24955613990E+02 -0.62202640294E+02  0.25706726384E+02  0.71904515231E+02  0.41800000000E+01 0.  1.
         -5    1    1    2    0  502  0.81570195197E+01  0.13049263185E+02  0.15452933754E+03  0.15534995589E+03  0.41800000000E+01 0.  1.
        -11    1    3    3    0    0 -0.56495470711E+02  0.54571629237E+02  0.98278187660E+02  0.12581098163E+03  0.00000000000E+00 0.  1.
         11    1    3    3    0    0  0.23382837201E+02 -0.54182521281E+01  0.70789444660E+02  0.74747976607E+02  0.00000000000E+00 0. -1.
</event>
<event>
 7    1  0.6988825E-006  0.6311376E+02  0.7561462E-02  0.1385211E+00
          1   -1    0    0  501    0  0.00000000000E+00  0.00000000000E+00  0.28287156199E+03  0.28287156199E+03  0.00000000000E+00 0. -1.
         -1   -1    0    0    0  501 -0.00000000000E+00 -0.00000000000E+00 -0.40529473946E+02  0.40529473946E+02  0.00000000000E+00 0.  1.
         23    2    1    2    0    0  0.52201763784E+01  0.54184301254E+01  0.84082751702E+02  0.12153344064E+03  0.87429162373E+02 0.  0.
          5    1    1    2  502    0  0.14866081128E+02 -0.33967153869E+02 -0.24162007518E+01  0.37390885736E+02  0.41800000000E+01 0. -1.
         -5    1    1    2    0  502 -0.20086257506E+02  0.28548723743E+02  0.16067553709E+03  0.16447670956E+03  0.41800000000E+01 0. -1.
        -11    1    3    3    0    0 -0.24124300628E+02  0.17902557675E+01  0.88401681561E+02  0.91651755026E+02  0.00000000000E+00 0. -1.
         11    1    3    3    0    0  0.29344477007E+02  0.36281743580E+01 -0.43189298584E+01  0.29881685613E+02  0.00000000000E+00 0.  1.
</event>
<event>
 7    1  0.6988825E-006  0.1335505E+03  0.7561462E-02  0.1222281E+00
          2   -1    0    0  501    0  0.00000000000E+00  0.00000000000E+00  0.56283586877E+03  0.56283586877E+03  0.00000000000E+00 0. -1.
         -2   -1    0    0    0  501 -0.00000000000E+00 -0.00000000000E+00 -0.49591299622E+02  0.49591299622E+02  0.00000000000E+00 0.  1.
         23    2    1    2    0    0  0.36771505062E+02 -0.74999060596E+02  0.56980620415E+02  0.13200965351E+03  0.84869045250E+02 0.  0.
          5    1    1    2  502    0 -0.52734299314E+02  0.10332061063E+03  0.38189030383E+03  0.39914124250E+03  0.41800000000E+01 0. -1.
         -5    1    1    2    0  502  0.15962794252E+02 -0.28321550031E+02  0.74373644907E+02  0.81276272388E+02  0.41800000000E+01 0. -1.
        -11    1    3    3    0    0 -0.22162249887E+02 -0.49107849981E+02  0.18241968228E+02  0.56881593285E+02  0.00000000000E+00 0.  1.
         11    1    3    3    0    0  0.58933754949E+02 -0.25891210615E+02  0.38738652187E+02  0.75128060223E+02  0.00000000000E+00 0. -1.
</event>
<event>
 7    1  0.6988825E-006  0.8859217E+02  0.7561462E-02  0.1306297E+00
         -2   -1    0    0    0  501 -0.00000000000E+00  0.00000000000E+00  0.41232982913E+02  0.41232982913E+02  0.00000000000E+00 0.  1.
          2   -1    0    0  501    0  0.00000000000E+00 -0.00000000000E+00 -0.40337712258E+03  0.40337712258E+03  0.00000000000E+00 0. -1.
         23    2    1    2    0    0  0.24270694430E+02 -0.33674576783E+02 -0.56738496037E+02  0.11198008790E+03  0.87162144438E+02 0.  0.
          5    1    1    2  502    0 -0.69072007256E+02  0.37891156782E+02 -0.24364986973E+03  0.25610430173E+03  0.41800000000E+01 0.  1.
         -5    1    1    2    0  502  0.44801312826E+02 -0.42165799994E+01 -0.61755773901E+02  0.76525715861E+02  0.41800000000E+01 0.  1.
        -11    1    3    3    0    0 -0.29360700348E+01 -0.24065882990E+02  0.19083252298E+02  0.30853812562E+02  0.00000000000E+00 0.  1.
         11    1    3    3    0    0  0.27206764465E+02 -0.96086937928E+01 -0.75821748335E+02  0.81126275335E+02  0.00000000000E+00 0. -1.
</event>
<event>
 7    1  0.6988825E-006  0.1289243E+03  0.7561462E-02  0.1229061E+00
         -2   -1    0    0    0  501 -0.00000000000E+00  0.00000000000E+00  0.26403448838E+02  0.26403448838E+02  0.00000000000E+00 0.  1.
          2   -1    0    0  501    0  0.00000000000E+00 -0.00000000000E+00 -0.67212755739E+03  0.67212755739E+03  0.00000000000E+00 0. -1.
         23    2    1    2    0    0  0.31940169268E+02 -0.66525316047E+02 -0.24520487111E+03  0.27249270501E+03  0.93172170625E+02 0.  0.
          5    1    1    2  502    0  0.46090080057E+02  0.34484267880E+02 -0.12138333650E+03  0.13440553184E+03  0.41800000000E+01 0.  1.
         -5    1    1    2    0  502 -0.78030249325E+02  0.32041048168E+02 -0.27913590095E+03  0.29163276938E+03  0.41800000000E+01 0.  1.
        -11    1    3    3    0    0 -0.30360590635E+02 -0.33333268643E+02 -0.12756484159E+03  0.13529841489E+03  0.00000000000E+00 0. -1.
         11    1    3    3    0    0  0.62300759903E+02 -0.33192047405E+02 -0.11764002951E+03  0.13719429011E+03  0.00000000000E+00 0.  1.
</event>
<event>
 7    1  0.6988825E-006  0.1064325E+03  0.7561462E-02  0.1267323E+00
         -2   -1    0    0    0  501 -0.00000000000E+00  0.00000000000E+00  0.68052257566E+02  0.68052257566E+02  0.00000000000E+00 0.  1.
          2   -1    0    0  501    0  0.00000000000E+00 -0.00000000000E+00 -0.32415981162E+03  0.32415981162E+03  0.00000000000E+00 0. -1.
         23    2    1    2    0    0  0.25712094609E+02  0.51708613038E+02 -0.34095306575E+01  0.10871336385E+03  0.92043892289E+02 0.  0.
          5    1    1    2  502    0 -0.67427952781E+02 -0.51026531984E+02 -0.14471877682E+03  0.16766404668E+03  0.41800000000E+01 0. -1.
         -5    1    1    2    0  502  0.41715858172E+02 -0.68208105399E+00 -0.10797924657E+03  0.11583465866E+03  0.41800000000E+01 0.  1.
        -11    1    3    3    0    0 -0.13667011992E+02  0.44094476757E+02  0.31215148735E+02  0.55726973790E+02  0.00000000000E+00 0.  1.
         11    1    3    3    0    0  0.39379106602E+02  0.76141362807E+01 -0.34624679392E+02  0.52986390055E+02  0.00000000000E+00 0. -1.
</event>
<event>
 7    1  0.6988825E-006  0.1015638E+03  0.7561462E-02  0.1277041E+00
          1   -1    0    0  501    0  0.00000000000E+00  0.00000000000E+00  0.74044236828E+02  0.74044236828E+02  0.00000000000E+00 0. -1.
         -1   -1    0    0    0  501 -0.00000000000E+00 -0.00000000000E+00 -0.20221227173E+03  0.20221227173E+03  0.00000000000E+00 0.  1.
         23    2    1    2    0    0 -0.66362497799E+02 -0.91786893598E+01 -0.57418663589E+02  0.11769445893E+03  0.77890007592E+02 0.  0.
          5    1    1    2  502    0  0.52743647580E+01 -0.42401168253E+02 -0.65517406010E+02  0.78330587149E+02  0.41800000000E+01 0. -1.
         -5    1    1    2    0  502  0.61088133041E+02  0.51579857613E+02 -0.52319652996E+01  0.80231462474E+02  0.41800000000E+01 0. -1.
        -11    1    3    3    0    0 -0.67918617817E+02  0.28768024785E+01 -0.71792098772E+02  0.98870218392E+02  0.00000000000E+00 0.  1.
         11    1    3    3    0    0  0.15561200180E+01 -0.12055491838E+02  0.14373435183E+02  0.18824240541E+02  0.00000000000E+00 0. -1.
</event>
<event>
 7    1  0.6988825E-006  0.1168722E+03  0.7561462E-02  0.1248348E+00
          1   -1    0    0  501    0  0.00000000000E+00  0.00000000000E+00  0.20375902419E+04  0.20375902419E+04  0.00000000000E+00 0. -1.
         -1   -1    0    0    0  501 -0.00000000000E+00 -0.00000000000E+00 -0.10773578114E+02  0.10773578114E+02  0.00000000000E+00 0.  1.
         23    2    1    2    0    0  0.77616118859E+02 -0.56491809826E+02  0.72746522738E+03  0.73947975223E+03  0.91700929316E+02 0.  0.
          5    1    1    2  502    0 -0.61392017777E+02  0.59526302801E+02  0.38628362159E+03  0.39565751513E+03  0.41800000000E+01 0.  1.
         -5    1    1    2    0  502 -0.16224101081E+02 -0.30344929746E+01  0.91306781478E+03  0.91322655261E+03  0.41800000000E+01 0.  1.
        -11    1    3    3    0    0  0.17221569896E+01  0.21914610084E+02  0.84062568224E+02  0.86889189985E+02  0.00000000000E+00 0.  1.
         11    1    3    3    0    0  0.75893961869E+02 -0.78406419911E+02  0.64340265915E+03  0.65259056225E+03  0.00000000000E+00 0. -1.
</event>
<event>
 7    1  0.6988825E-006  0.3400299E+03  0.7561462E-02  0.1066783E+00
          2   -1    0    0  501    0  0.00000000000E+00  0.00000000000E+00  0.16189492364E+04  0.16189492364E+04  0.00000000000E+00 0. -1.
         -2   -1    0    0    0  501 -0.00000000000E+00 -0.00000000000E+00 -0.82193982889E+02  0.82193982889E+02  0.00000000000E+00 0.  1.
         23    2    1    2    0    0  0.15554160025E+03  0.28846987849E+03  0.49293346896E+03  0.59995321399E+03  0.97736349199E+02 0.  0.
          5    1    1    2  502    0  0.19531780409E+02 -0.49615591837E+02  0.13008030906E+03  0.14064692178E+03  0.41800000000E+01 0. -1.
         -5    1    1    2    0  502 -0.17507338066E+03 -0.23885428665E+03  0.91374147550E+03  0.96054308353E+03  0.41800000000E+01 0. -1.
        -11    1    3    3    0    0  0.23633167202E+02  0.18806384015E+02  0.10602349865E+03  0.11024150280E+03  0.00000000000E+00 0.  1.
         11    1    3    3    0    0  0.13190843305E+03  0.26966349448E+03  0.38690997030E+03  0.48971171119E+03  0.00000000000E+00 0. -1.
</event>
<event>
 7    1  0.6988825E-006  0.1146529E+03  0.7561462E-02  0.1252188E+00
          1   -1    0    0  501    0  0.00000000000E+00  0.00000000000E+00  0.17248318709E+03  0.17248318709E+03  0.00000000000E+00 0. -1.
         -1   -1    0    0    0  501 -0.00000000000E+00 -0.00000000000E+00 -0.27996129797E+03  0.27996129797E+03  0.00000000000E+00 0.  1.
         23    2    1    2    0    0 -0.17269719991E+01 -0.11196027539E+03 -0.21048565069E+03  0.25547886181E+03  0.91799531525E+02 0.  0.
          5    1    1    2  502    0  0.14534365779E+02  0.27181254044E+02  0.10660220394E+03  0.11104760531E+03  0.41800000000E+01 0. -1.
         -5    1    1    2    0  502 -0.12807393780E+02  0.84779021351E+02 -0.35946641345E+01  0.85918017941E+02  0.41800000000E+01 0. -1.
        -11    1    3    3    0    0 -0.41366599103E+01 -0.23275698233E+02 -0.14051357054E+03  0.14248836300E+03  0.00000000000E+00 0.  1.
         11    1    3    3    0    0  0.24096879112E+01 -0.88684577161E+02 -0.69972080146E+02  0.11299049881E+03  0.00000000000E+00 0. -1.
</event>
<event>
 7    1  0.6988825E-006  0.1243250E+03  0.7561462E-02  0.1236128E+00
         -1   -1    0    0    0  501 -0.00000000000E+00  0.00000000000E+00  0.22387424618E+02  0.22387424618E+02  0.00000000000E+00 0.  1.
          1   -1    0    0  501    0  0.00000000000E+00 -0.00000000000E+00 -0.15034644351E+04  0.15034644351E+04  0.00000000000E+00 0. -1.
         23    2    1    2    0    0  0.72305518833E+01  0.89701863310E+02 -0.20833604528E+03  0.24381549464E+03  0.89125655697E+02 0.  0.
          5    1    1    2  502    0  0.36214372796E+02 -0.66897398340E+02 -0.36025525616E+03  0.36822284651E+03  0.41800000000E+01 0.  1.
         -5    1    1    2    0  502 -0.43444924679E+02 -0.22804464971E+02 -0.91248570900E+03  0.91381351852E+03  0.41800000000E+01 0.  1.
        -11    1    3    3    0    0  0.44057441689E+02  0.30808361452E+02 -0.11959555861E+03  0.13112326621E+03  0.00000000000E+00 0.  1.
         11    1    3    3    0    0 -0.36826889806E+02  0.58893501858E+02 -0.88740486673E+02  0.11269222843E+03  0.00000000000E+00 0. -1.
</event>
<event>
 7    1  0.6988825E-006  0.9308081E+02  0.7561462E-02  0.1295558E+00
         -3   -1    0    0    0  501 -0.00000000000E+00  0.00000000000E+00  0.18790500946E+03  0.18790500946E+03  0.00000000000E+00 0.  1.
          3   -1    0    0  501    0  0.00000000000E+00 -0.00000000000E+00 -0.75380779615E+02  0.75380779615E+02  0.00000000000E+00 0. -1.
         23    2    1    2    0    0 -0.46153673542E+02 -0.10110703930E+02  0.40275192899E+02  0.11130081076E+03  0.92376357347E+02 0.  0.
          5    1    1    2  502    0 -0.97649064791E+01 -0.31034632964E+02  0.75542028716E+02  0.82356374035E+02  0.41800000000E+01 0.  1.
         -5    1    1    2    0  502  0.55918580021E+02  0.41145336893E+02 -0.32929917687E+01  0.69628604283E+02  0.41800000000E+01 0.  1.
        -11    1    3    3    0    0 -0.62887027622E+02 -0.17851739396E+02 -0.17648417435E+01  0.65395546553E+02  0.00000000000E+00 0. -1.
         11    1    3    3    0    0  0.16733354080E+02  0.77410354666E+01  0.42040034642E+02  0.45905264203E+02  0.00000000000E+00 0.  1.
</event>
<event>
 7    1  0.6988825E-006  0.5116000E+02  0.7561462E-02  0.1439183E+00
         -3   -1    0    0    0  501 -0.00000000000E+00  0.00000000000E+00  0.13568202156E+03  0.13568202156E+03  0.00000000000E+00 0.  1.
          3   -1    0    0  501    0  0.00000000000E+00 -0.00000000000E+00 -0.99587262920E+02  0.99587262920E+02  0.00000000000E+00 0. -1.
         23    2    1    2    0    0 -0.78246989011E+00  0.38735740228E+02  0.23633825980E+02  0.10372608456E+03  0.93270965784E+02 0.  0.
          5    1    1    2  502    0  0.45827072261E+01 -0.11173505897E+01  0.65760113571E+02  0.66061445751E+02  0.41800000000E+01 0. -1.
         -5    1    1    2    0  502 -0.38002373359E+01 -0.37618389638E+02 -0.53299180911E+02  0.65481754165E+02  0.41800000000E+01 0. -1.
        -11    1    3    3    0    0 -0.19712736657E+02  0.68002432393E+01  0.52635950126E+02  0.56616062564E+02  0.00000000000E+00 0.  1.
         11    1    3    3    0    0  0.18930266767E+02  0.31935496989E+02 -0.29002124146E+02  0.47110021999E+02  0.00000000000E+00 0. -1.
</event>
<event>
 7    1  0.6988825E-006  0.1097035E+03  0.7561462E-02  0.1261120E+00
          1   -1    0    0  501    0  0.00000000000E+00  0.00000000000E+00  0.36576051248E+03  0.36576051248E+03  0.00000000000E+00 0. -1.
         -1   -1    0    0    0  501 -0.00000000000E+00 -0.00000000000E+00 -0.42521896007E+02  0.42521896007E+02  0.00000000000E+00 0.  1.
         23    2    1    2    0    0 -0.19107686551E+02 -0.36131369962E+02  0.72321039084E+02  0.12495054019E+03  0.93336623133E+02 0.  0.
          5    1    1    2  502    0 -0.47673697103E+02  0.40098011734E+02  0.95773723249E+02  0.11432720763E+03  0.41800000000E+01 0.  1.
         -5    1    1    2    0  502  0.66781383654E+02 -0.39666417719E+01  0.15514385414E+03  0.16900466067E+03  0.41800000000E+01 0.  1.
        -11    1    3    3    0    0 -0.17309000634E+02 -0.61816820778E+02  0.21016220717E+02  0.67547038183E+02  0.00000000000E+00 0.  1.
         11    1    3    3    0    0 -0.17986859170E+01  0.25685450815E+02  0.51304818366E+02  0.57403502003E+02  0.00000000000E+00 0. -1.
</event>
<event>
 6    1  0.6988825E-006  0.1697593E+03  0.7561462E-02  0.1178099E+00
         -2   -1    0    0    0  501 -0.00000000000E+00  0.00000000000E+00  0.34505532149E+03  0.34505532149E+03  0.00000000000E+00 0.  1.
          2   -1    0    0  501    0  0.00000000000E+00 -0.00000000000E+00 -0.59710480100E+03  0.59710480100E+03  0.00000000000E+00 0. -1.
          5    1    1    2  502    0 -0.15020958703E+03 -0.68674558671E+02 -0.55002441939E+03  0.57430257650E+03  0.41800000000E+01 0. -1.
         -5    1    1    2    0  502  0.88942445201E+02  0.55886703850E+02  0.27548832194E+03  0.29486500327E+03  0.41800000000E+01 0.  1.
        -11    1    1    2    0    0  0.29564537685E+02  0.21194984702E+02  0.15014037818E+02  0.39353660525E+02  0.00000000000E+00 0.  1.
         11    1    1    2    0    0  0.31702604141E+02 -0.84071298814E+01  0.74725801275E+01  0.33638882204E+02  0.00000000000E+00 0. -1.
</event>
<event>
 7    1  0.6988825E-006  0.9423126E+02  0.7561462E-02  0.1292917E+00
          2   -1    0    0  501    0  0.00000000000E+00  0.00000000000E+00  0.39589278780E+03  0.39589278780E+03  0.00000000000E+00 0. -1.
         -2   -1    0    0    0  501 -0.00000000000E+00 -0.00000000000E+00 -0.55840658982E+02  0.55840658982E+02  0.00000000000E+00 0.  1.
         23    2    1    2    0    0  0.21668317969E+02 -0.52218839590E+02  0.33682782614E+02  0.11601702119E+03  0.95546303688E+02 0.  0.
          5    1    1    2  502    0 -0.38846535073E+02  0.15248029800E+02  0.28760016829E+03  0.29064219395E+03  0.41800000000E+01 0. -1.
         -5    1    1    2    0  502  0.17178217103E+02  0.36970809790E+02  0.18769177912E+02  0.45074231650E+02  0.41800000000E+01 0. -1.
        -11    1    3    3    0    0  0.65450848296E+01 -0.76584532730E+02  0.40004557253E+02  0.86650986088E+02  0.00000000000E+00 0. -1.
         11    1    3    3    0    0  0.15123233140E+02  0.24365693140E+02 -0.63217746392E+01  0.29366035098E+02  0.00000000000E+00 0.  1.
</event>
<event>
 7    1  0.6988825E-006  0.1072831E+03  0.7561462E-02  0.1265686E+00
         -1   -1    0    0    0  501 -0.00000000000E+00  0.00000000000E+00  0.41602408569E+03  0.41602408569E+03  0.00000000000E+00 0.  1.
          1   -1    0    0  501    0  0.00000000000E+00 -0.00000000000E+00 -0.48257375016E+02  0.48257375016E+02  0.00000000000E+00 0. -1.
         23    2    1    2    0    0  0.12245116254E+02 -0.68253028115E+01  0.31407533518E+03  0.32743547154E+03  0.91510350371E+02 0.  0.
          5    1    1    2  502    0  0.32528105210E+02  0.51940629829E+02  0.18923185759E+02  0.64276481040E+02  0.41800000000E+01 0.  1.
         -5    1    1    2    0  502 -0.44773221463E+02 -0.45115327017E+02  0.34768189738E+02  0.72569508127E+02  0.41800000000E+01 0.  1.
        -11    1    3    3    0    0  0.50345304994E+02  0.17919232948E+01  0.13363118201E+03  0.14281160152E+03  0.00000000000E+00 0.  1.
         11    1    3    3    0    0 -0.38100188740E+02 -0.86172261062E+01  0.18044415317E+03  0.18462387002E+03  0.00000000000E+00 0. -1.
</event>
<event>
 7    1  0.6988825E-006  0.1043449E+03  0.7561462E-02  0.1271416E+00
          1   -1    0    0  501    0  0.00000000000E+00  0.00000000000E+00  0.47044619635E+02  0.47044619635E+02  0.00000000000E+00 0. -1.
         -1   -1    0    0    0  501 -0.00000000000E+00 -0.00000000000E+00 -0.42086438610E+03  0.42086438610E+03  0.00000000000E+00 0.  1.
         23    2    1    2    0    0  0.18996214389E+01 -0.58976665588E+02 -0.28114912527E+03  0.30142196967E+03  0.91260711805E+02 0.  0.
          5    1    1    2  502    0 -0.55472888374E+02  0.58395146273E+02 -0.74398832593E+02  0.10972644688E+03  0.41800000000E+01 0. -1.
         -5    1    1    2    0  502  0.53573266935E+02  0.58151931461E+00 -0.18271808606E+02  0.56760589184E+02  0.41800000000E+01 0. -1.
        -11    1    3    3    0    0 -0.12124995986E+02 -0.59041963505E+02 -0.28100490298E+03  0.28739645871E+03  0.00000000000E+00 0.  1.
         11    1    3    3    0    0  0.14024617425E+02  0.65297917212E-01 -0.14422228852E+00  0.14025510964E+02  0.00000000000E+00 0. -1.
</event>
<event>
 7    1  0.6988825E-006  0.1523596E+03  0.7561462E-02  0.1197603E+00
         -1   -1    0    0    0  501 -0.00000000000E+00  0.00000000000E+00  0.22408127021E+03  0.22408127021E+03  0.00000000000E+00 0.  1.
          1   -1    0    0  501    0  0.00000000000E+00 -0.00000000000E+00 -0.42965294598E+03  0.42965294598E+03  0.00000000000E+00 0. -1.
         23    2    1    2    0    0  0.51665494291E+02 -0.12630579564E+03  0.16921654795E+03  0.23571870620E+03  0.91140501634E+02 0.  0.
          5    1    1    2  502    0 -0.23827624945E+02  0.99979455725E+02 -0.36361737632E+03  0.37788717369E+03  0.41800000000E+01 0.  1.
         -5    1    1    2    0  502 -0.27837869346E+02  0.26326339915E+02 -0.11170847401E+02  0.40128336306E+02  0.41800000000E+01 0.  1.
        -11    1    3    3    0    0 -0.16307860203E+02 -0.78587959941E+02  0.94713878684E+02  0.12414802684E+03  0.00000000000E+00 0.  1.
         11    1    3    3    0    0  0.67973354494E+02 -0.47717835699E+02  0.74502669269E+02  0.11157067936E+03  0.00000000000E+00 0. -1.
</event>
<event>
 7    1  0.6988825E-006  0.1321062E+03  0.7561462E-02  0.1224364E+00
         -2   -1    0    0    0  501 -0.00000000000E+00  0.00000000000E+00  0.36180188805E+02  0.36180188805E+02  0.00000000000E+00 0.  1.
          2   -1    0    0  501    0  0.00000000000E+00 -0.00000000000E+00 -0.11081420000E+04  0.11081420000E+04  0.00000000000E+00 0. -1.
         23    2    1    2    0    0  0.59394363794E+02  0.10662964119E+03 -0.19797706262E+03  0.25303430480E+03  0.99668807811E+02 0.  0.
          5    1    1    2  502    0 -0.20482171909E+02  0.81209565713E-01 -0.49942917487E+03  0.49986648124E+03  0.41800000000E+01 0.  1.
         -5    1    1    2    0  502 -0.38912191885E+02 -0.10671085075E+03 -0.37455557367E+03  0.39142140273E+03  0.41800000000E+01 0.  1.
        -11    1    3    3    0    0  0.28718061544E+02  0.90584268056E+02 -0.63787999835E+02  0.11445149890E+03  0.00000000000E+00 0.  1.
         11    1    3    3    0    0  0.30676302250E+02  0.16045373134E+02 -0.13418906279E+03  0.13858280590E+03  0.00000000000E+00 0. -1.
</event>
<event>
 7    1  0.6988825E-006  0.9737813E+02  0.7561462E-02  0.1285908E+00
         -2   -1    0    0    0  501 -0.00000000000E+00  0.00000000000E+00  0.18643609192E+03  0.18643609192E+03  0.00000000000E+00 0.  1.
          2   -1    0    0  501    0  0.00000000000E+00 -0.00000000000E+00 -0.78235205234E+02  0.78235205234E+02  0.00000000000E+00 0. -1.
         23    2    1    2    0    0 -0.43596696517E+02 -0.86849424043E+01  0.80767445004E+02  0.12911389003E+03  0.90393120610E+02 0.  0.
          5    1    1    2  502    0  0.19372356767E+02  0.61571432124E+02  0.39791736562E+02  0.75941978899E+02  0.41800000000E+01 0.  1.
         -5    1    1    2    0  502  0.24224339750E+02 -0.52886489720E+02 -0.12358294876E+02  0.59615428233E+02  0.41800000000E+01 0.  1.
        -11    1    3    3    0    0  0.77854474042E+01  0.13660086529E+02 -0.12651056109E+02  0.20180693148E+02  0.00000000000E+00 0. -1.
         11    1    3    3    0    0 -0.51382143921E+02 -0.22345028934E+02  0.93418501113E+02  0.10893319688E+03  0.00000000000E+00 0.  1.
</event>
<event>
 7    1  0.6988825E-006  0.1059766E+03  0.7561462E-02  0.1268207E+00
          3   -1    0    0  501    0  0.00000000000E+00  0.00000000000E+00  0.49997095291E+03  0.49997095291E+03  0.00000000000E+00 0. -1.
         -3   -1    0    0    0  501 -0.00000000000E+00 -0.00000000000E+00 -0.32704605150E+02  0.32704605150E+02  0.00000000000E+00 0.  1.
         23    2    1    2    0    0 -0.23765967266E+01 -0.36939569772E+02  0.87848311463E+02  0.13145731060E+03  0.90518057077E+02 0.  0.
          5    1    1    2  502    0 -0.33020419733E+01 -0.39033969108E+02  0.23100966824E+03  0.23434481741E+03  0.41800000000E+01 0. -1.
         -5    1    1    2    0  502  0.56786387000E+01  0.75973538880E+02  0.14840836805E+03  0.16687343005E+03  0.41800000000E+01 0. -1.
        -11    1    3    3    0    0 -0.41351424930E+02 -0.39517007343E+02  0.63348143817E+02  0.85349408540E+02  0.00000000000E+00 0.  1.
         11    1    3    3    0    0  0.38974828203E+02  0.25774375715E+01  0.24500167645E+02  0.46107902062E+02  0.00000000000E+00 0. -1.
</event>
<event>
 7    1  0.6988825E-006  0.1336395E+03  0.7561462E-02  0.1222153E+00
         -1   -1    0    0    0  501 -0.00000000000E+00  0.00000000000E+00  0.63031481665E+02  0.63031481665E+02  0.00000000000E+00 0.  1.
          1   -1    0    0  501    0  0.00000000000E+00 -0.00000000000E+00 -0.44108794571E+03  0.44108794571E+03  0.00000000000E+00 0. -1.
         23    2    1    2    0    0 -0.12487921707E+03  0.56456708378E+01 -0.15405289307E+03  0.21872100950E+03  0.92086338183E+02 0.  0.
          5    1    1    2  502    0  0.79169533055E+02 -0.35418912478E+02 -0.44158116827E+02  0.97415224718E+02  0.41800000000E+01 0. -1.
         -5    1    1    2    0  502  0.45709684016E+02  0.29773241641E+02 -0.17984545415E+03  0.18798319316E+03  0.41800000000E+01 0. -1.
        -11    1    3    3    0    0 -0.49772872062E+02  0.88861025302E+01 -0.37897209819E+01  0.50701711969E+02  0.00000000000E+00 0.  1.
         11    1    3    3    0    0 -0.75106345008E+02 -0.32404316925E+01 -0.15026317209E+03  0.16801929754E+03  0.00000000000E+00 0. -1.
</event>
<event>
 7    1  0.6988825E-006  0.1220214E+03  0.7561462E-02  0.1239799E+00
         -1   -1    0    0    0  501 -0.00000000000E+00  0.00000000000E+00  0.30556204618E+02  0.30556204618E+02  0.00000000000E+00 0.  1.
          1   -1    0    0  501    0  0.00000000000E+00 -0.00000000000E+00 -0.71529698676E+03  0.71529698676E+03  0.00000000000E+00 0. -1.
         23    2    1    2    0    0 -0.72680509531E+02  0.77048850979E+01 -0.14693543865E+03  0.18887587521E+03  0.93500007406E+02 0.  0.
          5    1    1    2  502    0 -0.45275719894E+01  0.42569530690E+02 -0.27755327680E+03  0.28086644106E+03  0.41800000000E+01 0. -1.
         -5    1    1    2    0  502  0.77208081520E+02 -0.50274415788E+02 -0.26025206669E+03  0.27611087510E+03  0.41800000000E+01 0. -1.
        -11    1    3    3    0    0 -0.77513373670E+02  0.32125495130E+02 -0.74237768273E+02  0.11203399829E+03  0.00000000000E+00 0.  1.
         11    1    3    3    0    0  0.48328641389E+01 -0.24420610033E+02 -0.72697670374E+02  0.76841876916E+02  0.00000000000E+00 0. -1.
</event>
<event>
 7    1  0.6988825E-006  0.1131432E+03  0.7561462E-02  0.1254857E+00
         -1   -1    0    0    0  501 -0.00000000000E+00  0.00000000000E+00  0.37827875534E+02  0.37827875534E+02  0.00000000000E+00 0.  1.
          1   -1    0    0  501    0  0.00000000000E+00 -0.00000000000E+00 -0.43437390628E+03  0.43437390628E+03  0.00000000000E+00 0. -1.
         23    2    1    2    0    0 -0.12884710107E+02 -0.33474081807E+02 -0.11343478446E+03  0.15204099948E+03  0.94670403451E+02 0.  0.
          5    1    1    2  502    0 -0.63652756576E+02  0.15637296865E+02 -0.88255129192E+02  0.11001199344E+03  0.41800000000E+01 0. -1.
         -5    1    1    2    0  502  0.76537466683E+02  0.17836784943E+02 -0.19485611710E+03  0.21014878890E+03  0.41800000000E+01 0.  1.
        -11    1    3    3    0    0  0.24255269068E+02 -0.37384026692E+02 -0.15425002332E+02  0.47157334808E+02  0.00000000000E+00 0.  1.
         11    1    3    3    0    0 -0.37139979174E+02  0.39099448845E+01 -0.98009782126E+02  0.10488366467E+03  0.00000000000E+00 0. -1.
</event>
<event>
 7    1  0.6988825E-006  0.9749590E+02  0.7561462E-02  0.1285652E+00
          2   -1    0    0  501    0  0.00000000000E+00  0.00000000000E+00  0.30331917750E+03  0.30331917750E+03  0.00000000000E+00 0. -1.
         -2   -1    0    0    0  501 -0.00000000000E+00 -0.00000000000E+00 -0.59090290563E+02  0.59090290563E+02  0.00000000000E+00 0.  1.
         23    2    1    2    0    0 -0.20619221566E+02 -0.68866228117E+02  0.67721936314E+02  0.13444063480E+03  0.91215754961E+02 0.  0.
          5    1    1    2  502    0 -0.65032003204E+01  0.57563836241E+02  0.10120064628E+02  0.58955703415E+02  0.41800000000E+01 0.  1.
         -5    1    1    2    0  502  0.27122421886E+02  0.11302391877E+02  0.16638688599E+03  0.16901312985E+03  0.41800000000E+01 0.  1.
        -11    1    3    3    0    0  0.24046107724E+02  0.12717816389E+01 -0.42677259544E+01  0.24454983338E+02  0.00000000000E+00 0.  1.
         11    1    3    3    0    0 -0.44665329290E+02 -0.70138009756E+02  0.71989662269E+02  0.10998565146E+03  0.00000000000E+00 0. -1.
</event>
<event>
 7    1  0.6988825E-006  0.1082307E+03  0.7561462E-02  0.1263882E+00
          1   -1    0    0  501    0  0.00000000000E+00  0.00000000000E+00  0.15909196434E+03  0.15909196434E+03  0.00000000000E+00 0. -1.
         -1   -1    0    0    0  501 -0.00000000000E+00 -0.00000000000E+00 -0.11294741355E+03  0.11294741355E+03  0.00000000000E+00 0.  1.
         23    2    1    2    0    0 -0.38391384629E+02 -0.66585743771E+02 -0.29659160659E+01  0.11722845032E+03  0.88465548198E+02 0.  0.
          5    1    1    2  502    0  0.73535461498E+02  0.13392009213E+02  0.51515017922E+02  0.90873975813E+02  0.41800000000E+01 0.  1.
         -5    1    1    2    0  502 -0.35144076869E+02  0.53193734558E+02 -0.24045510722E+01  0.63936951766E+02  0.41800000000E+01 0.  1.
        -11    1    3    3    0    0 -0.14899179608E+02 -0.37289709615E+02 -0.45369153253E+02  0.60587689039E+02  0.00000000000E+00 0.  1.
         11    1    3    3    0    0 -0.23492205020E+02 -0.29296034157E+02  0.42403237187E+02  0.56640761277E+02  0.00000000000E+00 0. -1.
</event>
<event>
 7    1  0.6988825E-006  0.8922294E+02  0.7561462E-02  0.1304744E+00
          1   -1    0    0  501    0  0.00000000000E+00  0.00000000000E+00  0.13517990016E+04  0.13517990016E+04  0.00000000000E+00 0. -1.
         -1   -1    0    0    0  501 -0.00000000000E+00 -0.00000000000E+00 -0.31261673825E+02  0.31261673825E+02  0.00000000000E+00 0.  1.
         23    2    1    2    0    0  0.26653286534E+02  0.44115752496E+02  0.68846430094E+02  0.12523555850E+03  0.91035799964E+02 0.  0.
          5    1    1    2  502    0 -0.45943850332E+02 -0.46549457710E+02  0.12084961135E+04  0.12102718778E+04  0.41800000000E+01 0. -1.
         -5    1    1    2    0  502  0.19290563798E+02  0.24337052132E+01  0.43194784164E+02  0.47553239129E+02  0.41800000000E+01 0.  1.
        -11    1    3    3    0    0  0.39308133584E+01 -0.22394095158E+02  0.46032532226E+02  0.51341414226E+02  0.00000000000E+00 0. -1.
         11    1    3    3    0    0  0.22722473176E+02  0.66509847654E+02  0.22813897868E+02  0.73894144275E+02  0.00000000000E+00 0.  1.
</event>
<event>
 7    1  0.6988825E-006  0.8131293E+02  0.7561462E-02  0.1325366E+00
          1   -1    0    0  501    0  0.00000000000E+00  0.00000000000E+00  0.37808780519E+03  0.37808780519E+03  0.00000000000E+00 0. -1.
         -1   -1    0    0    0  501 -0.00000000000E+00 -0.00000000000E+00 -0.50433473443E+02  0.50433473443E+02  0.00000000000E+00 0.  1.
         23    2    1    2    0    0  0.13940869818E+02 -0.20446955894E+02  0.20985901790E+02  0.96399433827E+02  0.90774538895E+02 0.  0.
          5    1    1    2  502    0 -0.57331693700E+02  0.55109062526E+01  0.26075500510E+03  0.26707290816E+03  0.41800000000E+01 0. -1.
         -5    1    1    2    0  502  0.43390823882E+02  0.14936049641E+02  0.45913424854E+02  0.65048936639E+02  0.41800000000E+01 0. -1.
        -11    1    3    3    0    0 -0.17092890870E+02 -0.21840359267E+02  0.47865436512E+02  0.55319691103E+02  0.00000000000E+00 0. -1.
         11    1    3    3    0    0  0.31033760687E+02  0.13934033734E+01 -0.26879534723E+02  0.41079742724E+02  0.00000000000E+00 0.  1.
</event>
<event>
 7    1  0.6988825E-006  0.1373247E+03  0.7561462E-02  0.1216975E+00
          1   -1    0    0  501    0  0.00000000000E+00  0.00000000000E+00  0.29627518657E+03  0.29627518657E+03  0.00000000000E+00 0. -1.
         -1   -1    0    0    0  501 -0.00000000000E+00 -0.00000000000E+00 -0.11467745910E+03  0.11467745910E+03  0.00000000000E+00 0.  1.
         23    2    1    2    0    0  0.10029752320E+03 -0.70562703285E+02 -0.87619943515E+01  0.15225773984E+03  0.89816248765E+02 0.  0.
          5    1    1    2  502    0 -0.40784716290E+02  0.27165308864E+02 -0.54175124119E+01  0.49478974619E+02  0.41800000000E+01 0. -1.
         -5    1    1    2    0  502 -0.59512806908E+02  0.43397394421E+02  0.19577723423E+03  0.20921593121E+03  0.41800000000E+01 0. -1.
        -11    1    3    3    0    0  0.61004931033E+02 -0.89311217921E+02 -0.18317541286E+01  0.10817324336E+03  0.00000000000E+00 0. -1.
         11    1    3    3    0    0  0.39292592165E+02  0.18748514636E+02 -0.69302402230E+01  0.44084496477E+02  0.00000000000E+00 0.  1.
</event>
<event>
 7    1  0.6988825E-006  0.1007648E+03  0.7561462E-02  0.1278696E+00
          3   -1    0    0  501    0  0.00000000000E+00  0.00000000000E+00  0.62628235535E+03  0.62628235535E+03  0.00000000000E+00 0. -1.
         -3   -1    0    0    0  501 -0.00000000000E+00 -0.00000000000E+00 -0.17943701455E+02  0.17943701455E+02  0.00000000000E+00 0.  1.
         23    2    1    2    0    0  0.42224962140E+02  0.26535886491E+02  0.16714842179E+03  0.18294211371E+03  0.55155429128E+02 0.  0.
          5    1    1    2  502    0  0.41010572384E+01  0.45893929061E+02  0.11579829389E+03  0.12469879175E+03  0.41800000000E+01 0.  1.
         -5    1    1    2    0  502 -0.46326019379E+02 -0.72429815551E+02  0.32539193821E+03  0.33658515134E+03  0.41800000000E+01 0.  1.
        -11    1    3    3    0    0 -0.51857441956E+01  0.20789563911E+02  0.24685958795E+02  0.32687833702E+02  0.00000000000E+00 0. -1.
         11    1    3    3    0    0  0.47410706336E+02  0.57463225800E+01  0.14246246300E+03  0.15025428001E+03  0.00000000000E+00 0.  1.
</event>
<event>
 7    1  0.6988825E-006  0.2148445E+03  0.7561462E-02  0.1137786E+00
          1   -1    0    0  501    0  0.00000000000E+00  0.00000000000E+00  0.58216898598E+03  0.58216898598E+03  0.00000000000E+00 0. -1.
         -1   -1    0    0    0  501 -0.00000000000E+00 -0.00000000000E+00 -0.81352356152E+02  0.81352356152E+02  0.00000000000E+00 0.  1.
         23    2    1    2    0    0 -0.11909690191E+02  0.18766246183E+03  0.26252545833E+03  0.33520828576E+03  0.89921845369E+02 0.  0.
          5    1    1    2  502    0 -0.56687487305E+02 -0.87235194832E+02  0.10695007471E+03  0.14926232383E+03  0.41800000000E+01 0.  1.
         -5    1    1    2    0  502  0.68597177495E+02 -0.10042726700E+03  0.13134109679E+03  0.17905073254E+03  0.41800000000E+01 0.  1.
        -11    1    3    3    0    0 -0.37568126624E+02  0.43618120298E+02  0.45060921129E+02  0.73105342960E+02  0.00000000000E+00 0.  1.
         11    1    3    3    0    0  0.25658436433E+02  0.14404434153E+03  0.21746453720E+03  0.26210294280E+03  0.00000000000E+00 0. -1.
</event>
<event>
 7    1  0.6988825E-006  0.1714817E+03  0.7561462E-02  0.1176311E+00
          3   -1    0    0  501    0  0.00000000000E+00  0.00000000000E+00  0.33556902461E+03  0.33556902461E+03  0.00000000000E+00 0. -1.
         -3   -1    0    0    0  501 -0.00000000000E+00 -0.00000000000E+00 -0.97315879657E+02  0.97315879657E+02  0.00000000000E+00 0.  1.
         23    2    1    2    0    0 -0.13056290509E+03 -0.36850381958E+02  0.54689055585E+02  0.17260069328E+03  0.91626872072E+02 0.  0.
          5    1    1    2  502    0 -0.22444844219E+02 -0.93134252625E+01  0.24492151422E+02  0.34754119230E+02  0.41800000000E+01 0.  1.
         -5    1    1    2    0  502  0.15300774931E+03  0.46163807221E+02  0.15907193795E+03  0.22553009175E+03  0.41800000000E+01 0.  1.
        -11    1    3    3    0    0 -0.18358630459E+02  0.24448991601E+02 -0.58606057390E+01  0.31131000663E+02  0.00000000000E+00 0.  1.
         11    1    3    3    0    0 -0.11220427463E+03 -0.61299373559E+02  0.60549661324E+02  0.14146969262E+03  0.00000000000E+00 0. -1.
</event>
<event>
 7    1  0.6988825E-006  0.1081494E+03  0.7561462E-02  0.1264036E+00
         -2   -1    0    0    0  501 -0.00000000000E+00  0.00000000000E+00  0.32777298195E+03  0.32777298195E+03  0.00000000000E+00 0.  1.
          2   -1    0    0  501    0  0.00000000000E+00 -0.00000000000E+00 -0.45918434751E+02  0.45918434751E+02  0.00000000000E+00 0. -1.
         23    2    1    2    0    0 -0.62509872796E+00  0.56198979924E+02  0.10211323971E+03  0.14748671743E+03  0.90368700334E+02 0.  0.
          5    1    1    2  502    0 -0.40014375644E+02  0.20714940067E+00  0.81943153460E+01  0.41058645533E+02  0.41800000000E+01 0.  1.
         -5    1    1    2    0  502  0.40639474372E+02 -0.56406129325E+02  0.17154699214E+03  0.18514605374E+03  0.41800000000E+01 0.  1.
        -11    1    3    3    0    0  0.40580273024E+02  0.52890864003E+01  0.39529015736E+02  0.56897065642E+02  0.00000000000E+00 0. -1.
         11    1    3    3    0    0 -0.41205371752E+02  0.50909893524E+02  0.62584223973E+02  0.90589651783E+02  0.00000000000E+00 0.  1.
</event>
<event>
 7    1  0.6988825E-006  0.1133804E+03  0.7561462E-02  0.1254435E+00
          2   -1    0    0  501    0  0.00000000000E+00  0.00000000000E+00  0.30915102966E+03  0.30915102966E+03  0.00000000000E+00 0. -1.
         -2   -1    0    0    0  501 -0.00000000000E+00 -0.00000000000E+00 -0.73622309743E+02  0.73622309743E+02  0.00000000000E+00 0.  1.
         23    2    1    2    0    0  0.72652185233E+02  0.20567915375E+02  0.16716669754E+02  0.11966068253E+03  0.91311843339E+02 0.  0.
          5    1    1    2  502    0 -0.10281437204E+03  0.59982640954E+01  0.17793136240E+03  0.20563029056E+03  0.41800000000E+01 0. -1.
         -5    1    1    2    0  502  0.30162186811E+02 -0.26566179471E+02  0.40880687768E+02  0.57482366316E+02  0.41800000000E+01 0. -1.
        -11    1    3    3    0    0  0.57062548517E+02 -0.50385179434E+00  0.50980515410E+02  0.76520593707E+02  0.00000000000E+00 0. -1.
         11    1    3    3    0    0  0.15589636716E+02  0.21071767170E+02 -0.34263845655E+02  0.43140088823E+02  0.00000000000E+00 0.  1.
</event>
<event>
 7    1  0.6988825E-006  0.3298307E+03  0.7561462E-02  0.1071212E+00
          1   -1    0    0  501    0  0.00000000000E+00  0.00000000000E+00  0.23482607335E+04  0.23482607335E+04  0.00000000000E+00 0. -1.
         -1   -1    0    0    0  501 -0.00000000000E+00 -0.00000000000E+00 -0.53770953175E+02  0.53770953175E+02  0.00000000000E+00 0.  1.
         23    2    1    2    0    0 -0.18772756421E+03 -0.25650565283E+03  0.74233100545E+03  0.81272964878E+03  0.91855168940E+02 0.  0.
          5    1    1    2  502    0  0.14128491721E+03  0.88501490372E+02  0.80042070778E+03  0.81760915080E+03  0.41800000000E+01 0. -1.
         -5    1    1    2    0  502  0.46442647004E+02  0.16800416246E+03  0.75173806707E+03  0.77169288707E+03  0.41800000000E+01 0. -1.
        -11    1    3    3    0    0 -0.14302004595E+03 -0.17967741607E+03  0.42372352731E+03  0.48195470221E+03  0.00000000000E+00 0.  1.
         11    1    3    3    0    0 -0.44707518269E+02 -0.76828236760E+02  0.31860747814E+03  0.33077494657E+03  0.00000000000E+00 0. -1.
</event>
<event>
 7    1  0.6988825E-006  0.6972501E+02  0.7561462E-02  0.1361031E+00
         -3   -1    0    0    0  501 -0.00000000000E+00  0.00000000000E+00  0.82112308444E+02  0.82112308444E+02  0.00000000000E+00 0. -1.
          3   -1    0    0  501    0  0.00000000000E+00 -0.00000000000E+00 -0.16155015462E+03  0.16155015462E+03  0.00000000000E+00 0.  1.
         23    2    1    2    0    0  0.10530103926E+02 -0.28970742720E+02 -0.59800431239E+01  0.95360578364E+02  0.90042723014E+02 0.  0.
          5    1    1    2  502    0  0.12938002948E+02  0.35531616790E+02 -0.10298684042E+03  0.10978911335E+03  0.41800000000E+01 0.  1.
         -5    1    1    2    0  502 -0.23468106874E+02 -0.65608740705E+01  0.29529037366E+02  0.38512771344E+02  0.41800000000E+01 0.  1.
        -11    1    3    3    0    0  0.22436833931E+01 -0.52081883902E+02  0.23341591671E+02  0.57117306027E+02  0.00000000000E+00 0. -1.
         11    1    3    3    0    0  0.82864205327E+01  0.23111141183E+02 -0.29321634795E+02  0.38243272338E+02  0.00000000000E+00 0.  1.
</event>
<event>
 7    1  0.6988825E-006  0.6889987E+02  0.7561462E-02  0.1363875E+00
         -1   -1    0    0    0  501 -0.00000000000E+00  0.00000000000E+00  0.24526233270E+03  0.24526233270E+03  0.00000000000E+00 0.  1.
          1   -1    0    0  501    0  0.00000000000E+00 -0.00000000000E+00 -0.53933907303E+02  0.53933907303E+02  0.00000000000E+00 0. -1.
         23    2    1    2    0    0  0.34083340440E+02 -0.46734473823E+00  0.10937034024E+03  0.14582357515E+03  0.90226111740E+02 0.  0.
          5    1    1    2  502    0 -0.16294758053E+02 -0.48029044029E+02 -0.60408411575E+01  0.51247169407E+02  0.41800000000E+01 0. -1.
         -5    1    1    2    0  502 -0.17788582387E+02  0.48496388767E+02  0.87998926311E+02  0.10212549544E+03  0.41800000000E+01 0. -1.
        -11    1    3    3    0    0  0.22574489846E+02 -0.42489567058E+01  0.12440937218E+03  0.12651226467E+03  0.00000000000E+00 0.  1.
         11    1    3    3    0    0  0.11508850595E+02  0.37816119675E+01 -0.15039031939E+02  0.19311310488E+02  0.00000000000E+00 0. -1.
</event>
<event>
 7    1  0.6988825E-006  0.1822317E+03  0.7561462E-02  0.1165660E+00
          3   -1    0    0  501    0  0.00000000000E+00  0.00000000000E+00  0.23433566232E+03  0.23433566232E+03  0.00000000000E+00 0. -1.
         -3   -1    0    0    0  501 -0.00000000000E+00 -0.00000000000E+00 -0.16054753538E+03  0.16054753538E+03  0.00000000000E+00 0.  1.
         23    2    1    2    0    0 -0.99502100704E+02 -0.11836809220E+03 -0.18235311573E+01  0.18210058695E+03  0.96154174146E+02 0.  0.
          5    1    1    2  502    0  0.41788742534E+01  0.82249103235E+02  0.73924854139E+02  0.11074626148E+03  0.41800000000E+01 0. -1.
         -5    1    1    2    0  502  0.95323226451E+02  0.36118988964E+02  0.16868039657E+01  0.10203634927E+03  0.41800000000E+01 0. -1.
        -11    1    3    3    0    0 -0.61911544249E+02 -0.12711018010E+03  0.99918611353E+01  0.14173875435E+03  0.00000000000E+00 0. -1.
         11    1    3    3    0    0 -0.37590556455E+02  0.87420879009E+01 -0.11815392293E+02  0.40361832596E+02  0.00000000000E+00 0.  1.
</event>
<event>
 7    1  0.6988825E-006  0.1015632E+03  0.7561462E-02  0.1277043E+00
         -2   -1    0    0    0  501 -0.00000000000E+00  0.00000000000E+00  0.40273651444E+02  0.40273651444E+02  0.00000000000E+00 0.  1.
          2   -1    0    0  501    0  0.00000000000E+00 -0.00000000000E+00 -0.37916115949E+03  0.37916115949E+03  0.00000000000E+00 0. -1.
         23    2    1    2    0    0 -0.88017300058E+00  0.41042584432E+02 -0.75500394294E+02  0.12497613965E+03  0.90738401471E+02 0.  0.
          5    1    1    2  502    0  0.24274693668E+02 -0.65181578455E+02 -0.24735469641E+03  0.25698193936E+03  0.41800000000E+01 0.  1.
         -5    1    1    2    0  502 -0.23394520668E+02  0.24138994023E+02 -0.16032417341E+02  0.37476731921E+02  0.41800000000E+01 0.  1.
        -11    1    3    3    0    0 -0.35994071674E+02 -0.10237444568E+02 -0.27132124642E+02  0.46222620594E+02  0.00000000000E+00 0.  1.
         11    1    3    3    0    0  0.35113898674E+02  0.51280029000E+02 -0.48368269652E+02  0.78753519054E+02  0.00000000000E+00 0. -1.
</event>
<event>
 7    1  0.6988825E-006  0.8680263E+02  0.7561462E-02  0.1310785E+00
         -1   -1    0    0    0  501 -0.00000000000E+00  0.00000000000E+00  0.69410592867E+02  0.69410592867E+02  0.00000000000E+00 0.  1.
          1   -1    0    0  501    0  0.00000000000E+00 -0.00000000000E+00 -0.30270475862E+03  0.30270475862E+03  0.00000000000E+00 0. -1.
         23    2    1    2    0    0 -0.20241051735E+01  0.55707410636E+02 -0.78213399805E+01  0.10830974502E+03  0.92533317820E+02 0.  0.
          5    1    1    2  502    0 -0.65842018168E+01 -0.70857513270E+02 -0.23352306674E+03  0.24416108207E+03  0.41800000000E+01 0. -1.
         -5    1    1    2    0  502  0.86083069903E+01  0.15150102634E+02  0.80502409625E+01  0.19644524393E+02  0.41800000000E+01 0. -1.
        -11    1    3    3    0    0 -0.31947689412E+02  0.19501693224E+02 -0.37310353935E+02  0.52849157118E+02  0.00000000000E+00 0. -1.
         11    1    3    3    0    0  0.29923584238E+02  0.36205717411E+02  0.29489013954E+02  0.55460587907E+02  0.00000000000E+00 0.  1.
</event>
<event>
 7    1  0.6988825E-006  0.1071289E+03  0.7561462E-02  0.1265981E+00
          2   -1    0    0  501    0  0.00000000000E+00  0.00000000000E+00  0.18264178756E+03  0.18264178756E+03  0.00000000000E+00 0. -1.
         -2   -1    0    0    0  501 -0.00000000000E+00 -0.00000000000E+00 -0.77360838015E+02  0.77360838015E+02  0.00000000000E+00 0.  1.
         23    2    1    2    0    0 -0.25762145487E+00  0.73058657086E+01 -0.48764080836E+01  0.93162934331E+02  0.92747565654E+02 0.  0.
          5    1    1    2  502    0  0.43136663081E+02 -0.48090150937E+02  0.69134194506E+02  0.94712425631E+02  0.41800000000E+01 0.  1.
         -5    1    1    2    0  502 -0.42879041626E+02  0.40784285228E+02  0.41023163125E+02  0.72127265615E+02  0.41800000000E+01 0.  1.
        -11    1    3    3    0    0 -0.43316398409E+02 -0.88401368212E+01 -0.13811568699E+02  0.46316496198E+02  0.00000000000E+00 0. -1.
         11    1    3    3    0    0  0.43058776955E+02  0.16146002530E+02  0.89351606150E+01  0.46846438133E+02  0.00000000000E+00 0.  1.
</event>
<event>
 7    1  0.6988825E-006  0.1336723E+03  0.7561462E-02  0.1222106E+00
          4   -1    0    0  501    0  0.00000000000E+00  0.00000000000E+00  0.55563853498E+02  0.55563853498E+02  0.00000000000E+00 0. -1.
         -4   -1    0    0    0  501 -0.00000000000E+00 -0.00000000000E+00 -0.38349182369E+03  0.38349182369E+03  0.00000000000E+00 0.  1.
         23    2    1    2    0    0  0.89747107570E+02 -0.29584912043E+02 -0.18475740331E+03  0.22674847975E+03  0.91377046645E+02 0.  0.
          5    1    1    2  502    0 -0.11151317066E+03  0.26568954212E+02 -0.15007814495E+03  0.18889684632E+03  0.41800000000E+01 0.  1.
         -5    1    1    2    0  502  0.21766063093E+02  0.30159578302E+01  0.69075780733E+01  0.23410351109E+02  0.41800000000E+01 0.  1.
        -11    1    3    3    0    0  0.10450665885E+03 -0.89412993701E+01 -0.15985254819E+03  0.19119211736E+03  0.00000000000E+00 0. -1.
         11    1    3    3    0    0 -0.14759551275E+02 -0.20643612672E+02 -0.24904855123E+02  0.35556362394E+02  0.00000000000E+00 0.  1.
</event>
<event>
 7    1  0.6988825E-006  0.1015339E+03  0.7561462E-02  0.1277103E+00
          2   -1    0    0  501    0  0.00000000000E+00  0.00000000000E+00  0.94746650999E+03  0.94746650999E+03  0.00000000000E+00 0. -1.
         -2   -1    0    0    0  501 -0.00000000000E+00 -0.00000000000E+00 -0.22395503645E+02  0.22395503645E+02  0.00000000000E+00 0.  1.
         23    2    1    2    0    0 -0.23794228924E+02 -0.21613525784E+02  0.11868267075E+03  0.15318560142E+03  0.91361601992E+02 0.  0.
          5    1    1    2  502    0  0.22735186542E+02 -0.51118891931E+02  0.32539829544E+03  0.33019926241E+03  0.41800000000E+01 0. -1.
         -5    1    1    2    0  502  0.10590423826E+01  0.72732417715E+02  0.48099004016E+03  0.48647714981E+03  0.41800000000E+01 0. -1.
        -11    1    3    3    0    0 -0.54354724234E+01  0.24172199783E+02  0.95534901692E+02  0.98695273667E+02  0.00000000000E+00 0. -1.
         11    1    3    3    0    0 -0.18358756501E+02 -0.45785725567E+02  0.23147769055E+02  0.54490327749E+02  0.00000000000E+00 0.  1.
</event>
<event>
 7    1  0.6988825E-006  0.1238907E+03  0.7561462E-02  0.1236813E+00
         -1   -1    0    0    0  501 -0.00000000000E+00  0.00000000000E+00  0.10113886973E+03  0.10113886973E+03  0.00000000000E+00 0.  1.
          1   -1    0    0  501    0  0.00000000000E+00 -0.00000000000E+00 -0.16039068338E+03  0.16039068338E+03  0.00000000000E+00 0. -1.
         23    2    1    2    0    0  0.15096406609E+02  0.60911981134E+02 -0.50818337462E+00  0.10974629477E+03  0.90032327678E+02 0.  0.
          5    1    1    2  502    0  0.42432456803E+02  0.13798232566E+02 -0.26382616720E+02  0.52004033279E+02  0.41800000000E+01 0. -1.
         -5    1    1    2    0  502 -0.57528863412E+02 -0.74710213700E+02 -0.32361013548E+02  0.99779225064E+02  0.41800000000E+01 0. -1.
        -11    1    3    3    0    0  0.46523643253E+02  0.82430313623E+01  0.76839649225E+01  0.47868990636E+02  0.00000000000E+00 0. -1.
         11    1    3    3    0    0 -0.31427236644E+02  0.52668949772E+02 -0.81921482971E+01  0.61877304134E+02  0.00000000000E+00 0.  1.
</event>
<event>
 7    1  0.6988825E-006  0.1002368E+03  0.7561462E-02  0.1279799E+00
         -3   -1    0    0    0  501 -0.00000000000E+00  0.00000000000E+00  0.47503063280E+02  0.47503063280E+02  0.00000000000E+00 0.  1.
          3   -1    0    0  501    0  0.00000000000E+00 -0.00000000000E+00 -0.40897987516E+03  0.40897987516E+03  0.00000000000E+00 0. -1.
         23    2    1    2    0    0  0.24503284800E+02 -0.20011317979E+02 -0.27130687661E+02  0.98103774420E+02  0.88811105889E+02 0.  0.
          5    1    1    2  502    0 -0.63171262864E+02 -0.26255231479E+02 -0.18254553786E+03  0.19498792636E+03  0.41800000000E+01 0.  1.
         -5    1    1    2    0  502  0.38667978065E+02  0.46266549459E+02 -0.15180058635E+03  0.16339123766E+03  0.41800000000E+01 0.  1.
        -11    1    3    3    0    0  0.30972630804E+02 -0.39939450967E+02 -0.47153750566E+02  0.69122643141E+02  0.00000000000E+00 0. -1.
         11    1    3    3    0    0 -0.64693460041E+01  0.19928132987E+02  0.20023062905E+02  0.28981131278E+02  0.00000000000E+00 0.  1.
</event>
<event>
 7    1  0.6988825E-006  0.1500201E+03  0.7561462E-02  0.1200448E+00
          2   -1    0    0  501    0  0.00000000000E+00  0.00000000000E+00  0.17951890022E+03  0.17951890022E+03  0.00000000000E+00 0. -1.
         -2   -1    0    0    0  501 -0.00000000000E+00 -0.00000000000E+00 -0.26485564399E+03  0.26485564399E+03  0.00000000000E+00 0.  1.
         23    2    1    2    0    0 -0.40800311788E+02 -0.22883508049E+02 -0.59562997457E+02  0.12100869932E+03  0.94377085477E+02 0.  0.
          5    1    1    2  502    0  0.11649587123E+03 -0.57721655431E+00  0.11373578652E+03  0.16286473752E+03  0.41800000000E+01 0. -1.
         -5    1    1    2    0  502 -0.75695559437E+02  0.23460724603E+02 -0.13950953283E+03  0.16050110738E+03  0.41800000000E+01 0.  1.
        -11    1    3    3    0    0 -0.36783040786E+02  0.32196476039E+02 -0.18826562660E+02  0.52383629316E+02  0.00000000000E+00 0.  1.
         11    1    3    3    0    0 -0.40172710021E+01 -0.55079984088E+02 -0.40736434797E+02  0.68625070006E+02  0.00000000000E+00 0. -1.
</event>
<event>
 7    1  0.6988825E-006  0.1422725E+03  0.7561462E-02  0.1210304E+00
          2   -1    0    0  501    0  0.00000000000E+00  0.00000000000E+00  0.84140226129E+03  0.84140226129E+03  0.00000000000E+00 0.  1.
         -2   -1    0    0    0  501 -0.00000000000E+00 -0.00000000000E+00 -0.32050498594E+02  0.32050498594E+02  0.00000000000E+00 0. -1.
         23    2    1    2    0    0 -0.11624733656E+03 -0.40003725795E+02  0.38976778186E+03  0.41868829845E+03  0.90924287975E+02 0.  0.
          5    1    1    2  502    0  0.10138920849E+03  0.57224639628E+02  0.18222696287E+03  0.21628353931E+03  0.41800000000E+01 0. -1.
         -5    1    1    2    0  502  0.14858128065E+02 -0.17220913833E+02  0.23735701796E+03  0.23848092213E+03  0.41800000000E+01 0. -1.
        -11    1    3    3    0    0 -0.97152517240E+02  0.37049618480E+01  0.31788420940E+03  0.33241947737E+03  0.00000000000E+00 0.  1.
         11    1    3    3    0    0 -0.19094819318E+02 -0.43708687643E+02  0.71883572466E+02  0.86268821081E+02  0.00000000000E+00 0. -1.
</event>
<event>
 7    1  0.6988825E-006  0.9110546E+02  0.7561462E-02  0.1300197E+00
          3   -1    0    0  501    0  0.00000000000E+00  0.00000000000E+00  0.76816469495E+02  0.76816469495E+02  0.00000000000E+00 0. -1.
         -3   -1    0    0    0  501 -0.00000000000E+00 -0.00000000000E+00 -0.25263702100E+03  0.25263702100E+03  0.00000000000E+00 0.  1.
         23    2    1    2    0    0 -0.58081617529E+02  0.59770733592E+02 -0.10316321265E+03  0.16251519032E+03  0.93928290482E+02 0.  0.
          5    1    1    2  502    0  0.36938193244E+02 -0.44299485691E+01  0.30244774023E+02  0.48127677278E+02  0.41800000000E+01 0.  1.
         -5    1    1    2    0  502  0.21143424284E+02 -0.55340785022E+02 -0.10290211288E+03  0.11881062289E+03  0.41800000000E+01 0.  1.
        -11    1    3    3    0    0 -0.32383054410E+02  0.20089382422E+02 -0.10844413118E+03  0.11494509596E+03  0.00000000000E+00 0.  1.
         11    1    3    3    0    0 -0.25698563118E+02  0.39681351169E+02  0.52809185285E+01  0.47570094361E+02  0.00000000000E+00 0. -1.
</event>
<event>
 7    1  0.6988825E-006  0.1085190E+03  0.7561462E-02  0.1263337E+00
         -1   -1    0    0    0  501 -0.00000000000E+00  0.00000000000E+00  0.11338873149E+03  0.11338873149E+03  0.00000000000E+00 0.  1.
          1   -1    0    0  501    0  0.00000000000E+00 -0.00000000000E+00 -0.15421017822E+03  0.15421017822E+03  0.00000000000E+00 0. -1.
         23    2    1    2    0    0 -0.30300554423E+02  0.48287895173E+02  0.41484008830E+02  0.11632088375E+03  0.92519082293E+02 0.  0.
          5    1    1    2  502    0 -0.34658237058E+02 -0.21704684041E+02  0.24192398359E+01  0.41177807454E+02  0.41800000000E+01 0. -1.
         -5    1    1    2    0  502  0.64958791482E+02 -0.26583211133E+02 -0.84724695395E+02  0.11010021850E+03  0.41800000000E+01 0.  1.
        -11    1    3    3    0    0  0.17987971905E+02 -0.16774107063E+02 -0.14245358414E+01  0.24636702364E+02  0.00000000000E+00 0.  1.
         11    1    3    3    0    0 -0.48288526328E+02  0.65062002237E+02  0.42908544672E+02  0.91684181383E+02  0.00000000000E+00 0. -1.
</event>
<event>
 7    1  0.6988825E-006  0.1665837E+03  0.7561462E-02  0.1181458E+00
         -2   -1    0    0    0  501 -0.00000000000E+00  0.00000000000E+00  0.25101033351E+02  0.25101033351E+02  0.00000000000E+00 0.  1.
          2   -1    0    0  501    0  0.00000000000E+00 -0.00000000000E+00 -0.13311722655E+04  0.13311722655E+04  0.00000000000E+00 0. -1.
         23    2    1    2    0    0 -0.11576732744E+03 -0.85444844890E+02 -0.51821888108E+03  0.54567960832E+03  0.92263376311E+02 0.  0.
          5    1    1    2  502    0  0.10092483142E+03  0.21915652081E+02 -0.64829913327E+03  0.65648713316E+03  0.41800000000E+01 0.  1.
         -5    1    1    2    0  502  0.14842496019E+02  0.63529192808E+02 -0.13955321778E+03  0.15410655735E+03  0.41800000000E+01 0.  1.
        -11    1    3    3    0    0 -0.30139401254E+02 -0.71609681750E+02 -0.32030143061E+03  0.32958964863E+03  0.00000000000E+00 0. -1.
         11    1    3    3    0    0 -0.85627926182E+02 -0.13835163140E+02 -0.19791745047E+03  0.21608995969E+03  0.00000000000E+00 0.  1.
</event>
<event>
 7    1  0.6988825E-006  0.2006846E+03  0.7561462E-02  0.1149163E+00
         -1   -1    0    0    0  501 -0.00000000000E+00  0.00000000000E+00  0.18739153487E+02  0.18739153487E+02  0.00000000000E+00 0.  1.
          1   -1    0    0  501    0  0.00000000000E+00 -0.00000000000E+00 -0.25322720772E+04  0.25322720772E+04  0.00000000000E+00 0. -1.
         23    2    1    2    0    0 -0.18121770714E+03 -0.10467020167E+02 -0.90886117427E+03  0.93126798357E+03  0.91005534084E+02 0.  0.
          5    1    1    2  502    0  0.14702814981E+03 -0.24754294688E+02 -0.14441459472E+04  0.14518281720E+04  0.41800000000E+01 0.  1.
         -5    1    1    2    0  502  0.34189557334E+02  0.35221314855E+02 -0.16052580231E+03  0.16791507514E+03  0.41800000000E+01 0.  1.
        -11    1    3    3    0    0 -0.16921314912E+02  0.29366622465E+02 -0.14086917566E+03  0.14488910955E+03  0.00000000000E+00 0.  1.
         11    1    3    3    0    0 -0.16429639223E+03 -0.39833642632E+02 -0.76799199861E+03  0.78637887402E+03  0.00000000000E+00 0. -1.
</event>
<event>
 7    1  0.6988825E-006  0.2383056E+03  0.7561462E-02  0.1120927E+00
          1   -1    0    0  501    0  0.00000000000E+00  0.00000000000E+00  0.60428057466E+03  0.60428057466E+03  0.00000000000E+00 0. -1.
         -1   -1    0    0    0  501 -0.00000000000E+00 -0.00000000000E+00 -0.15496138329E+03  0.15496138329E+03  0.00000000000E+00 0.  1.
         23    2    1    2    0    0 -0.21049831101E+03 -0.80620997926E+02  0.31692045278E+01  0.24396978646E+03  0.93284128354E+02 0.  0.
          5    1    1    2  502    0  0.21309544876E+03  0.48609514255E+02  0.42060167661E+03  0.47402088343E+03  0.41800000000E+01 0.  1.
         -5    1    1    2    0  502 -0.25971377496E+01  0.32011483671E+02  0.25548310232E+02  0.41251288065E+02  0.41800000000E+01 0.  1.
        -11    1    3    3    0    0 -0.63191831906E+02 -0.19514935806E+02  0.43890564179E+02  0.79375197405E+02  0.00000000000E+00 0. -1.
         11    1    3    3    0    0 -0.14730647910E+03 -0.61106062120E+02 -0.40721359651E+02  0.16459458905E+03  0.00000000000E+00 0.  1.
</event>
<event>
 7    1  0.6988825E-006  0.1439189E+03  0.7561462E-02  0.1208151E+00
          2   -1    0    0  501    0  0.00000000000E+00  0.00000000000E+00  0.50750112532E+03  0.50750112532E+03  0.00000000000E+00 0. -1.
         -2   -1    0    0    0  501 -0.00000000000E+00 -0.00000000000E+00 -0.59727131848E+02  0.59727131848E+02  0.00000000000E+00 0.  1.
         23    2    1    2    0    0  0.42153166816E+02 -0.10770110967E+03  0.98106259079E+02  0.17826561215E+03  0.93687629422E+02 0.  0.
          5    1    1    2  502    0  0.25788029617E+02  0.22851018234E+02  0.16393690027E+02  0.38385114023E+02  0.41800000000E+01 0.  1.
         -5    1    1    2    0  502 -0.67941196433E+02  0.84850091441E+02  0.33327404437E+03  0.35057753099E+03  0.41800000000E+01 0.  1.
        -11    1    3    3    0    0  0.68853223597E+02 -0.70353266249E+02  0.45509345356E+02  0.10845021432E+03  0.00000000000E+00 0.  1.
         11    1    3    3    0    0 -0.26700056781E+02 -0.37347843426E+02  0.52596913724E+02  0.69815397828E+02  0.00000000000E+00 0. -1.
</event>
<event>
 7    1  0.6988825E-006  0.8910488E+02  0.7561462E-02  0.1305034E+00
          2   -1    0    0  501    0  0.00000000000E+00  0.00000000000E+00  0.54111527523E+03  0.54111527523E+03  0.00000000000E+00 0. -1.
         -2   -1    0    0    0  501 -0.00000000000E+00 -0.00000000000E+00 -0.54033977870E+02  0.54033977870E+02  0.00000000000E+00 0.  1.
         23    2    1    2    0    0 -0.70555183249E+02 -0.57927135611E+01  0.80571132461E+02  0.16397486969E+03  0.12403411261E+03 0.  0.
          5    1    1    2  502    0  0.16471975836E+02 -0.35392702151E+02  0.31320267925E+03  0.31565386112E+03  0.41800000000E+01 0.  1.
         -5    1    1    2    0  502  0.54083207413E+02  0.41185415712E+02  0.93307485652E+02  0.11552052229E+03  0.41800000000E+01 0.  1.
        -11    1    3    3    0    0 -0.49661669841E+02 -0.28817207118E+01  0.11403720212E+03  0.12441490760E+03  0.00000000000E+00 0. -1.
         11    1    3    3    0    0 -0.20893513408E+02 -0.29109928493E+01 -0.33466069660E+02  0.39559962088E+02  0.00000000000E+00 0.  1.
</event>
<event>
 7    1  0.6988825E-006  0.1099539E+03  0.7561462E-02  0.1260655E+00
          1   -1    0    0  501    0  0.00000000000E+00  0.00000000000E+00  0.12528958611E+03  0.12528958611E+03  0.00000000000E+00 0. -1.
         -1   -1    0    0    0  501 -0.00000000000E+00 -0.00000000000E+00 -0.12322933112E+03  0.12322933112E+03  0.00000000000E+00 0.  1.
         23    2    1    2    0    0  0.36313556414E+02 -0.38551961284E+02 -0.23943804775E+02  0.11021308996E+03  0.93641290647E+02 0.  0.
          5    1    1    2  502    0  0.24348736489E+02 -0.17760761945E+02 -0.26373145365E+02  0.40265628393E+02  0.41800000000E+01 0.  1.
         -5    1    1    2    0  502 -0.60662292903E+02  0.56312723229E+02  0.52377205135E+02  0.98040198876E+02  0.41800000000E+01 0.  1.
        -11    1    3    3    0    0  0.67677216412E+02 -0.22140790512E+02 -0.22904643896E+02  0.74800019638E+02  0.00000000000E+00 0. -1.
         11    1    3    3    0    0 -0.31363659998E+02 -0.16411170772E+02 -0.10391608788E+01  0.35413070326E+02  0.00000000000E+00 0.  1.
</event>
<event>
 7    1  0.6988825E-006  0.9995985E+02  0.7561462E-02  0.1280380E+00
         -1   -1    0    0    0  501 -0.00000000000E+00  0.00000000000E+00  0.39035272556E+03  0.39035272556E+03  0.00000000000E+00 0.  1.
          1   -1    0    0  501    0  0.00000000000E+00 -0.00000000000E+00 -0.42584160933E+02  0.42584160933E+02  0.00000000000E+00 0. -1.
         23    2    1    2    0    0  0.10844894891E+02  0.67465953888E+02  0.15571370346E+03  0.19377412478E+03  0.92910641528E+02 0.  0.
          5    1    1    2  502    0  0.13047159590E+02 -0.65662656177E+02  0.20203047060E+03  0.21287460215E+03  0.41800000000E+01 0.  1.
         -5    1    1    2    0  502 -0.23892054482E+02 -0.18032977109E+01 -0.99756094289E+01  0.26288159568E+02  0.41800000000E+01 0.  1.
        -11    1    3    3    0    0  0.40431227606E+02  0.67645010387E+01  0.92925913654E+02  0.10156607735E+03  0.00000000000E+00 0.  1.
         11    1    3    3    0    0 -0.29586332715E+02  0.60701452849E+02  0.62787789803E+02  0.92208047425E+02  0.00000000000E+00 0. -1.
</event>
<event>
 7    1  0.6988825E-006  0.9742906E+02  0.7561462E-02  0.1285797E+00
         -1   -1    0    0    0  501 -0.00000000000E+00  0.00000000000E+00  0.42649751820E+02  0.42649751820E+02  0.00000000000E+00 0.  1.
          1   -1    0    0  501    0  0.00000000000E+00 -0.00000000000E+00 -0.32975872576E+03  0.32975872576E+03  0.00000000000E+00 0. -1.
         23    2    1    2    0    0  0.10755798637E+02  0.42007504409E+02 -0.10553495249E+03  0.14769275890E+03  0.93782766021E+02 0.  0.
          5    1    1    2  502    0 -0.37667738284E+02  0.48059520644E+01 -0.16306626877E+03  0.16748145000E+03  0.41800000000E+01 0. -1.
         -5    1    1    2    0  502  0.26911939647E+02 -0.46813456474E+02 -0.18507752676E+02  0.57234268683E+02  0.41800000000E+01 0. -1.
        -11    1    3    3    0    0 -0.40846700663E+02  0.26199118690E+02 -0.59316102657E+02  0.76637111177E+02  0.00000000000E+00 0.  1.
         11    1    3    3    0    0  0.51602499300E+02  0.15808385719E+02 -0.46218849835E+02  0.71055647722E+02  0.00000000000E+00 0. -1.
</event>
<event>
 7    1  0.6988825E-006  0.1095261E+03  0.7561462E-02  0.1261450E+00
         -2   -1    0    0    0  501 -0.00000000000E+00  0.00000000000E+00  0.15558128290E+02  0.15558128290E+02  0.00000000000E+00 0.  1.
          2   -1    0    0  501    0  0.00000000000E+00 -0.00000000000E+00 -0.10339185838E+04  0.10339185838E+04  0.00000000000E+00 0. -1.
         23    2    1    2    0    0 -0.20329453933E+02 -0.47872931368E+02 -0.28373985199E+03  0.30248121127E+03  0.91002611565E+02 0.  0.
          5    1    1    2  502    0  0.66226843362E+02  0.55411379443E+01 -0.48970474340E+03  0.49421139920E+03  0.41800000000E+01 0.  1.
         -5    1    1    2    0  502 -0.45897389429E+02  0.42331793423E+02 -0.24491586011E+03  0.25278410161E+03  0.41800000000E+01 0.  1.
        -11    1    3    3    0    0 -0.32995634794E+02  0.68632337646E+01 -0.39786169819E+02  0.52141683920E+02  0.00000000000E+00 0. -1.
         11    1    3    3    0    0  0.12666180861E+02 -0.54736165132E+02 -0.24395368217E+03  0.25033952735E+03  0.00000000000E+00 0.  1.
</event>
<event>
 7    1  0.6988825E-006  0.1333559E+03  0.7561462E-02  0.1222560E+00
         -1   -1    0    0    0  501 -0.00000000000E+00  0.00000000000E+00  0.13222340879E+03  0.13222340879E+03  0.00000000000E+00 0.  1.
          1   -1    0    0  501    0  0.00000000000E+00 -0.00000000000E+00 -0.20651309855E+03  0.20651309855E+03  0.00000000000E+00 0. -1.
         23    2    1    2    0    0 -0.10932763508E+03 -0.29164183005E+02  0.17949831555E+02  0.14649005686E+03  0.91291067152E+02 0.  0.
          5    1    1    2  502    0  0.80775008848E+02 -0.13695809285E+02  0.49418766107E+01  0.82183160019E+02  0.41800000000E+01 0. -1.
         -5    1    1    2    0  502  0.28552626237E+02  0.42859992290E+02 -0.97181397932E+02  0.11006329047E+03  0.41800000000E+01 0. -1.
        -11    1    3    3    0    0  0.43203968444E+01 -0.18344281632E+02 -0.18739671869E+02  0.26577317382E+02  0.00000000000E+00 0. -1.
         11    1    3    3    0    0 -0.11364803193E+03 -0.10819901373E+02  0.36689503424E+02  0.11991273948E+03  0.00000000000E+00 0.  1.
</event>
<event>
 7    1  0.6988825E-006  0.1357200E+03  0.7561462E-02  0.1219207E+00
         -2   -1    0    0    0  501 -0.00000000000E+00  0.00000000000E+00  0.24861168741E+03  0.24861168741E+03  0.00000000000E+00 0.  1.
          2   -1    0    0  501    0  0.00000000000E+00 -0.00000000000E+00 -0.16812748197E+03  0.16812748197E+03  0.00000000000E+00 0. -1.
         23    2    1    2    0    0  0.23306781206E+02 -0.13101957879E+03  0.14873547035E+03  0.22176581738E+03  0.96687649385E+02 0.  0.
          5    1    1    2  502    0  0.39553277232E+01  0.13111409073E+02  0.33740420669E+02  0.36652995133E+02  0.41800000000E+01 0.  1.
         -5    1    1    2    0  502 -0.27262108929E+02  0.11790816972E+03 -0.10199168558E+03  0.15832035686E+03  0.41800000000E+01 0.  1.
        -11    1    3    3    0    0 -0.29713402370E+01 -0.63617536259E+02  0.13338850367E+03  0.14781242402E+03  0.00000000000E+00 0.  1.
         11    1    3    3    0    0  0.26278121443E+02 -0.67402042533E+02  0.15346966676E+02  0.73953393366E+02  0.00000000000E+00 0. -1.
</event>
<event>
 7    1  0.6988825E-006  0.9831976E+02  0.7561462E-02  0.1283869E+00
          2   -1    0    0  501    0  0.00000000000E+00  0.00000000000E+00  0.29774660661E+03  0.29774660661E+03  0.00000000000E+00 0. -1.
         -2   -1    0    0    0  501 -0.00000000000E+00 -0.00000000000E+00 -0.45233391103E+02  0.45233391103E+02  0.00000000000E+00 0.  1.
         23    2    1    2    0    0 -0.11117366197E+02  0.36683142378E+02  0.88317096838E+02  0.13303575014E+03  0.91811505029E+02 0.  0.
          5    1    1    2  502    0  0.10003810592E+02 -0.71434543008E+02  0.15886166124E+03  0.17452068637E+03  0.41800000000E+01 0. -1.
         -5    1    1    2    0  502  0.11135556054E+01  0.34751400630E+02  0.53344574297E+01  0.35423561197E+02  0.41800000000E+01 0. -1.
        -11    1    3    3    0    0 -0.16100646101E+01 -0.25958453583E+02  0.21709674732E+01  0.26098787716E+02  0.00000000000E+00 0.  1.
         11    1    3    3    0    0 -0.95073015874E+01  0.62641595961E+02  0.86146129364E+02  0.10693696242E+03  0.00000000000E+00 0. -1.
</event>
<event>
 7    1  0.6988825E-006  0.1188761E+03  0.7561462E-02  0.1244963E+00
         -2   -1    0    0    0  501 -0.00000000000E+00  0.00000000000E+00  0.21179599347E+03  0.21179599347E+03  0.00000000000E+00 0.  1.
          2   -1    0    0  501    0  0.00000000000E+00 -0.00000000000E+00 -0.96959323327E+02  0.96959323327E+02  0.00000000000E+00 0. -1.
         23    2    1    2    0    0 -0.40053145674E+02 -0.50610578881E+02  0.12544712377E+03  0.16759864584E+03  0.90480053332E+02 0.  0.
          5    1    1    2  502    0 -0.38306079756E+02  0.15429931745E+02 -0.32151688551E+02  0.52503733359E+02  0.41800000000E+01 0. -1.
         -5    1    1    2    0  502  0.78359225430E+02  0.35180647136E+02  0.21541234918E+02  0.88652937598E+02  0.41800000000E+01 0. -1.
        -11    1    3    3    0    0 -0.66602870234E+02 -0.50690090126E+02  0.10380821272E+03  0.13334756311E+03  0.00000000000E+00 0.  1.
         11    1    3    3    0    0  0.26549724560E+02  0.79511245363E-01  0.21638911058E+02  0.34251082728E+02  0.00000000000E+00 0. -1.
</event>
<event>
 7    1  0.6988825E-006  0.1087253E+03  0.7561462E-02  0.1262949E+00
          1   -1    0    0  501    0  0.00000000000E+00  0.00000000000E+00  0.88824463843E+02  0.88824463843E+02  0.00000000000E+00 0. -1.
         -1   -1    0    0    0  501 -0.00000000000E+00 -0.00000000000E+00 -0.17462194740E+03  0.17462194740E+03  0.00000000000E+00 0.  1.
         23    2    1    2    0    0 -0.11067333500E+02  0.18717648402E+02 -0.75047115702E+02  0.13602582470E+03  0.11134684179E+03 0.  0.
          5    1    1    2  502    0  0.18822826832E+02 -0.64967878104E+02 -0.32965020047E+02  0.75361057198E+02  0.41800000000E+01 0.  1.
         -5    1    1    2    0  502 -0.77554933318E+01  0.46250229702E+02  0.22214652188E+02  0.52059529350E+02  0.41800000000E+01 0.  1.
        -11    1    3    3    0    0  0.96502043896E+01 -0.39575387258E+02 -0.59720872830E+02  0.72290527546E+02  0.00000000000E+00 0.  1.
         11    1    3    3    0    0 -0.20717537890E+02  0.58293035660E+02 -0.15326242872E+02  0.63735297153E+02  0.00000000000E+00 0. -1.
</event>
<event>
 7    1  0.6988825E-006  0.1167116E+03  0.7561462E-02  0.1248623E+00
          2   -1    0    0  501    0  0.00000000000E+00  0.00000000000E+00  0.23638378572E+03  0.23638378572E+03  0.00000000000E+00 0.  1.
         -2   -1    0    0    0  501 -0.00000000000E+00 -0.00000000000E+00 -0.68739790924E+02  0.68739790924E+02  0.00000000000E+00 0. -1.
         23    2    1    2    0    0  0.24097351269E+02  0.37476885538E+02  0.14907350617E+02  0.10273509003E+03  0.91362302579E+02 0.  0.
          5    1    1    2  502    0 -0.74435261012E+02 -0.34571649408E+02  0.93059030486E+02  0.12415016142E+03  0.41800000000E+01 0.  1.
         -5    1    1    2    0  502  0.50337909743E+02 -0.29052361294E+01  0.59677613698E+02  0.78238325206E+02  0.41800000000E+01 0.  1.
        -11    1    3    3    0    0  0.53894364703E+02  0.14717772926E+01  0.15135898355E+02  0.55998786542E+02  0.00000000000E+00 0.  1.
         11    1    3    3    0    0 -0.29797013434E+02  0.36005108245E+02 -0.22854773848E+00  0.46736303484E+02  0.00000000000E+00 0. -1.
</event>
<event>
 7    1  0.6988825E-006  0.1034924E+03  0.7561462E-02  0.1273119E+00
          1   -1    0    0  501    0  0.00000000000E+00  0.00000000000E+00  0.46197461904E+03  0.46197461904E+03  0.00000000000E+00 0. -1.
         -1   -1    0    0    0  501 -0.00000000000E+00 -0.00000000000E+00 -0.33742532885E+02  0.33742532885E+02  0.00000000000E+00 0.  1.
         23    2    1    2    0    0  0.49809848649E+02  0.11741862046E+02  0.12485156300E+03  0.16359356023E+03  0.92498907114E+02 0.  0.
          5    1    1    2  502    0 -0.67006801118E+02 -0.32945472036E+02  0.29336138124E+03  0.30274360097E+03  0.41800000000E+01 0.  1.
         -5    1    1    2    0  502  0.17196952468E+02  0.21203609990E+02  0.10019141920E+02  0.29379990735E+02  0.41800000000E+01 0.  1.
        -11    1    3    3    0    0  0.37884160474E+00 -0.35915638272E+02  0.31951234103E+02  0.48072424051E+02  0.00000000000E+00 0.  1.
         11    1    3    3    0    0  0.49431007045E+02  0.47657500318E+02  0.92900328897E+02  0.11552113617E+03  0.00000000000E+00 0. -1.
</event>
<event>
 7    1  0.6988825E-006  0.9513936E+02  0.7561462E-02  0.1290863E+00
          1   -1    0    0  501    0  0.00000000000E+00  0.00000000000E+00  0.13342636533E+04  0.13342636533E+04  0.00000000000E+00 0. -1.
         -1   -1    0    0    0  501 -0.00000000000E+00 -0.00000000000E+00 -0.13920248395E+02  0.13920248395E+02  0.00000000000E+00 0.  1.
         23    2    1    2    0    0  0.65147966996E+02 -0.46536355798E+02  0.50066907415E+03  0.51516338200E+03  0.91180580855E+02 0.  0.
          5    1    1    2  502    0 -0.47973786711E+02  0.27289326522E+02  0.79549519361E+03  0.79741850180E+03  0.41800000000E+01 0. -1.
         -5    1    1    2    0  502 -0.17174180285E+02  0.19247029275E+02  0.24179137098E+02  0.35602017853E+02  0.41800000000E+01 0. -1.
        -11    1    3    3    0    0  0.28079621469E+02 -0.62437933789E+02  0.41331587829E+03  0.41894746206E+03  0.00000000000E+00 0. -1.
         11    1    3    3    0    0  0.37068345527E+02  0.15901577991E+02  0.87353195858E+02  0.96215919937E+02  0.00000000000E+00 0.  1.
</event>
<event>
 7    1  0.6988825E-006  0.1931206E+03  0.7561462E-02  0.1155677E+00
         -1   -1    0    0    0  501 -0.00000000000E+00  0.00000000000E+00  0.11096306191E+03  0.11096306191E+03  0.00000000000E+00 0.  1.
          1   -1    0    0  501    0  0.00000000000E+00 -0.00000000000E+00 -0.38755465833E+03  0.38755465833E+03  0.00000000000E+00 0. -1.
         23    2    1    2    0    0 -0.14750139840E+03 -0.74161823144E+02 -0.10440470255E+03  0.22916378099E+03  0.11982928717E+03 0.  0.
          5    1    1    2  502    0  0.26265137763E+02 -0.25441716277E+02 -0.78141862056E+02  0.86375699096E+02  0.41800000000E+01 0. -1.
         -5    1    1    2    0  502  0.12123626063E+03  0.99603539421E+02 -0.94045031816E+02  0.18297824015E+03  0.41800000000E+01 0. -1.
        -11    1    3    3    0    0 -0.44087725950E+02 -0.77328466183E+02 -0.86583944966E+02  0.12417809303E+03  0.00000000000E+00 0. -1.
         11    1    3    3    0    0 -0.10341367245E+03  0.31666430399E+01 -0.17820757586E+02  0.10498568797E+03  0.00000000000E+00 0.  1.
</event>
<event>
 7    1  0.6988825E-006  0.1276706E+03  0.7561462E-02  0.1230954E+00
         -1   -1    0    0    0  501 -0.00000000000E+00  0.00000000000E+00  0.32537726917E+02  0.32537726917E+02  0.00000000000E+00 0.  1.
          1   -1    0    0  501    0  0.00000000000E+00 -0.00000000000E+00 -0.67698555927E+03  0.67698555927E+03  0.00000000000E+00 0. -1.
         23    2    1    2    0    0  0.54806806641E+02  0.49702336112E+02 -0.13308294428E+03  0.17790667399E+03  0.92008729594E+02 0.  0.
          5    1    1    2  502    0 -0.94346476500E+02 -0.41866566456E+02 -0.33055019377E+03  0.34631628610E+03  0.41800000000E+01 0. -1.
         -5    1    1    2    0  502  0.39539669859E+02 -0.78357696558E+01 -0.18081469430E+03  0.18530032610E+03  0.41800000000E+01 0. -1.
        -11    1    3    3    0    0  0.25475272230E+02 -0.22242630624E+02 -0.16055621835E+02  0.37436707986E+02  0.00000000000E+00 0.  1.
         11    1    3    3    0    0  0.29331534411E+02  0.71944966736E+02 -0.11702732245E+03  0.14046996600E+03  0.00000000000E+00 0. -1.
</event>
<event>
 7    1  0.6988825E-006  0.1083221E+03  0.7561462E-02  0.1263709E+00
         -2   -1    0    0    0  501 -0.00000000000E+00  0.00000000000E+00  0.17211131812E+02  0.17211131812E+02  0.00000000000E+00 0. -1.
          2   -1    0    0  501    0  0.00000000000E+00 -0.00000000000E+00 -0.11470260065E+04  0.11470260065E+04  0.00000000000E+00 0.  1.
         23    2    1    2    0    0 -0.15705134953E+02 -0.81902097798E+02 -0.37599228414E+03  0.39556694162E+03  0.90268503260E+02 0.  0.
          5    1    1    2  502    0  0.20224812777E+02 -0.23429840057E+01 -0.51375807972E+03  0.51417834406E+03  0.41800000000E+01 0.  1.
         -5    1    1    2    0  502 -0.45196778242E+01  0.84245081803E+02 -0.24006451082E+03  0.25449185262E+03  0.41800000000E+01 0.  1.
        -11    1    3    3    0    0  0.29717599426E+02 -0.37758888235E+02 -0.83894101502E+02  0.96680347657E+02  0.00000000000E+00 0.  1.
         11    1    3    3    0    0 -0.45422734378E+02 -0.44143209562E+02 -0.29209818264E+03  0.29888659396E+03  0.00000000000E+00 0. -1.
</event>
<event>
 7    1  0.6988825E-006  0.1286702E+03  0.7561462E-02  0.1229442E+00
          1   -1    0    0  501    0  0.00000000000E+00  0.00000000000E+00  0.64231318181E+03  0.64231318181E+03  0.00000000000E+00 0. -1.
         -1   -1    0    0    0  501 -0.00000000000E+00 -0.00000000000E+00 -0.30973279816E+02  0.30973279816E+02  0.00000000000E+00 0.  1.
         23    2    1    2    0    0 -0.77046018936E+02  0.17941078239E+02  0.17153907938E+03  0.20924874845E+03  0.90007842150E+02 0.  0.
          5    1    1    2  502    0 -0.29239278468E+02  0.59996680437E+01  0.42865377041E+02  0.52400805059E+02  0.41800000000E+01 0. -1.
         -5    1    1    2    0  502  0.10628529740E+03 -0.23940746283E+02  0.39693544557E+03  0.41163690812E+03  0.41800000000E+01 0. -1.
        -11    1    3    3    0    0 -0.40720438657E+02 -0.35184141513E+02  0.95606924536E+02  0.10971217780E+03  0.00000000000E+00 0.  1.
         11    1    3    3    0    0 -0.36325580279E+02  0.53125219752E+02  0.75932154847E+02  0.99536570647E+02  0.00000000000E+00 0. -1.
</event>
<event>
 7    1  0.6988825E-006  0.1007686E+03  0.7561462E-02  0.1278688E+00
          2   -1    0    0  501    0  0.00000000000E+00  0.00000000000E+00  0.42321940287E+03  0.42321940287E+03  0.00000000000E+00 0. -1.
         -2   -1    0    0    0  501 -0.00000000000E+00 -0.00000000000E+00 -0.28859901996E+02  0.28859901996E+02  0.00000000000E+00 0.  1.
         23    2    1    2    0    0  0.35404285146E+01  0.18238061717E+02  0.14005396292E+03  0.16806819139E+03  0.91030999655E+02 0.  0.
          5    1    1    2  502    0  0.32001638859E+02  0.34311194723E+02  0.18074922593E+03  0.18678628977E+03  0.41800000000E+01 0.  1.
         -5    1    1    2    0  502 -0.35542067374E+02 -0.52549256440E+02  0.73556312031E+02  0.97224823709E+02  0.41800000000E+01 0.  1.
        -11    1    3    3    0    0 -0.16996192963E+02  0.50124296071E+02  0.63746779071E+02  0.82855099262E+02  0.00000000000E+00 0.  1.
         11    1    3    3    0    0  0.20536621478E+02 -0.31886234354E+02  0.76307183846E+02  0.85213092125E+02  0.00000000000E+00 0. -1.
</event>
<event>
 7    1  0.6988825E-006  0.1136638E+03  0.7561462E-02  0.1253932E+00
         -1   -1    0    0    0  501 -0.00000000000E+00  0.00000000000E+00  0.30325282179E+03  0.30325282179E+03  0.00000000000E+00 0.  1.
          1   -1    0    0  501    0  0.00000000000E+00 -0.00000000000E+00 -0.49479470514E+02  0.49479470514E+02  0.00000000000E+00 0. -1.
         23    2    1    2    0    0  0.57772579180E+01  0.43020679886E+02  0.16302436874E+03  0.19221293647E+03  0.92112499342E+02 0.  0.
          5    1    1    2  502    0 -0.45365451426E+02 -0.65643991602E+02  0.32092820107E+02  0.86107951543E+02  0.41800000000E+01 0. -1.
         -5    1    1    2    0  502  0.39588193508E+02  0.22623311716E+02  0.58656162435E+02  0.74411404300E+02  0.41800000000E+01 0. -1.
        -11    1    3    3    0    0  0.38293775904E+02  0.54970113387E+02  0.11294634950E+03  0.13132023646E+03  0.00000000000E+00 0.  1.
         11    1    3    3    0    0 -0.32516517986E+02 -0.11949433500E+02  0.50078019239E+02  0.60892700004E+02  0.00000000000E+00 0. -1.
</event>
<event>
 7    1  0.6988825E-006  0.1138028E+03  0.7561462E-02  0.1253685E+00
         -2   -1    0    0    0  501 -0.00000000000E+00  0.00000000000E+00  0.17210574164E+03  0.17210574164E+03  0.00000000000E+00 0.  1.
          2   -1    0    0  501    0  0.00000000000E+00 -0.00000000000E+00 -0.17741475932E+03  0.17741475932E+03  0.00000000000E+00 0. -1.
         23    2    1    2    0    0 -0.30400103037E+02 -0.43004494931E+02  0.12344649924E+03  0.16244108515E+03  0.91512376870E+02 0.  0.
          5    1    1    2  502    0  0.61590527958E+02 -0.14455269275E+02 -0.34176691169E+02  0.72026846129E+02  0.41800000000E+01 0. -1.
         -5    1    1    2    0  502 -0.31190424922E+02  0.57459764206E+02 -0.94578825755E+02  0.11505256968E+03  0.41800000000E+01 0. -1.
        -11    1    3    3    0    0 -0.55617005295E+02 -0.47422162078E+02  0.61889702573E+02  0.95772898143E+02  0.00000000000E+00 0. -1.
         11    1    3    3    0    0  0.25216902259E+02  0.44176671469E+01  0.61556796666E+02  0.66668187003E+02  0.00000000000E+00 0.  1.
</event>
<event>
 7    1  0.6988825E-006  0.1707486E+03  0.7561462E-02  0.1177069E+00
          1   -1    0    0  501    0  0.00000000000E+00  0.00000000000E+00  0.93041586580E+02  0.93041586580E+02  0.00000000000E+00 0. -1.
         -1   -1    0    0    0  501 -0.00000000000E+00 -0.00000000000E+00 -0.42607001843E+03  0.42607001843E+03  0.00000000000E+00 0.  1.
         23    2    1    2    0    0 -0.15372259325E+02  0.15972947545E+03 -0.21943391255E+03  0.28608619010E+03  0.89130547545E+02 0.  0.
          5    1    1    2  502    0  0.67130427218E+01 -0.61480652964E+02  0.21584545256E+02  0.65637646404E+02  0.41800000000E+01 0.  1.
         -5    1    1    2    0  502  0.86592166034E+01 -0.98248822482E+02 -0.13517906456E+03  0.16738776851E+03  0.41800000000E+01 0.  1.
        -11    1    3    3    0    0  0.31703995100E+02  0.33758505290E+02 -0.79516516942E+02  0.92019869872E+02  0.00000000000E+00 0.  1.
         11    1    3    3    0    0 -0.47076254425E+02  0.12597097016E+03 -0.13991739561E+03  0.19406632023E+03  0.00000000000E+00 0. -1.
</event>
<event>
 7    1  0.6988825E-006  0.1142778E+03  0.7561462E-02  0.1252847E+00
          1   -1    0    0  501    0  0.00000000000E+00  0.00000000000E+00  0.44865161917E+02  0.44865161917E+02  0.00000000000E+00 0. -1.
         -1   -1    0    0    0  501 -0.00000000000E+00 -0.00000000000E+00 -0.37623255199E+03  0.37623255199E+03  0.00000000000E+00 0.  1.
         23    2    1    2    0    0 -0.24973054409E+02 -0.65279265126E+02 -0.15615246688E+03  0.19475124618E+03  0.93055999669E+02 0.  0.
          5    1    1    2  502    0 -0.22432593675E+02 -0.10194207594E+02  0.47847963111E+01  0.25446213927E+02  0.41800000000E+01 0.  1.
         -5    1    1    2    0  502  0.47405648084E+02  0.75473472721E+02 -0.17999971950E+03  0.20090025380E+03  0.41800000000E+01 0.  1.
        -11    1    3    3    0    0  0.28420390752E+02  0.19490219760E+01 -0.24466252370E+02  0.37551495339E+02  0.00000000000E+00 0.  1.
         11    1    3    3    0    0 -0.53393445161E+02 -0.67228287102E+02 -0.13168621451E+03  0.15719975084E+03  0.00000000000E+00 0. -1.
</event>
<event>
 7    1  0.6988825E-006  0.9698239E+02  0.7561462E-02  0.1286773E+00
          1   -1    0    0  501    0  0.00000000000E+00  0.00000000000E+00  0.88171309490E+03  0.88171309490E+03  0.00000000000E+00 0. -1.
         -1   -1    0    0    0  501 -0.00000000000E+00 -0.00000000000E+00 -0.19894170645E+02  0.19894170645E+02  0.00000000000E+00 0.  1.
         23    2    1    2    0    0  0.67987049459E+02  0.31592501263E+02  0.35156006301E+03  0.37091718521E+03  0.91459036447E+02 0.  0.
          5    1    1    2  502    0 -0.56462213104E+02 -0.22923734212E+02  0.51194949025E+03  0.51558048069E+03  0.41800000000E+01 0.  1.
         -5    1    1    2    0  502 -0.11524836355E+02 -0.86687670508E+01 -0.16906290040E+01  0.15109599651E+02  0.41800000000E+01 0.  1.
        -11    1    3    3    0    0 -0.18823969037E+02  0.24319305329E+02  0.10550987999E+03  0.10990043311E+03  0.00000000000E+00 0.  1.
         11    1    3    3    0    0  0.86811018496E+02  0.72731959331E+01  0.24605018302E+03  0.26101675210E+03  0.00000000000E+00 0. -1.
</event>
<event>
 7    1  0.6988825E-006  0.2429779E+03  0.7561462E-02  0.1117825E+00
          2   -1    0    0  501    0  0.00000000000E+00  0.00000000000E+00  0.66182561608E+03  0.66182561608E+03  0.00000000000E+00 0. -1.
         -2   -1    0    0    0  501 -0.00000000000E+00 -0.00000000000E+00 -0.10952146254E+03  0.10952146254E+03  0.00000000000E+00 0.  1.
         23    2    1    2    0    0  0.17703660760E+03  0.12860160576E+03  0.10884961848E+03  0.26126775752E+03  0.92370277906E+02 0.  0.
          5    1    1    2  502    0 -0.17007163468E+03 -0.58676222317E+02  0.29085680005E+03  0.34202691491E+03  0.41800000000E+01 0.  1.
         -5    1    1    2    0  502 -0.69649729154E+01 -0.69925383445E+02  0.15259773500E+03  0.16805240619E+03  0.41800000000E+01 0.  1.
        -11    1    3    3    0    0  0.43451934075E+02  0.84341545038E+02  0.27777376603E+02  0.98859240566E+02  0.00000000000E+00 0. -1.
         11    1    3    3    0    0  0.13358467352E+03  0.44260060724E+02  0.81072241880E+02  0.16240851695E+03  0.00000000000E+00 0.  1.
</event>
<event>
 7    1  0.6988825E-006  0.8554899E+02  0.7561462E-02  0.1314003E+00
          2   -1    0    0  501    0  0.00000000000E+00  0.00000000000E+00  0.21760015036E+02  0.21760015036E+02  0.00000000000E+00 0. -1.
         -2   -1    0    0    0  501 -0.00000000000E+00 -0.00000000000E+00 -0.57994467324E+03  0.57994467324E+03  0.00000000000E+00 0.  1.
         23    2    1    2    0    0  0.32437959080E+02 -0.10963378891E+02 -0.26092619322E+03  0.27738691595E+03  0.87684696304E+02 0.  0.
          5    1    1    2  502    0 -0.39073522895E+02  0.35467324543E+02 -0.41487128750E+02  0.67255673022E+02  0.41800000000E+01 0.  1.
         -5    1    1    2    0  502  0.66355638154E+01 -0.24503945652E+02 -0.25577133623E+03  0.25706209930E+03  0.41800000000E+01 0.  1.
        -11    1    3    3    0    0  0.46323536197E+02  0.25879011049E+02 -0.12314410198E+03  0.13408975752E+03  0.00000000000E+00 0. -1.
         11    1    3    3    0    0 -0.13885577117E+02 -0.36842389939E+02 -0.13778209124E+03  0.14329715843E+03  0.00000000000E+00 0.  1.
</event>
<event>
 7    1  0.6988825E-006  0.1114218E+03  0.7561462E-02  0.1257959E+00
          3   -1    0    0  501    0  0.00000000000E+00  0.00000000000E+00  0.54726359513E+03  0.54726359513E+03  0.00000000000E+00 0.  1.
         -3   -1    0    0    0  501 -0.00000000000E+00 -0.00000000000E+00 -0.42267662611E+02  0.42267662611E+02  0.00000000000E+00 0. -1.
         23    2    1    2    0    0  0.31365845522E+01 -0.92729682120E+02  0.13066770974E+03  0.18409536199E+03  0.90600330184E+02 0.  0.
          5    1    1    2  502    0 -0.30064525066E+02  0.74137759445E+02  0.36112359378E+03  0.36990269725E+03  0.41800000000E+01 0. -1.
         -5    1    1    2    0  502  0.26927940514E+02  0.18591922676E+02  0.13204629001E+02  0.35533198507E+02  0.41800000000E+01 0. -1.
        -11    1    3    3    0    0  0.27556659358E+02 -0.23105425836E+02  0.96116237320E+02  0.10262339526E+03  0.00000000000E+00 0.  1.
         11    1    3    3    0    0 -0.24420074806E+02 -0.69624256285E+02  0.34551472417E+02  0.81471966731E+02  0.00000000000E+00 0. -1.
</event>
<event>
 6    1  0.6988825E-006  0.8107677E+02  0.7561462E-02  0.1326023E+00
         -2   -1    0    0    0  501 -0.00000000000E+00  0.00000000000E+00  0.15955943802E+03  0.15955943802E+03  0.00000000000E+00 0.  1.
          2   -1    0    0  501    0  0.00000000000E+00 -0.00000000000E+00 -0.57375266400E+02  0.57375266400E+02  0.00000000000E+00 0. -1.
          5    1    1    2  502    0 -0.78868989526E+02  0.11991261791E+02  0.90220322040E+01  0.80392644771E+02  0.41800000000E+01 0.  1.
         -5    1    1    2    0  502  0.40264711865E+02  0.29220110683E+01  0.48862681143E+02  0.63520226532E+02  0.41800000000E+01 0.  1.
        -11    1    1    2    0    0  0.19137393540E+02 -0.47319181026E+01  0.46924122812E+02  0.50896995806E+02  0.00000000000E+00 0.  1.
         11    1    1    2    0    0  0.19466884122E+02 -0.10181354757E+02 -0.26246645386E+01  0.22124837311E+02  0.00000000000E+00 0. -1.
</event>
<event>
 7    1  0.6988825E-006  0.1033958E+03  0.7561462E-02  0.1273313E+00
         -2   -1    0    0    0  501 -0.00000000000E+00  0.00000000000E+00  0.72417752361E+02  0.72417752361E+02  0.00000000000E+00 0.  1.
          2   -1    0    0  501    0  0.00000000000E+00 -0.00000000000E+00 -0.19068003115E+03  0.19068003115E+03  0.00000000000E+00 0. -1.
         23    2    1    2    0    0  0.30567167794E+02  0.63972142830E+01 -0.17015991881E+02  0.99166522793E+02  0.92569861001E+02 0.  0.
          5    1    1    2  502    0  0.45443363272E+02 -0.22858143433E+02 -0.39432914189E+02  0.64498225620E+02  0.41800000000E+01 0. -1.
         -5    1    1    2    0  502 -0.76010531066E+02  0.16460929150E+02 -0.61813372715E+02  0.99433035093E+02  0.41800000000E+01 0. -1.
        -11    1    3    3    0    0  0.69095351790E+01  0.37869469463E+02 -0.38390736832E+02  0.54366230955E+02  0.00000000000E+00 0. -1.
         11    1    3    3    0    0  0.23657632615E+02 -0.31472255180E+02  0.21374744951E+02  0.44800291838E+02  0.00000000000E+00 0.  1.
</event>
<event>
 7    1  0.6988825E-006  0.1725719E+03  0.7561462E-02  0.1175192E+00
          1   -1    0    0  501    0  0.00000000000E+00  0.00000000000E+00  0.19200797185E+03  0.19200797185E+03  0.00000000000E+00 0. -1.
         -1   -1    0    0    0  501 -0.00000000000E+00 -0.00000000000E+00 -0.23226871138E+03  0.23226871138E+03  0.00000000000E+00 0.  1.
         23    2    1    2    0    0 -0.10194376945E+03  0.12280441994E+03 -0.10508721576E+03  0.21138324875E+03  0.90366460859E+02 0.  0.
          5    1    1    2  502    0  0.10062066049E+03 -0.11564373263E+03  0.59937800311E+01  0.15346461485E+03  0.41800000000E+01 0.  1.
         -5    1    1    2    0  502  0.13231089594E+01 -0.71606873127E+01  0.58832696205E+02  0.59428819632E+02  0.41800000000E+01 0.  1.
        -11    1    3    3    0    0 -0.61089117017E+02  0.80836445771E+01 -0.34220405758E+02  0.70485897156E+02  0.00000000000E+00 0.  1.
         11    1    3    3    0    0 -0.40854652429E+02  0.11472077536E+03 -0.70866810005E+02  0.14089735159E+03  0.00000000000E+00 0. -1.
</event>
<event>
 7    1  0.6988825E-006  0.8453295E+02  0.7561462E-02  0.1316658E+00
          2   -1    0    0  501    0  0.00000000000E+00  0.00000000000E+00  0.37667078913E+03  0.37667078913E+03  0.00000000000E+00 0. -1.
         -2   -1    0    0    0  501 -0.00000000000E+00 -0.00000000000E+00 -0.32126519411E+02  0.32126519411E+02  0.00000000000E+00 0.  1.
         23    2    1    2    0    0 -0.95955828495E+01  0.26669514155E+00  0.12819109522E+03  0.15870123934E+03  0.93064387064E+02 0.  0.
          5    1    1    2  502    0  0.42495477516E+02 -0.12657211417E+02  0.17075829382E+02  0.47698290947E+02  0.41800000000E+01 0. -1.
         -5    1    1    2    0  502 -0.32899894667E+02  0.12390516275E+02  0.19927734512E+03  0.20239777825E+03  0.41800000000E+01 0. -1.
        -11    1    3    3    0    0 -0.18600471738E+02  0.42262762321E+02  0.42078991896E+02  0.62472075256E+02  0.00000000000E+00 0.  1.
         11    1    3    3    0    0  0.90048888884E+01 -0.41996067179E+02  0.86112103320E+02  0.96229164086E+02  0.00000000000E+00 0. -1.
</event>
<event>
 7    1  0.6988825E-006  0.9687932E+02  0.7561462E-02  0.1286999E+00
          1   -1    0    0  501    0  0.00000000000E+00  0.00000000000E+00  0.48671423856E+02  0.48671423856E+02  0.00000000000E+00 0. -1.
         -1   -1    0    0    0  501 -0.00000000000E+00 -0.00000000000E+00 -0.27017011892E+03  0.27017011892E+03  0.00000000000E+00 0.  1.
         23    2    1    2    0    0  0.25646601233E+02  0.29271325447E+02 -0.91643272283E+02  0.13438369808E+03  0.90254807662E+02 0.  0.
          5    1    1    2  502    0 -0.44736706557E+02  0.26378930980E+02 -0.13214718830E+02  0.53752414895E+02  0.41800000000E+01 0. -1.
         -5    1    1    2    0  502  0.19090105324E+02 -0.55650256428E+02 -0.11664070395E+03  0.13070542981E+03  0.41800000000E+01 0. -1.
        -11    1    3    3    0    0  0.84664898151E+01  0.52836876416E+02 -0.90574958889E+02  0.10520095122E+03  0.00000000000E+00 0.  1.
         11    1    3    3    0    0  0.17180111418E+02 -0.23565550969E+02 -0.10683133931E+01  0.29182746860E+02  0.00000000000E+00 0. -1.
</event>
<event>
 7    1  0.6988825E-006  0.1258343E+03  0.7561462E-02  0.1233771E+00
         -1   -1    0    0    0  501 -0.00000000000E+00  0.00000000000E+00  0.84190720795E+02  0.84190720795E+02  0.00000000000E+00 0.  1.
          1   -1    0    0  501    0  0.00000000000E+00 -0.00000000000E+00 -0.19284562153E+03  0.19284562153E+03  0.00000000000E+00 0. -1.
         23    2    1    2    0    0  0.63310723816E+02  0.21277452710E+02 -0.35340181837E+02  0.11739699652E+03  0.89845136735E+02 0.  0.
          5    1    1    2  502    0 -0.98536103851E+02 -0.33501002620E+02 -0.50854227149E+02  0.11591076636E+03  0.41800000000E+01 0.  1.
         -5    1    1    2    0  502  0.35225380035E+02  0.12223549911E+02 -0.22460491748E+02  0.43728579449E+02  0.41800000000E+01 0.  1.
        -11    1    3    3    0    0  0.23691706869E+02  0.53765332413E+02 -0.79203491356E+01  0.59285241623E+02  0.00000000000E+00 0. -1.
         11    1    3    3    0    0  0.39619016947E+02 -0.32487879704E+02 -0.27419832702E+02  0.58111754894E+02  0.00000000000E+00 0.  1.
</event>
<event>
 7    1  0.6988825E-006  0.1110649E+03  0.7561462E-02  0.1258610E+00
         -3   -1    0    0    0  501 -0.00000000000E+00  0.00000000000E+00  0.32568394626E+03  0.32568394626E+03  0.00000000000E+00 0.  1.
          3   -1    0    0  501    0  0.00000000000E+00 -0.00000000000E+00 -0.42007203210E+02  0.42007203210E+02  0.00000000000E+00 0. -1.
         23    2    1    2    0    0  0.21600350555E+02  0.16098359288E+02  0.17741594590E+03  0.20136308981E+03  0.91350663720E+02 0.  0.
          5    1    1    2  502    0 -0.73726558307E+02 -0.52487275447E+01  0.69059166021E+02  0.10124127297E+03  0.41800000000E+01 0.  1.
         -5    1    1    2    0  502  0.52126207751E+02 -0.10849631744E+02  0.37201631135E+02  0.65086786697E+02  0.41800000000E+01 0.  1.
        -11    1    3    3    0    0  0.17427763091E+02 -0.37278796374E+02  0.87935936038E+02  0.97088436141E+02  0.00000000000E+00 0.  1.
         11    1    3    3    0    0  0.41725874648E+01  0.53377155662E+02  0.89480009860E+02  0.10427465367E+03  0.00000000000E+00 0. -1.
</event>
<event>
 7    1  0.6988825E-006  0.1090262E+03  0.7561462E-02  0.1262384E+00
         -1   -1    0    0    0  501 -0.00000000000E+00  0.00000000000E+00  0.84056522569E+02  0.84056522569E+02  0.00000000000E+00 0.  1.
          1   -1    0    0  501    0  0.00000000000E+00 -0.00000000000E+00 -0.61014515726E+03  0.61014515726E+03  0.00000000000E+00 0. -1.
         23    2    1    2    0    0  0.39463719538E+02 -0.26292005546E+02  0.45685930031E+02  0.10922655406E+03  0.87146894343E+02 0.  0.
          5    1    1    2  502    0 -0.78823157395E+02  0.68528520318E+01 -0.38459939369E+03  0.39267571576E+03  0.41800000000E+01 0. -1.
         -5    1    1    2    0  502  0.39359437857E+02  0.19439153514E+02 -0.18717517103E+03  0.19229941001E+03  0.41800000000E+01 0.  1.
        -11    1    3    3    0    0  0.18161402323E+02 -0.55601171762E+02  0.11909803272E+02  0.59692296401E+02  0.00000000000E+00 0.  1.
         11    1    3    3    0    0  0.21302317214E+02  0.29309166216E+02  0.33776126760E+02  0.49534257659E+02  0.00000000000E+00 0. -1.
</event>
<event>
 7    1  0.6988825E-006  0.7869829E+02  0.7561462E-02  0.1332787E+00
          1   -1    0    0  501    0  0.00000000000E+00  0.00000000000E+00  0.43297681905E+03  0.43297681905E+03  0.00000000000E+00 0. -1.
         -1   -1    0    0    0  501 -0.00000000000E+00 -0.00000000000E+00 -0.44187152928E+02  0.44187152928E+02  0.00000000000E+00 0.  1.
         23    2    1    2    0    0 -0.21751859955E+02  0.32276841146E+01  0.30316903791E+02  0.96857503777E+02  0.89323569265E+02 0.  0.
          5    1    1    2  502    0 -0.42626861020E+01 -0.37489232281E+02  0.32060013917E+03  0.32283979721E+03  0.41800000000E+01 0. -1.
         -5    1    1    2    0  502  0.26014546057E+02  0.34261548167E+02  0.37872623165E+02  0.57466670990E+02  0.41800000000E+01 0. -1.
        -11    1    3    3    0    0  0.63629461758E+01 -0.31155796906E+02 -0.13427630639E+02  0.34517706028E+02  0.00000000000E+00 0.  1.
         11    1    3    3    0    0 -0.28114806131E+02  0.34383481021E+02  0.43744534430E+02  0.62339797749E+02  0.00000000000E+00 0. -1.
</event>
<event>
 7    1  0.6988825E-006  0.2465712E+03  0.7561462E-02  0.1115491E+00
          2   -1    0    0  501    0  0.00000000000E+00  0.00000000000E+00  0.36995196543E+04  0.36995196543E+04  0.00000000000E+00 0. -1.
         -2   -1    0    0    0  501 -0.00000000000E+00 -0.00000000000E+00 -0.17907842680E+02  0.17907842680E+02  0.00000000000E+00 0.  1.
         23    2    1    2    0    0  0.73376923929E+02 -0.20972165157E+03  0.12674442801E+04  0.12898321049E+04  0.88794771966E+02 0.  0.
          5    1    1    2  502    0 -0.10221044628E+03  0.19748667463E+03  0.21771560571E+04  0.21884866761E+04  0.41800000000E+01 0.  1.
         -5    1    1    2    0  502  0.28833522346E+02  0.12234976935E+02  0.23701147442E+03  0.23910871602E+03  0.41800000000E+01 0.  1.
        -11    1    3    3    0    0  0.52965153018E+02 -0.35592845958E+02  0.31911243779E+03  0.32543033981E+03  0.00000000000E+00 0.  1.
         11    1    3    3    0    0  0.20411770911E+02 -0.17412880561E+03  0.94833184230E+03  0.96440176506E+03  0.00000000000E+00 0. -1.
</event>
<event>
 7    1  0.6988825E-006  0.1904216E+03  0.7561462E-02  0.1158082E+00
         -2   -1    0    0    0  501 -0.00000000000E+00  0.00000000000E+00  0.20565595783E+03  0.20565595783E+03  0.00000000000E+00 0. -1.
          2   -1    0    0  501    0  0.00000000000E+00 -0.00000000000E+00 -0.30711434919E+03  0.30711434919E+03  0.00000000000E+00 0.  1.
         23    2    1    2    0    0 -0.12424868387E+03  0.13064069117E+03  0.91062314797E+02  0.22085168802E+03  0.89321874674E+02 0.  0.
          5    1    1    2  502    0  0.11246936050E+03 -0.58847850910E+02 -0.17626655903E+03  0.21725514687E+03  0.41800000000E+01 0.  1.
         -5    1    1    2    0  502  0.11779323366E+02 -0.71792840258E+02 -0.16254147138E+02  0.74663472130E+02  0.41800000000E+01 0.  1.
        -11    1    3    3    0    0 -0.10405734412E+03  0.11711036811E+03  0.36117219421E+02  0.16077071476E+03  0.00000000000E+00 0.  1.
         11    1    3    3    0    0 -0.20191339746E+02  0.13530323057E+02  0.54945095377E+02  0.60080973267E+02  0.00000000000E+00 0. -1.
</event>
<event>
 7    1  0.6988825E-006  0.1517050E+03  0.7561462E-02  0.1198393E+00
          2   -1    0    0  501    0  0.00000000000E+00  0.00000000000E+00  0.24707764586E+03  0.24707764586E+03  0.00000000000E+00 0.  1.
         -2   -1    0    0    0  501 -0.00000000000E+00 -0.00000000000E+00 -0.13501875963E+03  0.13501875963E+03  0.00000000000E+00 0. -1.
         23    2    1    2    0    0 -0.48445956984E+02 -0.13189830274E+03  0.21092526022E+02  0.17312939482E+03  0.98917742006E+02 0.  0.
          5    1    1    2  502    0  0.32842498566E+02  0.50713157996E+02  0.10858814794E+03  0.12433548319E+03  0.41800000000E+01 0. -1.
         -5    1    1    2    0  502  0.15603458418E+02  0.81185144739E+02 -0.17621787744E+02  0.84631527484E+02  0.41800000000E+01 0. -1.
        -11    1    3    3    0    0 -0.63036517285E+02 -0.61116269018E+02  0.42790767637E+02  0.97672159006E+02  0.00000000000E+00 0.  1.
         11    1    3    3    0    0  0.14590560301E+02 -0.70782033718E+02 -0.21698241615E+02  0.75457235811E+02  0.00000000000E+00 0. -1.
</event>
<event>
 7    1  0.6988825E-006  0.1652403E+03  0.7561462E-02  0.1182904E+00
          1   -1    0    0  501    0  0.00000000000E+00  0.00000000000E+00  0.25563722767E+03  0.25563722767E+03  0.00000000000E+00 0. -1.
         -1   -1    0    0    0  501 -0.00000000000E+00 -0.00000000000E+00 -0.11249534517E+03  0.11249534517E+03  0.00000000000E+00 0.  1.
         23    2    1    2    0    0 -0.76092640638E+02 -0.10016936751E+03  0.33164928639E+02  0.15941048731E+03  0.92129250667E+02 0.  0.
          5    1    1    2  502    0  0.10562264011E+03  0.98999019910E+02  0.76204905090E+02  0.16365087231E+03  0.41800000000E+01 0. -1.
         -5    1    1    2    0  502 -0.29529999474E+02  0.11703475952E+01  0.33772048775E+02  0.45071213218E+02  0.41800000000E+01 0. -1.
        -11    1    3    3    0    0 -0.42026802949E+02 -0.11209535597E+03  0.28047475974E+02  0.12295642279E+03  0.00000000000E+00 0. -1.
         11    1    3    3    0    0 -0.34065837689E+02  0.11925988470E+02  0.51174526650E+01  0.36454064522E+02  0.00000000000E+00 0.  1.
</event>
<event>
 7    1  0.6988825E-006  0.1573811E+03  0.7561462E-02  0.1191686E+00
         -2   -1    0    0    0  501 -0.00000000000E+00  0.00000000000E+00  0.16991327345E+02  0.16991327345E+02  0.00000000000E+00 0.  1.
          2   -1    0    0  501    0  0.00000000000E+00 -0.00000000000E+00 -0.32727291052E+04  0.32727291052E+04  0.00000000000E+00 0. -1.
         23    2    1    2    0    0 -0.41452118262E+02  0.14304746939E+03 -0.55376107042E+03  0.58075261640E+03  0.91877210105E+02 0.  0.
          5    1    1    2  502    0  0.17345223812E+02 -0.73218951853E+02 -0.22259264429E+04  0.22272018034E+04  0.41800000000E+01 0.  1.
         -5    1    1    2    0  502  0.24106894449E+02 -0.69828517538E+02 -0.47605026458E+03  0.48176601274E+03  0.41800000000E+01 0.  1.
        -11    1    3    3    0    0 -0.42622760235E+02  0.29451980037E+02 -0.95797659436E+02  0.10890964315E+03  0.00000000000E+00 0.  1.
         11    1    3    3    0    0  0.11706419736E+01  0.11359548935E+03 -0.45796341098E+03  0.47184297325E+03  0.00000000000E+00 0. -1.
</event>
<event>
 7    1  0.6988825E-006  0.1084612E+03  0.7561462E-02  0.1263446E+00
         -2   -1    0    0    0  501 -0.00000000000E+00  0.00000000000E+00  0.97421279849E+02  0.97421279849E+02  0.00000000000E+00 0.  1.
          2   -1    0    0  501    0  0.00000000000E+00 -0.00000000000E+00 -0.21484552803E+03  0.21484552803E+03  0.00000000000E+00 0. -1.
         23    2    1    2    0    0 -0.68760883386E+02 -0.45944583161E+01  0.11136201410E+02  0.12010921632E+03  0.97739657930E+02 0.  0.
          5    1    1    2  502    0 -0.27010428662E+02  0.10411631531E+01 -0.80185563400E+02  0.84722159173E+02  0.41800000000E+01 0.  1.
         -5    1    1    2    0  502  0.95771312048E+02  0.35532951630E+01 -0.48374886193E+02  0.10743543239E+03  0.41800000000E+01 0.  1.
        -11    1    3    3    0    0 -0.73594595053E+02 -0.21005991297E+02  0.40150684819E+02  0.86426232030E+02  0.00000000000E+00 0.  1.
         11    1    3    3    0    0  0.48337116672E+01  0.16411532981E+02 -0.29014483409E+02  0.33682984291E+02  0.00000000000E+00 0. -1.
</event>
<event>
 7    1  0.6988825E-006  0.9834020E+02  0.7561462E-02  0.1283825E+00
          3   -1    0    0  501    0  0.00000000000E+00  0.00000000000E+00  0.25697925435E+02  0.25697925435E+02  0.00000000000E+00 0. -1.
         -3   -1    0    0    0  501 -0.00000000000E+00 -0.00000000000E+00 -0.51810606447E+03  0.51810606447E+03  0.00000000000E+00 0.  1.
         23    2    1    2    0    0 -0.37691021077E+02 -0.98828932562E+01 -0.23489230487E+03  0.25487603399E+03  0.90934664276E+02 0.  0.
          5    1    1    2  502    0  0.64704131944E+02  0.48003867254E+02 -0.12933554938E+03  0.15243409295E+03  0.41800000000E+01 0. -1.
         -5    1    1    2    0  502 -0.27013110868E+02 -0.38120973998E+02 -0.12818028479E+03  0.13649386296E+03  0.41800000000E+01 0. -1.
        -11    1    3    3    0    0 -0.42989088772E+02  0.13548952751E+02 -0.22401551393E+03  0.22850511232E+03  0.00000000000E+00 0.  1.
         11    1    3    3    0    0  0.52980676949E+01 -0.23431846007E+02 -0.10876790935E+02  0.26370921668E+02  0.00000000000E+00 0. -1.
</event>
<event>
 7    1  0.6988825E-006  0.1348593E+03  0.7561462E-02  0.1220418E+00
         -1   -1    0    0    0  501 -0.00000000000E+00  0.00000000000E+00  0.91935524577E+02  0.91935524577E+02  0.00000000000E+00 0.  1.
          1   -1    0    0  501    0  0.00000000000E+00 -0.00000000000E+00 -0.29503195041E+03  0.29503195041E+03  0.00000000000E+00 0. -1.
         23    2    1    2    0    0  0.81481128600E+02 -0.72049965411E+02 -0.21306365233E+02  0.14624748503E+03  0.95414851275E+02 0.  0.
          5    1    1    2  502    0 -0.76944101997E+02  0.99398439242E+02 -0.12466183735E+03  0.17708328731E+03  0.41800000000E+01 0. -1.
         -5    1    1    2    0  502 -0.45370266038E+01 -0.27348473831E+02 -0.57128223253E+02  0.63636702644E+02  0.41800000000E+01 0.  1.
        -11    1    3    3    0    0  0.82748722003E+02 -0.56236347738E+02  0.19973959565E+02  0.10202370735E+03  0.00000000000E+00 0.  1.
         11    1    3    3    0    0 -0.12675934021E+01 -0.15813617673E+02 -0.41280324799E+02  0.44223777681E+02  0.00000000000E+00 0. -1.
</event>
<event>
 7    1  0.6988825E-006  0.9066747E+02  0.7561462E-02  0.1301243E+00
          2   -1    0    0  501    0  0.00000000000E+00  0.00000000000E+00  0.73497306613E+02  0.73497306613E+02  0.00000000000E+00 0. -1.
         -2   -1    0    0    0  501 -0.00000000000E+00 -0.00000000000E+00 -0.18344153704E+03  0.18344153704E+03  0.00000000000E+00 0.  1.
         23    2    1    2    0    0  0.64962332834E+01  0.36679656480E+02 -0.64375714516E+02  0.11869238413E+03  0.92498925310E+02 0.  0.
          5    1    1    2  502    0 -0.58667052693E+01  0.37893402909E+02  0.15695069594E+02  0.41642956479E+02  0.41800000000E+01 0. -1.
         -5    1    1    2    0  502 -0.62952801419E+00 -0.74573059389E+02 -0.61263585505E+02  0.96603503048E+02  0.41800000000E+01 0. -1.
        -11    1    3    3    0    0 -0.47039378390E+01 -0.14725715703E+02 -0.64247226572E+02  0.66080858471E+02  0.00000000000E+00 0.  1.
         11    1    3    3    0    0  0.11200171122E+02  0.51405372183E+02 -0.12848794441E+00  0.52611525654E+02  0.00000000000E+00 0. -1.
</event>
<event>
 7    1  0.6988825E-006  0.1073542E+03  0.7561462E-02  0.1265549E+00
          2   -1    0    0  501    0  0.00000000000E+00  0.00000000000E+00  0.15000227548E+03  0.15000227548E+03  0.00000000000E+00 0. -1.
         -2   -1    0    0    0  501 -0.00000000000E+00 -0.00000000000E+00 -0.10390754487E+03  0.10390754487E+03  0.00000000000E+00 0.  1.
         23    2    1    2    0    0 -0.59057463705E+02 -0.20449420249E+02 -0.98610654933E+00  0.10636399480E+03  0.86060235740E+02 0.  0.
          5    1    1    2  502    0 -0.38744111781E+02 -0.32029340358E+01  0.14410888761E+02  0.41671466245E+02  0.41800000000E+01 0.  1.
         -5    1    1    2    0  502  0.97801575486E+02  0.23652354285E+02  0.32669948400E+02  0.10587435931E+03  0.41800000000E+01 0.  1.
        -11    1    3    3    0    0  0.18389841419E+01 -0.13481616905E+02 -0.34087786261E+02  0.36703038420E+02  0.00000000000E+00 0.  1.
         11    1    3    3    0    0 -0.60896447847E+02 -0.69678033435E+01  0.33101679712E+02  0.69660956379E+02  0.00000000000E+00 0. -1.
</event>
<event>
 7    1  0.6988825E-006  0.1009639E+03  0.7561462E-02  0.1278282E+00
         -1   -1    0    0    0  501 -0.00000000000E+00  0.00000000000E+00  0.22615821020E+02  0.22615821020E+02  0.00000000000E+00 0.  1.
          1   -1    0    0  501    0  0.00000000000E+00 -0.00000000000E+00 -0.55617515642E+03  0.55617515642E+03  0.00000000000E+00 0. -1.
         23    2    1    2    0    0  0.25545792533E+02  0.18960520161E+00 -0.21184960512E+03  0.23267688768E+03  0.92766671842E+02 0.  0.
          5    1    1    2  502    0  0.29656910798E+02 -0.30391570669E+02 -0.43835140424E+02  0.61173293698E+02  0.41800000000E+01 0.  1.
         -5    1    1    2    0  502 -0.55202703332E+02  0.30201965467E+02 -0.27787458985E+03  0.28494079606E+03  0.41800000000E+01 0.  1.
        -11    1    3    3    0    0  0.58091476892E+02 -0.15415425338E+02 -0.12980901926E+03  0.14304767214E+03  0.00000000000E+00 0.  1.
         11    1    3    3    0    0 -0.32545684359E+02  0.15605030539E+02 -0.82040585866E+02  0.89629215537E+02  0.00000000000E+00 0. -1.
</event>
<event>
 7    1  0.6988825E-006  0.1005032E+03  0.7561462E-02  0.1279241E+00
         -2   -1    0    0    0  501 -0.00000000000E+00  0.00000000000E+00  0.23209712157E+02  0.23209712157E+02  0.00000000000E+00 0.  1.
          2   -1    0    0  501    0  0.00000000000E+00 -0.00000000000E+00 -0.69693191072E+03  0.69693191072E+03  0.00000000000E+00 0. -1.
         23    2    1    2    0    0  0.71896497294E+02  0.10520739149E+02 -0.32214912272E+03  0.33996956138E+03  0.80743130492E+02 0.  0.
          5    1    1    2  502    0  0.16846078397E+02  0.17380270183E+01 -0.22145727651E+03  0.22214321690E+03  0.41800000000E+01 0. -1.
         -5    1    1    2    0  502 -0.88742575692E+02 -0.12258766167E+02 -0.13011579934E+03  0.15802884460E+03  0.41800000000E+01 0. -1.
        -11    1    3    3    0    0  0.50937891822E+01  0.25010383516E+02 -0.27600624935E+02  0.37593356709E+02  0.00000000000E+00 0.  1.
         11    1    3    3    0    0  0.66802708112E+02 -0.14489644367E+02 -0.29454849778E+03  0.30237620467E+03  0.00000000000E+00 0. -1.
</event>
<event>
 7    1  0.6988825E-006  0.9670659E+02  0.7561462E-02  0.1287378E+00
          1   -1    0    0  501    0  0.00000000000E+00  0.00000000000E+00  0.11874280430E+04  0.11874280430E+04  0.00000000000E+00 0.  1.
         -1   -1    0    0    0  501 -0.00000000000E+00 -0.00000000000E+00 -0.24277720929E+02  0.24277720929E+02  0.00000000000E+00 0. -1.
         23    2    1    2    0    0 -0.41195715451E+02 -0.11407306614E+02  0.10680295560E+03  0.14711955155E+03  0.91706474730E+02 0.  0.
          5    1    1    2  502    0 -0.37920070089E+02  0.97528427542E+01  0.16125983605E+03  0.16599776137E+03  0.41800000000E+01 0. -1.
         -5    1    1    2    0  502  0.79115785540E+02  0.16544638601E+01  0.89508753042E+03  0.89858845101E+03  0.41800000000E+01 0. -1.
        -11    1    3    3    0    0 -0.27482800966E+02  0.24211059158E+02  0.10233513828E+03  0.10869204323E+03  0.00000000000E+00 0.  1.
         11    1    3    3    0    0 -0.13712914485E+02 -0.35618365773E+02  0.44678173195E+01  0.38427508319E+02  0.00000000000E+00 0. -1.
</event>
<event>
 7    1  0.6988825E-006  0.3203635E+03  0.7561462E-02  0.1075482E+00
          2   -1    0    0  501    0  0.00000000000E+00  0.00000000000E+00  0.17069447939E+04  0.17069447939E+04  0.00000000000E+00 0. -1.
         -2   -1    0    0    0  501 -0.00000000000E+00 -0.00000000000E+00 -0.65829745490E+02  0.65829745490E+02  0.00000000000E+00 0.  1.
         23    2    1    2    0    0 -0.90356193097E+02 -0.30377413682E+03  0.82200732962E+03  0.88562847370E+03  0.90547090778E+02 0.  0.
          5    1    1    2  502    0  0.94806662954E+02  0.29560553093E+03  0.82010028326E+03  0.87689958391E+03  0.41800000000E+01 0.  1.
         -5    1    1    2    0  502 -0.44504698574E+01  0.81686058840E+01 -0.99256449728E+00  0.10246481753E+02  0.41800000000E+01 0.  1.
        -11    1    3    3    0    0 -0.27844543652E+02 -0.17169933289E+03  0.33927671827E+03  0.38126719120E+03  0.00000000000E+00 0. -1.
         11    1    3    3    0    0 -0.62511649444E+02 -0.13207480392E+03  0.48273061135E+03  0.50436128250E+03  0.00000000000E+00 0.  1.
</event>
<event>
 7    1  0.6988825E-006  0.1790443E+03  0.7561462E-02  0.1168731E+00
          1   -1    0    0  501    0  0.00000000000E+00  0.00000000000E+00  0.18790093117E+04  0.18790093117E+04  0.00000000000E+00 0. -1.
         -1   -1    0    0    0  501 -0.00000000000E+00 -0.00000000000E+00 -0.25363236391E+02  0.25363236391E+02  0.00000000000E+00 0.  1.
         23    2    1    2    0    0  0.21140289039E+02 -0.16866897928E+03  0.52095398658E+03  0.55507212865E+03  0.88407440164E+02 0.  0.
          5    1    1    2  502    0 -0.10124843301E+01  0.16530540890E+03  0.13004064536E+04  0.13108780722E+04  0.41800000000E+01 0.  1.
         -5    1    1    2    0  502 -0.20127804709E+02  0.33635703834E+01  0.32285635109E+02  0.38422347176E+02  0.41800000000E+01 0.  1.
        -11    1    3    3    0    0  0.18030499530E+02 -0.49409308159E+02  0.64194910531E+02  0.82990151127E+02  0.00000000000E+00 0. -1.
         11    1    3    3    0    0  0.31097895090E+01 -0.11925967112E+03  0.45675907605E+03  0.47208197752E+03  0.00000000000E+00 0.  1.
</event>
<event>
 7    1  0.6988825E-006  0.1611484E+03  0.7561462E-02  0.1187406E+00
         -2   -1    0    0    0  501 -0.00000000000E+00  0.00000000000E+00  0.51577649754E+02  0.51577649754E+02  0.00000000000E+00 0.  1.
          2   -1    0    0  501    0  0.00000000000E+00 -0.00000000000E+00 -0.64767244005E+03  0.64767244005E+03  0.00000000000E+00 0. -1.
         23    2    1    2    0    0 -0.14253082396E+03  0.22951791777E+01 -0.22063234381E+03  0.27860148855E+03  0.92843172425E+02 0.  0.
          5    1    1    2  502    0  0.29050726034E+02 -0.44264214669E+02 -0.20368924883E+03  0.21049951988E+03  0.41800000000E+01 0.  1.
         -5    1    1    2    0  502  0.11348009792E+03  0.41969035492E+02 -0.17177319766E+03  0.21014908137E+03  0.41800000000E+01 0.  1.
        -11    1    3    3    0    0 -0.63018302635E+02 -0.18975605138E+02 -0.32815158478E+02  0.73540564882E+02  0.00000000000E+00 0.  1.
         11    1    3    3    0    0 -0.79512521321E+02  0.21270784315E+02 -0.18781718533E+03  0.20506092367E+03  0.00000000000E+00 0. -1.
</event>
<event>
 7    1  0.6988825E-006  0.1069480E+03  0.7561462E-02  0.1266328E+00
          2   -1    0    0  501    0  0.00000000000E+00  0.00000000000E+00  0.32114459205E+03  0.32114459205E+03  0.00000000000E+00 0. -1.
         -2   -1    0    0    0  501 -0.00000000000E+00 -0.00000000000E+00 -0.95037256443E+02  0.95037256443E+02  0.00000000000E+00 0.  1.
         23    2    1    2    0    0 -0.22478758227E+02  0.23562740538E+02 -0.48472457775E+02  0.11269895203E+03  0.96389715807E+02 0.  0.
          5    1    1    2  502    0 -0.50995293744E+02 -0.12673732319E+01  0.90174077619E+02  0.10368685015E+03  0.41800000000E+01 0.  1.
         -5    1    1    2    0  502  0.73474051971E+02 -0.22295367307E+02  0.18440571577E+03  0.19979604632E+03  0.41800000000E+01 0.  1.
        -11    1    3    3    0    0 -0.32260552769E+02 -0.22109670739E+02  0.74742319011E+01  0.39817646185E+02  0.00000000000E+00 0. -1.
         11    1    3    3    0    0  0.97817945421E+01  0.45672411277E+02 -0.55946689676E+02  0.72881305848E+02  0.00000000000E+00 0.  1.
</event>
<event>
 7    1  0.6988825E-006  0.1039253E+03  0.7561462E-02  0.1272252E+00
          1   -1    0    0  501    0  0.00000000000E+00  0.00000000000E+00  0.92379484566E+02  0.92379484566E+02  0.00000000000E+00 0. -1.
         -1   -1    0    0    0  501 -0.00000000000E+00 -0.00000000000E+00 -0.13351880684E+03  0.13351880684E+03  0.00000000000E+00 0.  1.
         23    2    1    2    0    0 -0.18999824734E+02 -0.17531636037E+02 -0.37495161790E+02  0.98112272539E+02  0.86900973891E+02 0.  0.
          5    1    1    2  502    0  0.49248340629E+02 -0.34015602937E+02 -0.23837884270E+02  0.64561423655E+02  0.41800000000E+01 0. -1.
         -5    1    1    2    0  502 -0.30248515895E+02  0.51547238974E+02  0.20193723784E+02  0.63224595214E+02  0.41800000000E+01 0. -1.
        -11    1    3    3    0    0 -0.31520466043E+02  0.27109241982E+02 -0.29711015044E+02  0.51099855140E+02  0.00000000000E+00 0.  1.
         11    1    3    3    0    0  0.12520641310E+02 -0.44640878019E+02 -0.77841467458E+01  0.47012417399E+02  0.00000000000E+00 0. -1.
</event>
<event>
 7    1  0.6988825E-006  0.2204634E+03  0.7561462E-02  0.1133538E+00
          2   -1    0    0  501    0  0.00000000000E+00  0.00000000000E+00  0.76602962898E+03  0.76602962898E+03  0.00000000000E+00 0. -1.
         -2   -1    0    0    0  501 -0.00000000000E+00 -0.00000000000E+00 -0.64785123996E+02  0.64785123996E+02  0.00000000000E+00 0.  1.
         23    2    1    2    0    0 -0.18785375438E+03 -0.40959450348E+02  0.28653985269E+03  0.35691349756E+03  0.91189078041E+02 0.  0.
          5    1    1    2  502    0  0.79167874547E+01 -0.33290625724E+02  0.55903238399E+02  0.65677893908E+02  0.41800000000E+01 0.  1.
         -5    1    1    2    0  502  0.17993696693E+03  0.74250076072E+02  0.35880141390E+03  0.40822336151E+03  0.41800000000E+01 0.  1.
        -11    1    3    3    0    0 -0.12347662694E+03  0.17603536130E+02  0.15116611464E+03  0.19597845826E+03  0.00000000000E+00 0.  1.
         11    1    3    3    0    0 -0.64377127441E+02 -0.58562986478E+02  0.13537373805E+03  0.16093503930E+03  0.00000000000E+00 0. -1.
</event>
<event>
 7    1  0.6988825E-006  0.1739124E+03  0.7561462E-02  0.1173828E+00
         -1   -1    0    0    0  501 -0.00000000000E+00  0.00000000000E+00  0.25456096200E+02  0.25456096200E+02  0.00000000000E+00 0.  1.
          1   -1    0    0  501    0  0.00000000000E+00 -0.00000000000E+00 -0.13393686952E+04  0.13393686952E+04  0.00000000000E+00 0. -1.
         23    2    1    2    0    0  0.11259883423E+03  0.94816094016E+02 -0.47826090628E+03  0.50713562902E+03  0.82367849288E+02 0.  0.
          5    1    1    2  502    0  0.93532048040E+01  0.19220310830E+02 -0.50940479573E+02  0.55401332544E+02  0.41800000000E+01 0.  1.
         -5    1    1    2    0  502 -0.12195203903E+03 -0.11403640485E+03 -0.78471121311E+03  0.80228782979E+03  0.41800000000E+01 0.  1.
        -11    1    3    3    0    0  0.44180290880E+02  0.76269718550E+02 -0.17809555416E+03  0.19871334752E+03  0.00000000000E+00 0.  1.
         11    1    3    3    0    0  0.68418543350E+02  0.18546375466E+02 -0.30016535212E+03  0.30842228151E+03  0.00000000000E+00 0. -1.
</event>
<event>
 7    1  0.6988825E-006  0.9811818E+02  0.7561462E-02  0.1284304E+00
          2   -1    0    0  501    0  0.00000000000E+00  0.00000000000E+00  0.11644049032E+03  0.11644049032E+03  0.00000000000E+00 0. -1.
         -2   -1    0    0    0  501 -0.00000000000E+00 -0.00000000000E+00 -0.11504320616E+03  0.11504320616E+03  0.00000000000E+00 0.  1.
         23    2    1    2    0    0  0.34512549573E+01  0.85242066126E+01 -0.41652999286E+02  0.98873302002E+02  0.89198566357E+02 0.  0.
          5    1    1    2  502    0 -0.20077237290E+02  0.47447946952E+02 -0.11098081273E+02  0.52868165611E+02  0.41800000000E+01 0.  1.
         -5    1    1    2    0  502  0.16625982333E+02 -0.55972153565E+02  0.54148364714E+02  0.79742228865E+02  0.41800000000E+01 0.  1.
        -11    1    3    3    0    0  0.15270727812E+02 -0.36442862338E+02 -0.33215886426E+02  0.51619496843E+02  0.00000000000E+00 0. -1.
         11    1    3    3    0    0 -0.11819472855E+02  0.44967068951E+02 -0.84371128603E+01  0.47253805159E+02  0.00000000000E+00 0.  1.
</event>
<event>
 7    1  0.6988825E-006  0.1517831E+03  0.7561462E-02  0.1198299E+00
          1   -1    0    0  501    0  0.00000000000E+00  0.00000000000E+00  0.10057759885E+04  0.10057759885E+04  0.00000000000E+00 0.  1.
         -1   -1    0    0    0  501 -0.00000000000E+00 -0.00000000000E+00 -0.33670383359E+02  0.33670383359E+02  0.00000000000E+00 0. -1.
         23    2    1    2    0    0 -0.55457259677E+02  0.10643069681E+03  0.21232750725E+03  0.26014323603E+03  0.90490508005E+02 0.  0.
          5    1    1    2  502    0  0.44991769111E+02  0.15446040866E+02  0.15205236459E+03  0.15937450688E+03  0.41800000000E+01 0.  1.
         -5    1    1    2    0  502  0.10465490566E+02 -0.12187673768E+03  0.60772573327E+03  0.61992862892E+03  0.41800000000E+01 0.  1.
        -11    1    3    3    0    0 -0.33747306651E+02  0.10648733961E+03  0.11461109628E+03  0.16004417388E+03  0.00000000000E+00 0. -1.
         11    1    3    3    0    0 -0.21709953027E+02 -0.56642795042E-01  0.97716410972E+02  0.10009906214E+03  0.00000000000E+00 0.  1.
</event>
<event>
 7    1  0.6988825E-006  0.1074541E+03  0.7561462E-02  0.1265358E+00
          2   -1    0    0  501    0  0.00000000000E+00  0.00000000000E+00  0.76750717688E+02  0.76750717688E+02  0.00000000000E+00 0. -1.
         -2   -1    0    0    0  501 -0.00000000000E+00 -0.00000000000E+00 -0.18459237368E+03  0.18459237368E+03  0.00000000000E+00 0.  1.
         23    2    1    2    0    0  0.19997726388E+02 -0.69476307161E+01 -0.79652003202E+02  0.13138067047E+03  0.10231451669E+03 0.  0.
          5    1    1    2  502    0 -0.50394087264E+02  0.46983382795E+02  0.55967204648E+01  0.69251700124E+02  0.41800000000E+01 0. -1.
         -5    1    1    2    0  502  0.30396360876E+02 -0.40035752079E+02 -0.33786373251E+02  0.60710720770E+02  0.41800000000E+01 0. -1.
        -11    1    3    3    0    0 -0.11477084910E+02  0.38491868130E+02 -0.81179919491E+01  0.40978643017E+02  0.00000000000E+00 0. -1.
         11    1    3    3    0    0  0.31474811299E+02 -0.45439498846E+02 -0.71534011253E+02  0.90402027453E+02  0.00000000000E+00 0.  1.
</event>
<event>
 7    1  0.6988825E-006  0.1282638E+03  0.7561462E-02  0.1230055E+00
          1   -1    0    0  501    0  0.00000000000E+00  0.00000000000E+00  0.37763690806E+03  0.37763690806E+03  0.00000000000E+00 0. -1.
         -1   -1    0    0    0  501 -0.00000000000E+00 -0.00000000000E+00 -0.69974674058E+02  0.69974674058E+02  0.00000000000E+00 0.  1.
         23    2    1    2    0    0 -0.54912563182E+02 -0.10550713438E+03  0.11905989785E+03  0.19194565036E+03  0.92307791722E+02 0.  0.
          5    1    1    2  502    0  0.35048722284E+02  0.98856992416E+02  0.20394023900E+03  0.22936915958E+03  0.41800000000E+01 0. -1.
         -5    1    1    2    0  502  0.19863840899E+02  0.66501419682E+01 -0.15337902850E+02  0.26296772184E+02  0.41800000000E+01 0. -1.
        -11    1    3    3    0    0 -0.24048020004E+02 -0.94369164698E+02  0.12514638176E+03  0.15857321142E+03  0.00000000000E+00 0. -1.
         11    1    3    3    0    0 -0.30864543178E+02 -0.11137969686E+02 -0.60864839062E+01  0.33372438938E+02  0.00000000000E+00 0.  1.
</event>
<event>
 7    1  0.6988825E-006  0.1433475E+03  0.7561462E-02  0.1208894E+00
          1   -1    0    0  501    0  0.00000000000E+00  0.00000000000E+00  0.24219722001E+03  0.24219722001E+03  0.00000000000E+00 0. -1.
         -1   -1    0    0    0  501 -0.00000000000E+00 -0.00000000000E+00 -0.12292348661E+03  0.12292348661E+03  0.00000000000E+00 0.  1.
         23    2    1    2    0    0  0.81042844344E+02 -0.86954895422E+02 -0.10435087166E+02  0.14924704909E+03  0.89647611016E+02 0.  0.
          5    1    1    2  502    0 -0.16757707693E+02 -0.16810265476E+02  0.80784248241E+02  0.84302864461E+02  0.41800000000E+01 0.  1.
         -5    1    1    2    0  502 -0.64285136651E+02  0.10376516090E+03  0.48924572327E+02  0.13157079307E+03  0.41800000000E+01 0.  1.
        -11    1    3    3    0    0  0.73460706827E+02 -0.24344550356E+02  0.18940522382E+02  0.79673558773E+02  0.00000000000E+00 0.  1.
         11    1    3    3    0    0  0.75821375168E+01 -0.62610345066E+02 -0.29375609548E+02  0.69573490317E+02  0.00000000000E+00 0. -1.
</event>
<event>
 7    1  0.6988825E-006  0.1271871E+03  0.7561462E-02  0.1231690E+00
         -2   -1    0    0    0  501 -0.00000000000E+00  0.00000000000E+00  0.10242056043E+03  0.10242056043E+03  0.00000000000E+00 0.  1.
          2   -1    0    0  501    0  0.00000000000E+00 -0.00000000000E+00 -0.34150379991E+03  0.34150379991E+03  0.00000000000E+00 0. -1.
         23    2    1    2    0    0  0.46350238109E+02 -0.85817251589E+02  0.24047492623E+02  0.13667747983E+03  0.92679589709E+02 0.  0.
          5    1    1    2  502    0 -0.80321779758E+02  0.36427045794E+02 -0.20688841617E+03  0.22494178605E+03  0.41800000000E+01 0.  1.
         -5    1    1    2    0  502  0.33971541648E+02  0.49390205795E+02 -0.56242315944E+02  0.82305094455E+02  0.41800000000E+01 0.  1.
        -11    1    3    3    0    0 -0.62984092103E+01 -0.23887066688E+02  0.46233340870E+02  0.52419306763E+02  0.00000000000E+00 0.  1.
         11    1    3    3    0    0  0.52648647320E+02 -0.61930184901E+02 -0.22185848247E+02  0.84258173069E+02  0.00000000000E+00 0. -1.
</event>
<event>
 7    1  0.6988825E-006  0.1822687E+03  0.7561462E-02  0.1165625E+00
         -1   -1    0    0    0  501 -0.00000000000E+00  0.00000000000E+00  0.11658472077E+03  0.11658472077E+03  0.00000000000E+00 0.  1.
          1   -1    0    0  501    0  0.00000000000E+00 -0.00000000000E+00 -0.32730134933E+03  0.32730134933E+03  0.00000000000E+00 0. -1.
         23    2    1    2    0    0 -0.97151119188E+02 -0.12876533639E+03 -0.97985687511E+02  0.21070286615E+03  0.93678444856E+02 0.  0.
          5    1    1    2  502    0 -0.18479777574E+02 -0.10764726360E+02 -0.19994049239E+02  0.29573906028E+02  0.41800000000E+01 0. -1.
         -5    1    1    2    0  502  0.11563089676E+03  0.13953006275E+03 -0.92736891813E+02  0.20360929792E+03  0.41800000000E+01 0. -1.
        -11    1    3    3    0    0 -0.31357317498E+02 -0.47586825454E+02  0.12803940985E+02  0.58410001046E+02  0.00000000000E+00 0. -1.
         11    1    3    3    0    0 -0.65793801689E+02 -0.81178510940E+02 -0.11078962850E+03  0.15229286510E+03  0.00000000000E+00 0.  1.
</event>
<event>
 7    1  0.6988825E-006  0.1154003E+03  0.7561462E-02  0.1250884E+00
         -3   -1    0    0    0  501 -0.00000000000E+00  0.00000000000E+00  0.25635798061E+03  0.25635798061E+03  0.00000000000E+00 0. -1.
          3   -1    0    0  501    0  0.00000000000E+00 -0.00000000000E+00 -0.81412865585E+02  0.81412865585E+02  0.00000000000E+00 0.  1.
         23    2    1    2    0    0 -0.59577489900E+02 -0.38777669050E+02  0.15328383064E+03  0.19227223445E+03  0.91757803389E+02 0.  0.
          5    1    1    2  502    0  0.24931339200E+02 -0.32352715434E+02  0.46912719080E+02  0.62342164558E+02  0.41800000000E+01 0. -1.
         -5    1    1    2    0  502  0.34646150701E+02  0.71130384484E+02 -0.25251434697E+02  0.83156447192E+02  0.41800000000E+01 0. -1.
        -11    1    3    3    0    0 -0.73980055391E+02 -0.54193114352E+01  0.12822156761E+03  0.14813233250E+03  0.00000000000E+00 0. -1.
         11    1    3    3    0    0  0.14402565490E+02 -0.33358357615E+02  0.25062263035E+02  0.44139901947E+02  0.00000000000E+00 0.  1.
</event>
<event>
 7    1  0.6988825E-006  0.2141399E+03  0.7561462E-02  0.1138329E+00
          2   -1    0    0  501    0  0.00000000000E+00  0.00000000000E+00  0.88478263120E+03  0.88478263120E+03  0.00000000000E+00 0. -1.
         -2   -1    0    0    0  501 -0.00000000000E+00 -0.00000000000E+00 -0.54845252720E+02  0.54845252720E+02  0.00000000000E+00 0.  1.
         23    2    1    2    0    0 -0.11558034577E+03  0.33823691970E+02  0.35983267776E+03  0.39024987406E+03  0.91173185503E+02 0.  0.
          5    1    1    2  502    0 -0.48339624831E+02  0.71582455949E+02  0.18232691679E+03  0.20179530300E+03  0.41800000000E+01 0. -1.
         -5    1    1    2    0  502  0.16391997060E+03 -0.10540614792E+03  0.28777778394E+03  0.34758270686E+03  0.41800000000E+01 0.  1.
        -11    1    3    3    0    0 -0.17654581141E+02 -0.26511715637E+02  0.12161963285E+03  0.12572147945E+03  0.00000000000E+00 0.  1.
         11    1    3    3    0    0 -0.97925764628E+02  0.60335407607E+02  0.23821304491E+03  0.26452839461E+03  0.00000000000E+00 0. -1.
</event>
<event>
 7    1  0.6988825E-006  0.7554050E+02  0.7561462E-02  0.1342205E+00
         -2   -1    0    0    0  501 -0.00000000000E+00  0.00000000000E+00  0.49691863737E+02  0.49691863737E+02  0.00000000000E+00 0.  1.
          2   -1    0    0  501    0  0.00000000000E+00 -0.00000000000E+00 -0.23818560123E+03  0.23818560123E+03  0.00000000000E+00 0. -1.
         23    2    1    2    0    0 -0.18498208694E+02 -0.31515055776E+01 -0.63085515881E+02  0.10975346339E+03  0.87828951372E+02 0.  0.
          5    1    1    2  502    0  0.17367704443E+02  0.54608661294E+02 -0.11022168253E+03  0.12429816872E+03  0.41800000000E+01 0.  1.
         -5    1    1    2    0  502  0.11305042513E+01 -0.51457155716E+02 -0.15186539078E+02  0.53825832863E+02  0.41800000000E+01 0.  1.
        -11    1    3    3    0    0 -0.28649955311E+01  0.16572126052E+02 -0.78472652443E+02  0.80254599511E+02  0.00000000000E+00 0. -1.
         11    1    3    3    0    0 -0.15633213163E+02 -0.19723631629E+02  0.15387136561E+02  0.29498863876E+02  0.00000000000E+00 0.  1.
</event>
<event>
 7    1  0.6988825E-006  0.6273641E+02  0.7561462E-02  0.1386694E+00
         -1   -1    0    0    0  501 -0.00000000000E+00  0.00000000000E+00  0.84884375325E+02  0.84884375325E+02  0.00000000000E+00 0.  1.
          1   -1    0    0  501    0  0.00000000000E+00 -0.00000000000E+00 -0.12022193336E+03  0.12022193336E+03  0.00000000000E+00 0. -1.
         23    2    1    2    0    0  0.41967518055E+01 -0.25614893738E+01  0.11208749670E+02  0.71548402135E+02  0.70493714793E+02 0.  0.
          5    1    1    2  502    0 -0.33437576140E+02  0.36484228252E+02  0.19745418880E+02  0.53446462708E+02  0.41800000000E+01 0. -1.
         -5    1    1    2    0  502  0.29240824335E+02 -0.33922738878E+02 -0.66291726583E+02  0.80111443840E+02  0.41800000000E+01 0. -1.
        -11    1    3    3    0    0  0.81972358155E+01  0.12663560109E+02  0.37770955844E+02  0.40671925637E+02  0.00000000000E+00 0.  1.
         11    1    3    3    0    0 -0.40004840100E+01 -0.15225049483E+02 -0.26562206174E+02  0.30876476498E+02  0.00000000000E+00 0. -1.
</event>
<event>
 7    1  0.6988825E-006  0.1340775E+03  0.7561462E-02  0.1221528E+00
         -2   -1    0    0    0  501 -0.00000000000E+00  0.00000000000E+00  0.20163913624E+03  0.20163913624E+03  0.00000000000E+00 0.  1.
          2   -1    0    0  501    0  0.00000000000E+00 -0.00000000000E+00 -0.50135024295E+03  0.50135024295E+03  0.00000000000E+00 0. -1.
         23    2    1    2    0    0 -0.39583404599E+02 -0.57771632198E+02  0.12173123098E+03  0.16712214295E+03  0.90592001088E+02 0.  0.
          5    1    1    2  502    0  0.60848747297E+02  0.94199449444E+02 -0.46306008443E+03  0.47646429091E+03  0.41800000000E+01 0. -1.
         -5    1    1    2    0  502 -0.21265342699E+02 -0.36427817246E+02  0.41617746738E+02  0.59402945322E+02  0.41800000000E+01 0.  1.
        -11    1    3    3    0    0 -0.64545323285E+02 -0.60461445457E+02  0.85263392537E+02  0.12284759359E+03  0.00000000000E+00 0.  1.
         11    1    3    3    0    0  0.24961918686E+02  0.26898132584E+01  0.36467838444E+02  0.44274549356E+02  0.00000000000E+00 0. -1.
</event>
<event>
 7    1  0.6988825E-006  0.1924624E+03  0.7561462E-02  0.1156259E+00
         -3   -1    0    0    0  501 -0.00000000000E+00  0.00000000000E+00  0.46870725549E+03  0.46870725549E+03  0.00000000000E+00 0.  1.
          3   -1    0    0  501    0  0.00000000000E+00 -0.00000000000E+00 -0.11398302120E+03  0.11398302120E+03  0.00000000000E+00 0. -1.
         23    2    1    2    0    0 -0.22341040734E+02 -0.16751133049E+03  0.31547431475E+03  0.36880977657E+03  0.89092312121E+02 0.  0.
          5    1    1    2  502    0 -0.14714408166E+02  0.15682194144E+03  0.61519924630E+02  0.16915025466E+03  0.41800000000E+01 0.  1.
         -5    1    1    2    0  502  0.37055448900E+02  0.10689389050E+02 -0.22270005097E+02  0.44730245455E+02  0.41800000000E+01 0.  1.
        -11    1    3    3    0    0  0.27916614484E+02 -0.25078797337E+02  0.41431892833E+02  0.55900672481E+02  0.00000000000E+00 0.  1.
         11    1    3    3    0    0 -0.50257655218E+02 -0.14243253316E+03  0.27404242192E+03  0.31290910409E+03  0.00000000000E+00 0. -1.
</event>
<event>
 7    1  0.6988825E-006  0.1546121E+03  0.7561462E-02  0.1194918E+00
         -2   -1    0    0    0  501 -0.00000000000E+00  0.00000000000E+00  0.35118199713E+02  0.35118199713E+02  0.00000000000E+00 0.  1.
          2   -1    0    0  501    0  0.00000000000E+00 -0.00000000000E+00 -0.83534257906E+03  0.83534257906E+03  0.00000000000E+00 0. -1.
         23    2    1    2    0    0 -0.14127055678E+02  0.12998683558E+03 -0.33864567362E+03  0.37468157140E+03  0.92785971794E+02 0.  0.
          5    1    1    2  502    0 -0.16615524884E+02 -0.11237789063E+03 -0.43918619331E+03  0.45365939951E+03  0.41800000000E+01 0.  1.
         -5    1    1    2    0  502  0.30742580562E+02 -0.17608944949E+02 -0.22392512422E+02  0.42119807863E+02  0.41800000000E+01 0.  1.
        -11    1    3    3    0    0 -0.53297721432E+02  0.83798441382E+02 -0.19643528589E+03  0.22011280615E+03  0.00000000000E+00 0.  1.
         11    1    3    3    0    0  0.39170665754E+02  0.46188394200E+02 -0.14221038773E+03  0.15456876526E+03  0.00000000000E+00 0. -1.
</event>
<event>
 7    1  0.6988825E-006  0.1457069E+03  0.7561462E-02  0.1205850E+00
         -2   -1    0    0    0  501 -0.00000000000E+00  0.00000000000E+00  0.27923069027E+02  0.27923069027E+02  0.00000000000E+00 0.  1.
          2   -1    0    0  501    0  0.00000000000E+00 -0.00000000000E+00 -0.93631200134E+03  0.93631200134E+03  0.00000000000E+00 0. -1.
         23    2    1    2    0    0 -0.23043088829E+02  0.11118548368E+03 -0.52092659223E+03  0.54154340892E+03  0.94929202696E+02 0.  0.
          5    1    1    2  502    0  0.48244227188E+02 -0.14927203185E+02 -0.23629493499E+03  0.24166732414E+03  0.41800000000E+01 0. -1.
         -5    1    1    2    0  502 -0.25201138359E+02 -0.96258280496E+02 -0.15116740509E+03  0.18102433731E+03  0.41800000000E+01 0. -1.
        -11    1    3    3    0    0 -0.54736053645E+02  0.77707986801E+02 -0.41947442268E+03  0.43010854219E+03  0.00000000000E+00 0.  1.
         11    1    3    3    0    0  0.31692964816E+02  0.33477496880E+02 -0.10145216955E+03  0.11143486673E+03  0.00000000000E+00 0. -1.
</event>
<event>
 7    1  0.6988825E-006  0.1730908E+03  0.7561462E-02  0.1174662E+00
          2   -1    0    0  501    0  0.00000000000E+00  0.00000000000E+00  0.52543198080E+03  0.52543198080E+03  0.00000000000E+00 0. -1.
         -2   -1    0    0    0  501 -0.00000000000E+00 -0.00000000000E+00 -0.10209228563E+03  0.10209228563E+03  0.00000000000E+00 0.  1.
         23    2    1    2    0    0 -0.15896633724E+03 -0.10577021519E+02  0.37525222240E+02  0.19176686548E+03  0.99921062007E+02 0.  0.
          5    1    1    2  502    0  0.14258226289E+03  0.17514703605E+02  0.39115137223E+03  0.41671733217E+03  0.41800000000E+01 0. -1.
         -5    1    1    2    0  502  0.16384074344E+02 -0.69376820854E+01 -0.53368993025E+01  0.19040068776E+02  0.41800000000E+01 0. -1.
        -11    1    3    3    0    0 -0.76829106309E+00 -0.25296955183E+02  0.19331785683E+02  0.31847200040E+02  0.00000000000E+00 0.  1.
         11    1    3    3    0    0 -0.15819804617E+03  0.14719933663E+02  0.18193436557E+02  0.15991966544E+03  0.00000000000E+00 0. -1.
</event>
<event>
 7    1  0.6988825E-006  0.9884554E+02  0.7561462E-02  0.1282743E+00
          1   -1    0    0  501    0  0.00000000000E+00  0.00000000000E+00  0.48035024916E+03  0.48035024916E+03  0.00000000000E+00 0. -1.
         -1   -1    0    0    0  501 -0.00000000000E+00 -0.00000000000E+00 -0.25233733977E+02  0.25233733977E+02  0.00000000000E+00 0.  1.
         23    2    1    2    0    0 -0.18739080322E+02  0.21109535336E+01  0.18639118517E+03  0.20857272952E+03  0.91680425031E+02 0.  0.
          5    1    1    2  502    0 -0.16733994441E+02 -0.45977250598E+02  0.20922957871E+03  0.21491492073E+03  0.41800000000E+01 0. -1.
         -5    1    1    2    0  502  0.35473074763E+02  0.43866297065E+02  0.59495751300E+02  0.82096332890E+02  0.41800000000E+01 0. -1.
        -11    1    3    3    0    0 -0.52421219059E+02 -0.14599623265E+02  0.12844909100E+03  0.13950018705E+03  0.00000000000E+00 0.  1.
         11    1    3    3    0    0  0.33682138737E+02  0.16710576799E+02  0.57942094168E+02  0.69072542471E+02  0.00000000000E+00 0. -1.
</event>
<event>
 7    1  0.6988825E-006  0.8241955E+02  0.7561462E-02  0.1322322E+00
         -2   -1    0    0    0  501 -0.00000000000E+00  0.00000000000E+00  0.21272348326E+02  0.21272348326E+02  0.00000000000E+00 0.  1.
          2   -1    0    0  501    0  0.00000000000E+00 -0.00000000000E+00 -0.12664081463E+04  0.12664081463E+04  0.00000000000E+00 0. -1.
         23    2    1    2    0    0  0.97598858498E+01 -0.71293396644E+01 -0.95832359136E+02  0.13152611392E+03  0.89270346311E+02 0.  0.
          5    1    1    2  502    0 -0.29869256881E+02 -0.34386377904E+02 -0.17917803462E+03  0.18492386537E+03  0.41800000000E+01 0. -1.
         -5    1    1    2    0  502  0.20109371032E+02  0.41515717568E+02 -0.97012540421E+03  0.97123051532E+03  0.41800000000E+01 0. -1.
        -11    1    3    3    0    0 -0.27268913713E+00 -0.39188304008E+02 -0.11642698570E+02  0.40882147209E+02  0.00000000000E+00 0.  1.
         11    1    3    3    0    0  0.10032574987E+02  0.32058964344E+02 -0.84189660566E+02  0.90643966715E+02  0.00000000000E+00 0. -1.
</event>
<event>
 7    1  0.6988825E-006  0.9049878E+02  0.7561462E-02  0.1301648E+00
          2   -1    0    0  501    0  0.00000000000E+00  0.00000000000E+00  0.52952999947E+03  0.52952999947E+03  0.00000000000E+00 0. -1.
         -2   -1    0    0    0  501 -0.00000000000E+00 -0.00000000000E+00 -0.29943814427E+02  0.29943814427E+02  0.00000000000E+00 0.  1.
         23    2    1    2    0    0  0.14332046414E+02 -0.27292602652E+02  0.98377584356E+02  0.13808790728E+03  0.91868532809E+02 0.  0.
          5    1    1    2  502    0  0.46400384075E+02  0.34391943743E+01  0.72565478842E+02  0.86302055710E+02  0.41800000000E+01 0.  1.
         -5    1    1    2    0  502 -0.60732430489E+02  0.23853408277E+02  0.32864312185E+03  0.33508385091E+03  0.41800000000E+01 0.  1.
        -11    1    3    3    0    0  0.20291121302E+02 -0.45458498873E+02  0.14200945829E+02  0.51767476140E+02  0.00000000000E+00 0.  1.
         11    1    3    3    0    0 -0.59590748883E+01  0.18165896221E+02  0.84176638527E+02  0.86320431143E+02  0.00000000000E+00 0. -1.
</event>
<event>
 7    1  0.6988825E-006  0.1283989E+03  0.7561462E-02  0.1229851E+00
         -1   -1    0    0    0  501 -0.00000000000E+00  0.00000000000E+00  0.31304998618E+02  0.31304998618E+02  0.00000000000E+00 0.  1.
          1   -1    0    0  501    0  0.00000000000E+00 -0.00000000000E+00 -0.72654709416E+03  0.72654709416E+03  0.00000000000E+00 0. -1.
         23    2    1    2    0    0  0.47658905084E+02  0.74311856357E+02 -0.18371697413E+03  0.22390504248E+03  0.92671021545E+02 0.  0.
          5    1    1    2  502    0  0.27465123318E+02 -0.64307800209E+02 -0.32702890324E+03  0.33444760744E+03  0.41800000000E+01 0.  1.
         -5    1    1    2    0  502 -0.75124028402E+02 -0.10004056147E+02 -0.18449621817E+03  0.19949944286E+03  0.41800000000E+01 0.  1.
        -11    1    3    3    0    0  0.25598822037E+02  0.83208255369E+02 -0.82526228415E+02  0.11995620796E+03  0.00000000000E+00 0.  1.
         11    1    3    3    0    0  0.22060083046E+02 -0.88963990126E+01 -0.10119074572E+03  0.10394883452E+03  0.00000000000E+00 0. -1.
</event>
<event>
 7    1  0.6988825E-006  0.9840440E+02  0.7561462E-02  0.1283688E+00
         -2   -1    0    0    0  501 -0.00000000000E+00  0.00000000000E+00  0.43681876216E+02  0.43681876216E+02  0.00000000000E+00 0.  1.
          2   -1    0    0  501    0  0.00000000000E+00 -0.00000000000E+00 -0.41428964461E+03  0.41428964461E+03  0.00000000000E+00 0. -1.
         23    2    1    2    0    0 -0.30028576477E+02  0.19759493462E+02 -0.46761221382E+02  0.10894746377E+03  0.91601228424E+02 0.  0.
          5    1    1    2  502    0  0.64813176436E+02 -0.34752700667E+02 -0.11387662607E+03  0.13562395219E+03  0.41800000000E+01 0. -1.
         -5    1    1    2    0  502 -0.34784599960E+02  0.14993207205E+02 -0.20996992095E+03  0.21340010487E+03  0.41800000000E+01 0. -1.
        -11    1    3    3    0    0 -0.44751946662E+02 -0.15073660408E+02  0.19705893619E+01  0.47263465707E+02  0.00000000000E+00 0.  1.
         11    1    3    3    0    0  0.14723370186E+02  0.34833153870E+02 -0.48731810744E+02  0.61683998059E+02  0.00000000000E+00 0. -1.
</event>
<event>
 7    1  0.6988825E-006  0.6611362E+02  0.7561462E-02  0.1373831E+00
         -2   -1    0    0    0  501 -0.00000000000E+00  0.00000000000E+00  0.17540145776E+02  0.17540145776E+02  0.00000000000E+00 0.  1.
          2   -1    0    0  501    0  0.00000000000E+00 -0.00000000000E+00 -0.67677717002E+03  0.67677717002E+03  0.00000000000E+00 0. -1.
         23    2    1    2    0    0  0.19116865318E+01  0.17705711240E+02 -0.20523035060E+03  0.22504543665E+03  0.90602455773E+02 0.  0.
          5    1    1    2  502    0 -0.77544377449E+01  0.10814060622E+02 -0.43277163195E+03  0.43299634298E+03  0.41800000000E+01 0. -1.
         -5    1    1    2    0  502  0.58427512132E+01 -0.28519771862E+02 -0.21235041693E+02  0.36275536171E+02  0.41800000000E+01 0.  1.
        -11    1    3    3    0    0  0.30132246982E+02  0.41959278295E+02 -0.87897216529E+02  0.10195319523E+03  0.00000000000E+00 0.  1.
         11    1    3    3    0    0 -0.28220560450E+02 -0.24253567056E+02 -0.11733313407E+03  0.12309224142E+03  0.00000000000E+00 0. -1.
</event>
<event>
 7    1  0.6988825E-006  0.9581647E+02  0.7561462E-02  0.1289348E+00
         -2   -1    0    0    0  501 -0.00000000000E+00  0.00000000000E+00  0.22327488983E+03  0.22327488983E+03  0.00000000000E+00 0.  1.
          2   -1    0    0  501    0  0.00000000000E+00 -0.00000000000E+00 -0.11373399530E+03  0.11373399530E+03  0.00000000000E+00 0. -1.
         23    2    1    2    0    0 -0.28174272073E+02  0.11577963079E+02  0.15658640123E+03  0.18340208150E+03  0.90494108167E+02 0.  0.
          5    1    1    2  502    0  0.12018640033E+02  0.42365876405E+02 -0.77660476977E+02  0.89375260985E+02  0.41800000000E+01 0. -1.
         -5    1    1    2    0  502  0.16155632040E+02 -0.53943839485E+02  0.30614970278E+02  0.64231542641E+02  0.41800000000E+01 0.  1.
        -11    1    3    3    0    0 -0.26603866234E+02  0.47784255454E+02  0.12014926615E+03  0.13201116212E+03  0.00000000000E+00 0.  1.
         11    1    3    3    0    0 -0.15704058396E+01 -0.36206292375E+02  0.36437135079E+02  0.51390919381E+02  0.00000000000E+00 0. -1.
</event>
<event>
 7    1  0.6988825E-006  0.1059799E+03  0.7561462E-02  0.1268201E+00
         -2   -1    0    0    0  501 -0.00000000000E+00  0.00000000000E+00  0.11611665574E+02  0.11611665574E+02  0.00000000000E+00 0.  1.
          2   -1    0    0  501    0  0.00000000000E+00 -0.00000000000E+00 -0.11585723083E+04  0.11585723083E+04  0.00000000000E+00 0. -1.
         23    2    1    2    0    0 -0.54654479104E+01 -0.33044367991E+02 -0.34212563430E+03  0.35499798122E+03  0.88610471416E+02 0.  0.
          5    1    1    2  502    0 -0.28966971909E+02 -0.32914348648E+02 -0.15642404959E+03  0.16250660140E+03  0.41800000000E+01 0.  1.
         -5    1    1    2    0  502  0.34432419819E+02  0.65958716638E+02 -0.64841095885E+03  0.65267939127E+03  0.41800000000E+01 0.  1.
        -11    1    3    3    0    0 -0.45204209671E+02 -0.28395881306E+02 -0.22428445185E+03  0.23054991214E+03  0.00000000000E+00 0. -1.
         11    1    3    3    0    0  0.39738761760E+02 -0.46484866850E+01 -0.11784118245E+03  0.12444806907E+03  0.00000000000E+00 0.  1.
</event>
<event>
 7    1  0.6988825E-006  0.1226335E+03  0.7561462E-02  0.1238815E+00
          1   -1    0    0  501    0  0.00000000000E+00  0.00000000000E+00  0.71862505811E+03  0.71862505811E+03  0.00000000000E+00 0. -1.
         -1   -1    0    0    0  501 -0.00000000000E+00 -0.00000000000E+00 -0.27078381560E+02  0.27078381560E+02  0.00000000000E+00 0.  1.
         23    2    1    2    0    0 -0.37180401111E+02 -0.40087867806E+02  0.14570321161E+03  0.17963601513E+03  0.89723200368E+02 0.  0.
          5    1    1    2  502    0 -0.17815821409E+02  0.78535426919E+02  0.34382970435E+03  0.35315939003E+03  0.41800000000E+01 0. -1.
         -5    1    1    2    0  502  0.54996222520E+02 -0.38447559113E+02  0.20201376058E+03  0.21290803451E+03  0.41800000000E+01 0.  1.
        -11    1    3    3    0    0  0.20477334636E+02  0.83273026551E+01  0.67731825082E+02  0.71247914582E+02  0.00000000000E+00 0. -1.
         11    1    3    3    0    0 -0.57657735747E+02 -0.48415170461E+02  0.77971386532E+02  0.10838810055E+03  0.00000000000E+00 0.  1.
</event>
<event>
 7    1  0.6988825E-006  0.1013169E+03  0.7561462E-02  0.1277551E+00
          3   -1    0    0  501    0  0.00000000000E+00  0.00000000000E+00  0.21586365392E+03  0.21586365392E+03  0.00000000000E+00 0. -1.
         -3   -1    0    0    0  501 -0.00000000000E+00 -0.00000000000E+00 -0.13118160931E+03  0.13118160931E+03  0.00000000000E+00 0.  1.
         23    2    1    2    0    0 -0.64501359049E+02 -0.16240770077E+02 -0.72508028716E+02  0.13543070335E+03  0.93058439969E+02 0.  0.
          5    1    1    2  502    0 -0.16866143661E+02  0.43430431103E+01 -0.13282409262E+02  0.22298511637E+02  0.41800000000E+01 0. -1.
         -5    1    1    2    0  502  0.81367502709E+02  0.11897726966E+02  0.17047248258E+03  0.18931604824E+03  0.41800000000E+01 0. -1.
        -11    1    3    3    0    0  0.55508308557E+01 -0.30410627146E+02 -0.52981256040E+02  0.61340292289E+02  0.00000000000E+00 0.  1.
         11    1    3    3    0    0 -0.70052189905E+02  0.14169857069E+02 -0.19526772676E+02  0.74090411059E+02  0.00000000000E+00 0. -1.
</event>
<event>
 7    1  0.6988825E-006  0.2810524E+03  0.7561462E-02  0.1095116E+00
          2   -1    0    0  501    0  0.00000000000E+00  0.00000000000E+00  0.10511695202E+04  0.10511695202E+04  0.00000000000E+00 0. -1.
         -2   -1    0    0    0  501 -0.00000000000E+00 -0.00000000000E+00 -0.82029573873E+02  0.82029573873E+02  0.00000000000E+00 0.  1.
         23    2    1    2    0    0  0.24477761038E+03 -0.11966153695E+03  0.43112184685E+03  0.51728919487E+03  0.86528043665E+02 0.  0.
          5    1    1    2  502    0 -0.18432770537E+03  0.67380950283E+02  0.47526724712E+03  0.51421136123E+03  0.41800000000E+01 0.  1.
         -5    1    1    2    0  502 -0.60449905003E+02  0.52280586666E+02  0.62750852405E+02  0.10169853802E+03  0.41800000000E+01 0.  1.
        -11    1    3    3    0    0  0.24227938443E+01 -0.25741559433E+02  0.43024088679E+02  0.50195318693E+02  0.00000000000E+00 0.  1.
         11    1    3    3    0    0  0.24235481653E+03 -0.93919977515E+02  0.38809775817E+03  0.46709387618E+03  0.00000000000E+00 0. -1.
</event>
<event>
 7    1  0.6988825E-006  0.9158865E+02  0.7561462E-02  0.1299050E+00
          1   -1    0    0  501    0  0.00000000000E+00  0.00000000000E+00  0.41789966538E+03  0.41789966538E+03  0.00000000000E+00 0. -1.
         -1   -1    0    0    0  501 -0.00000000000E+00 -0.00000000000E+00 -0.58936054714E+02  0.58936054714E+02  0.00000000000E+00 0.  1.
         23    2    1    2    0    0 -0.47850005998E+02 -0.44719801712E+02  0.32666047999E+02  0.12129842620E+03  0.96730314621E+02 0.  0.
          5    1    1    2  502    0  0.18973912359E+02  0.13655242873E+02  0.30840103347E+03  0.30931399072E+03  0.41800000000E+01 0. -1.
         -5    1    1    2    0  502  0.28876093638E+02  0.31064558839E+02  0.17896529197E+02  0.46223303181E+02  0.41800000000E+01 0. -1.
        -11    1    3    3    0    0 -0.14918468745E+02  0.30910668854E+02  0.10137497706E+02  0.35788252520E+02  0.00000000000E+00 0.  1.
         11    1    3    3    0    0 -0.32931537253E+02 -0.75630470566E+02  0.22528550292E+02  0.85510173676E+02  0.00000000000E+00 0. -1.
</event>
<event>
 7    1  0.6988825E-006  0.6807771E+02  0.7561462E-02  0.1366755E+00
          1   -1    0    0  501    0  0.00000000000E+00  0.00000000000E+00  0.28659032624E+03  0.28659032624E+03  0.00000000000E+00 0. -1.
         -1   -1    0    0    0  501 -0.00000000000E+00 -0.00000000000E+00 -0.51072294070E+02  0.51072294070E+02  0.00000000000E+00 0.  1.
         23    2    1    2    0    0 -0.42374940339E+01  0.35649422283E+02  0.43951275335E+02  0.10607199121E+03  0.89614256959E+02 0.  0.
          5    1    1    2  502    0  0.32665947193E+02  0.18020167694E+00  0.18164055782E+03  0.18460189929E+03  0.41800000000E+01 0.  1.
         -5    1    1    2    0  502 -0.28428453159E+02 -0.35829623960E+02  0.99261990186E+01  0.46988729809E+02  0.41800000000E+01 0.  1.
        -11    1    3    3    0    0 -0.87654786516E+01  0.45561466421E+02  0.66466376347E+02  0.81058374171E+02  0.00000000000E+00 0. -1.
         11    1    3    3    0    0  0.45279846177E+01 -0.99120441383E+01 -0.22515101012E+02  0.25013617037E+02  0.00000000000E+00 0.  1.
</event>
<event>
 7    1  0.6988825E-006  0.1015837E+03  0.7561462E-02  0.1277000E+00
         -2   -1    0    0    0  501 -0.00000000000E+00  0.00000000000E+00  0.21766870127E+03  0.21766870127E+03  0.00000000000E+00 0.  1.
          2   -1    0    0  501    0  0.00000000000E+00 -0.00000000000E+00 -0.74735921385E+02  0.74735921385E+02  0.00000000000E+00 0. -1.
         23    2    1    2    0    0 -0.60469622471E+02  0.16211017095E+02  0.91438330042E+02  0.14334341761E+03  0.90923016085E+02 0.  0.
          5    1    1    2  502    0  0.57284766921E+02 -0.66070725469E+02  0.45216799645E+02  0.98533835079E+02  0.41800000000E+01 0.  1.
         -5    1    1    2    0  502  0.31848555503E+01  0.49859708374E+02  0.62776502026E+01  0.50527369970E+02  0.41800000000E+01 0.  1.
        -11    1    3    3    0    0 -0.26655363317E+02 -0.26152820805E+01 -0.14571001843E+02  0.30490362226E+02  0.00000000000E+00 0. -1.
         11    1    3    3    0    0 -0.33814259154E+02  0.18826299175E+02  0.10600933189E+03  0.11285305538E+03  0.00000000000E+00 0.  1.
</event>
<event>
 7    1  0.6988825E-006  0.1262080E+03  0.7561462E-02  0.1233193E+00
          1   -1    0    0  501    0  0.00000000000E+00  0.00000000000E+00  0.11122729326E+04  0.11122729326E+04  0.00000000000E+00 0. -1.
         -1   -1    0    0    0  501 -0.00000000000E+00 -0.00000000000E+00 -0.15137167441E+02  0.15137167441E+02  0.00000000000E+00 0.  1.
         23    2    1    2    0    0  0.49171393158E+02  0.21215778455E+02  0.50608576302E+03  0.52089908441E+03  0.11110860204E+03 0.  0.
          5    1    1    2  502    0  0.37632225900E+02 -0.23086030803E+02  0.13048338157E+03  0.13781340469E+03  0.41800000000E+01 0.  1.
         -5    1    1    2    0  502 -0.86803619058E+02  0.18702523480E+01  0.46056662058E+03  0.46869761096E+03  0.41800000000E+01 0.  1.
        -11    1    3    3    0    0  0.32396776455E+02 -0.43529502390E+02  0.27628416245E+03  0.28156226154E+03  0.00000000000E+00 0. -1.
         11    1    3    3    0    0  0.16774616703E+02  0.64745280845E+02  0.22980160057E+03  0.23933682287E+03  0.00000000000E+00 0.  1.
</event>
<event>
 7    1  0.6988825E-006  0.8969004E+02  0.7561462E-02  0.1303604E+00
          2   -1    0    0  501    0  0.00000000000E+00  0.00000000000E+00  0.68174668344E+03  0.68174668344E+03  0.00000000000E+00 0. -1.
         -2   -1    0    0    0  501 -0.00000000000E+00 -0.00000000000E+00 -0.13557336451E+02  0.13557336451E+02  0.00000000000E+00 0.  1.
         23    2    1    2    0    0 -0.17298207832E+02  0.54724815409E+01  0.14569550455E+03  0.15638902678E+03  0.53862525039E+02 0.  0.
          5    1    1    2  502    0 -0.44736832703E+02 -0.37326034544E+02  0.30274421004E+03  0.30832798473E+03  0.41800000000E+01 0. -1.
         -5    1    1    2    0  502  0.62035040535E+02  0.31853553003E+02  0.21974963239E+03  0.23058700837E+03  0.41800000000E+01 0.  1.
        -11    1    3    3    0    0  0.14105999298E+02 -0.87845704924E+01  0.84729827520E+02  0.86344030289E+02  0.00000000000E+00 0. -1.
         11    1    3    3    0    0 -0.31404207130E+02  0.14257052033E+02  0.60965677031E+02  0.70044996495E+02  0.00000000000E+00 0.  1.
</event>
<event>
 6    1  0.6988825E-006  0.8602120E+02  0.7561462E-02  0.1312783E+00
         -1   -1    0    0    0  501 -0.00000000000E+00  0.00000000000E+00  0.34181882985E+03  0.34181882985E+03  0.00000000000E+00 0.  1.
          1   -1    0    0  501    0  0.00000000000E+00 -0.00000000000E+00 -0.28213317597E+02  0.28213317597E+02  0.00000000000E+00 0. -1.
          5    1    1    2  502    0  0.58805901611E+02  0.14638586156E+02  0.37888513278E+02  0.71592137189E+02  0.41800000000E+01 0. -1.
         -5    1    1    2    0  502 -0.73111416762E+02  0.16138751427E+02  0.15194818776E+03  0.16944457124E+03  0.41800000000E+01 0.  1.
        -11    1    1    2    0    0  0.13075643390E+02 -0.12824929489E+02  0.59513356418E+02  0.62267895891E+02  0.00000000000E+00 0. -1.
         11    1    1    2    0    0  0.12298717612E+01 -0.17952408094E+02  0.64255454789E+02  0.66727543121E+02  0.00000000000E+00 0.  1.
</event>
<event>
 7    1  0.6988825E-006  0.1326500E+03  0.7561462E-02  0.1223576E+00
         -2   -1    0    0    0  501 -0.00000000000E+00  0.00000000000E+00  0.25321005436E+02  0.25321005436E+02  0.00000000000E+00 0.  1.
          2   -1    0    0  501    0  0.00000000000E+00 -0.00000000000E+00 -0.97866826371E+03  0.97866826371E+03  0.00000000000E+00 0. -1.
         23    2    1    2    0    0 -0.56453525133E+02 -0.93747600471E+02 -0.36664480134E+03  0.39420125969E+03  0.94818825621E+02 0.  0.
          5    1    1    2  502    0 -0.61176218743E+01  0.50169672850E+02 -0.64589904886E+02  0.82120335998E+02  0.41800000000E+01 0. -1.
         -5    1    1    2    0  502  0.62571147007E+02  0.43577927621E+02 -0.52211255205E+03  0.52766767346E+03  0.41800000000E+01 0. -1.
        -11    1    3    3    0    0 -0.44023251309E+02 -0.10957971468E+03 -0.25847266951E+03  0.28417227417E+03  0.00000000000E+00 0.  1.
         11    1    3    3    0    0 -0.12430273824E+02  0.15832114209E+02 -0.10817213184E+03  0.11002898552E+03  0.00000000000E+00 0. -1.
</event>
<event>
 7    1  0.6988825E-006  0.8519970E+02  0.7561462E-02  0.1314911E+00
          1   -1    0    0  501    0  0.00000000000E+00  0.00000000000E+00  0.68776066408E+03  0.68776066408E+03  0.00000000000E+00 0.  1.
         -1   -1    0    0    0  501 -0.00000000000E+00 -0.00000000000E+00 -0.27032835077E+02  0.27032835077E+02  0.00000000000E+00 0. -1.
         23    2    1    2    0    0  0.52554133515E+01  0.41825213615E+02  0.11538470647E+03  0.15370233953E+03  0.92378627539E+02 0.  0.
          5    1    1    2  502    0  0.93710571158E+01  0.39977859133E+02  0.10247633175E+03  0.11047586570E+03  0.41800000000E+01 0.  1.
         -5    1    1    2    0  502 -0.14626470467E+02 -0.81803072748E+02  0.44286679078E+03  0.45061529393E+03  0.41800000000E+01 0.  1.
        -11    1    3    3    0    0 -0.65001221018E+01  0.21268717810E+02 -0.11214591971E+02  0.24907368743E+02  0.00000000000E+00 0. -1.
         11    1    3    3    0    0  0.11755535453E+02  0.20556495805E+02  0.12659929845E+03  0.12879497079E+03  0.00000000000E+00 0.  1.
</event>
<event>
 7    1  0.6988825E-006  0.1448023E+03  0.7561462E-02  0.1207009E+00
          1   -1    0    0  501    0  0.00000000000E+00  0.00000000000E+00  0.10249479775E+03  0.10249479775E+03  0.00000000000E+00 0. -1.
         -1   -1    0    0    0  501 -0.00000000000E+00 -0.00000000000E+00 -0.23122887322E+03  0.23122887322E+03  0.00000000000E+00 0.  1.
         23    2    1    2    0    0 -0.34824969330E+02  0.10296366707E+03 -0.60712393156E+02  0.15459490056E+03  0.91647658853E+02 0.  0.
          5    1    1    2  502    0  0.55889284120E+02 -0.11802799658E+02 -0.63282730272E+02  0.85352765098E+02  0.41800000000E+01 0.  1.
         -5    1    1    2    0  502 -0.21064314790E+02 -0.91160867408E+02 -0.47389520411E+01  0.93776005303E+02  0.41800000000E+01 0.  1.
        -11    1    3    3    0    0  0.23985090838E+02  0.51346795876E+01  0.15414301281E+01  0.24576930724E+02  0.00000000000E+00 0. -1.
         11    1    3    3    0    0 -0.58810060168E+02  0.97828987478E+02 -0.62253823284E+02  0.13001796984E+03  0.00000000000E+00 0.  1.
</event>
<event>
 7    1  0.6988825E-006  0.1306107E+03  0.7561462E-02  0.1226552E+00
         -2   -1    0    0    0  501 -0.00000000000E+00  0.00000000000E+00  0.27920633787E+03  0.27920633787E+03  0.00000000000E+00 0.  1.
          2   -1    0    0  501    0  0.00000000000E+00 -0.00000000000E+00 -0.74906084155E+02  0.74906084155E+02  0.00000000000E+00 0. -1.
         23    2    1    2    0    0 -0.56739397452E+02  0.60216465675E+02  0.14973659674E+03  0.19450313883E+03  0.92547504825E+02 0.  0.
          5    1    1    2  502    0  0.89775652139E+02 -0.63674931540E+02  0.20855724923E+02  0.11210083981E+03  0.41800000000E+01 0.  1.
         -5    1    1    2    0  502 -0.33036254687E+02  0.34584658655E+01  0.33707932055E+02  0.47508443390E+02  0.41800000000E+01 0.  1.
        -11    1    3    3    0    0 -0.78015198684E+02  0.37789868289E+02  0.78904685097E+02  0.11721942971E+03  0.00000000000E+00 0. -1.
         11    1    3    3    0    0  0.21275801232E+02  0.22426597386E+02  0.70831911640E+02  0.77283709118E+02  0.00000000000E+00 0.  1.
</event>
<event>
 7    1  0.6988825E-006  0.1022721E+03  0.7561462E-02  0.1275589E+00
          1   -1    0    0  501    0  0.00000000000E+00  0.00000000000E+00  0.10903686669E+03  0.10903686669E+03  0.00000000000E+00 0. -1.
         -1   -1    0    0    0  501 -0.00000000000E+00 -0.00000000000E+00 -0.13558248793E+03  0.13558248793E+03  0.00000000000E+00 0.  1.
         23    2    1    2    0    0  0.52066872454E+02  0.17103351231E+02 -0.23268602590E+02  0.10801380096E+03  0.90122524936E+02 0.  0.
          5    1    1    2  502    0 -0.73859174785E+02 -0.34792296653E+01 -0.45558060268E+02  0.86949939588E+02  0.41800000000E+01 0.  1.
         -5    1    1    2    0  502  0.21792302332E+02 -0.13624121566E+02  0.42281041611E+02  0.49655614074E+02  0.41800000000E+01 0.  1.
        -11    1    3    3    0    0  0.73241165221E+02 -0.55341082538E+01 -0.23166546724E+02  0.77016774304E+02  0.00000000000E+00 0. -1.
         11    1    3    3    0    0 -0.21174292767E+02  0.22637459485E+02 -0.10205586611E+00  0.30997026656E+02  0.00000000000E+00 0.  1.
</event>
<event>
 7    1  0.6988825E-006  0.8354765E+02  0.7561462E-02  0.1319275E+00
          1   -1    0    0  501    0  0.00000000000E+00  0.00000000000E+00  0.24208941440E+03  0.24208941440E+03  0.00000000000E+00 0. -1.
         -1   -1    0    0    0  501 -0.00000000000E+00 -0.00000000000E+00 -0.68985357688E+02  0.68985357688E+02  0.00000000000E+00 0.  1.
         23    2    1    2    0    0  0.56446125018E+02 -0.27304317077E+02  0.37332040622E+02  0.11603128110E+03  0.90210233207E+02 0.  0.
          5    1    1    2  502    0 -0.68174633325E+01  0.61591307265E+01  0.14037810406E+03  0.14074053147E+03  0.41800000000E+01 0.  1.
         -5    1    1    2    0  502 -0.49628661686E+02  0.21145186351E+02 -0.46060879740E+01  0.54302959523E+02  0.41800000000E+01 0.  1.
        -11    1    3    3    0    0  0.74348968107E+02 -0.53151609705E+01  0.44463166955E+02  0.86792817735E+02  0.00000000000E+00 0. -1.
         11    1    3    3    0    0 -0.17902843089E+02 -0.21989156106E+02 -0.71311263330E+01  0.29238463361E+02  0.00000000000E+00 0.  1.
</event>
<event>
 6    1  0.6988825E-006  0.1285379E+03  0.7561462E-02  0.1229642E+00
         -2   -1    0    0    0  501 -0.00000000000E+00  0.00000000000E+00  0.51969605646E+03  0.51969605646E+03  0.00000000000E+00 0.  1.
          2   -1    0    0  501    0  0.00000000000E+00 -0.00000000000E+00 -0.66738225716E+02  0.66738225716E+02  0.00000000000E+00 0. -1.
          5    1    1    2  502    0  0.28706871892E+02  0.39716717780E+01 -0.34148379404E+02  0.44982695411E+02  0.41800000000E+01 0.  1.
         -5    1    1    2    0  502  0.56566106489E+02  0.43293122897E+02  0.10914236391E+03  0.13039764911E+03  0.41800000000E+01 0.  1.
        -11    1    1    2    0    0 -0.11388691018E+02 -0.76234176456E+02  0.13497340592E+03  0.15543221111E+03  0.00000000000E+00 0. -1.
         11    1    1    2    0    0 -0.73884287363E+02  0.28969381781E+02  0.24299044031E+03  0.25562172655E+03  0.00000000000E+00 0.  1.
</event>
<event>
 7    1  0.6988825E-006  0.9719507E+02  0.7561462E-02  0.1286307E+00
          2   -1    0    0  501    0  0.00000000000E+00  0.00000000000E+00  0.13609527873E+04  0.13609527873E+04  0.00000000000E+00 0.  1.
         -2   -1    0    0    0  501 -0.00000000000E+00 -0.00000000000E+00 -0.11915564664E+02  0.11915564664E+02  0.00000000000E+00 0. -1.
         23    2    1    2    0    0  0.14029337066E+02  0.57263235408E+02  0.44471477672E+03  0.45803362484E+03  0.92453601471E+02 0.  0.
          5    1    1    2  502    0  0.24355894013E+02 -0.14245701078E+02  0.74162957507E+03  0.74217790899E+03  0.41800000000E+01 0. -1.
         -5    1    1    2    0  502 -0.38385231078E+02 -0.43017534330E+02  0.16269287090E+03  0.17265681818E+03  0.41800000000E+01 0. -1.
        -11    1    3    3    0    0  0.52833769204E+02  0.33458635198E+02  0.29475533402E+03  0.30131643562E+03  0.00000000000E+00 0.  1.
         11    1    3    3    0    0 -0.38804432139E+02  0.23804600210E+02  0.14995944270E+03  0.15671718923E+03  0.00000000000E+00 0. -1.
</event>
<event>
 7    1  0.6988825E-006  0.9675323E+02  0.7561462E-02  0.1287275E+00
         -2   -1    0    0    0  501 -0.00000000000E+00  0.00000000000E+00  0.35915676339E+02  0.35915676339E+02  0.00000000000E+00 0.  1.
          2   -1    0    0  501    0  0.00000000000E+00 -0.00000000000E+00 -0.39151021854E+03  0.39151021854E+03  0.00000000000E+00 0. -1.
         23    2    1    2    0    0  0.22523696124E+02 -0.34676232982E+02 -0.18474470177E+03  0.21168687595E+03  0.94715207840E+02 0.  0.
          5    1    1    2  502    0 -0.20972342396E+02  0.66376113696E+02 -0.38674083525E+02  0.79741988635E+02  0.41800000000E+01 0. -1.
         -5    1    1    2    0  502 -0.15513537280E+01 -0.31699880714E+02 -0.13217575690E+03  0.13599703029E+03  0.41800000000E+01 0. -1.
        -11    1    3    3    0    0  0.37596137135E+02 -0.54897988228E+02 -0.16979837251E+03  0.18236980547E+03  0.00000000000E+00 0.  1.
         11    1    3    3    0    0 -0.15072441012E+02  0.20221755246E+02 -0.14946329259E+02  0.29317070481E+02  0.00000000000E+00 0. -1.
</event>
<event>
 7    1  0.6988825E-006  0.1261917E+03  0.7561462E-02  0.1233219E+00
         -4   -1    0    0    0  501 -0.00000000000E+00  0.00000000000E+00  0.17751233967E+03  0.17751233967E+03  0.00000000000E+00 0.  1.
          4   -1    0    0  501    0  0.00000000000E+00 -0.00000000000E+00 -0.10162984888E+03  0.10162984888E+03  0.00000000000E+00 0. -1.
         23    2    1    2    0    0  0.67577429146E+02  0.21270669196E+02  0.70776320449E+02  0.13529364260E+03  0.90972149000E+02 0.  0.
          5    1    1    2  502    0  0.24750034494E+02 -0.42102568427E+02  0.18608500534E+01  0.49052274550E+02  0.41800000000E+01 0. -1.
         -5    1    1    2    0  502 -0.92327463640E+02  0.20831899231E+02  0.32453202807E+01  0.94796271401E+02  0.41800000000E+01 0. -1.
        -11    1    3    3    0    0  0.10127633310E+02 -0.29976030750E+02  0.43137660460E+02  0.53497561869E+02  0.00000000000E+00 0.  1.
         11    1    3    3    0    0  0.57449795837E+02  0.51246699946E+02  0.27638659990E+02  0.81796080732E+02  0.00000000000E+00 0. -1.
</event>
<event>
 7    1  0.6988825E-006  0.8943062E+02  0.7561462E-02  0.1304236E+00
         -1   -1    0    0    0  501 -0.00000000000E+00  0.00000000000E+00  0.31294505813E+02  0.31294505813E+02  0.00000000000E+00 0.  1.
          1   -1    0    0  501    0  0.00000000000E+00 -0.00000000000E+00 -0.21711461385E+04  0.21711461385E+04  0.00000000000E+00 0. -1.
         23    2    1    2    0    0 -0.44565050313E+02 -0.21786863891E+02 -0.62496201598E+02  0.12050785656E+03  0.90308676945E+02 0.  0.
          5    1    1    2  502    0  0.60656764987E+01  0.58785444360E+02 -0.16726270944E+04  0.16736760111E+04  0.41800000000E+01 0. -1.
         -5    1    1    2    0  502  0.38499373814E+02 -0.36998580469E+02 -0.40472833672E+03  0.40825677666E+03  0.41800000000E+01 0.  1.
        -11    1    3    3    0    0 -0.38106595921E+02 -0.34751329091E+02  0.46828722575E+01  0.51785102287E+02  0.00000000000E+00 0.  1.
         11    1    3    3    0    0 -0.64584543913E+01  0.12964465201E+02 -0.67179073855E+02  0.68722754275E+02  0.00000000000E+00 0. -1.
</event>
<event>
 7    1  0.6988825E-006  0.9444306E+02  0.7561462E-02  0.1292435E+00
         -2   -1    0    0    0  501 -0.00000000000E+00  0.00000000000E+00  0.35535696618E+02  0.35535696618E+02  0.00000000000E+00 0.  1.
          2   -1    0    0  501    0  0.00000000000E+00 -0.00000000000E+00 -0.45053893582E+03  0.45053893582E+03  0.00000000000E+00 0. -1.
         23    2    1    2    0    0  0.32589589209E+02 -0.26926114049E+02 -0.89112457064E+02  0.13445085832E+03  0.91372350069E+02 0.  0.
          5    1    1    2  502    0 -0.56486923296E+02  0.34069859277E+02 -0.31848491255E+03  0.32527163992E+03  0.41800000000E+01 0. -1.
         -5    1    1    2    0  502  0.23897334086E+02 -0.71437452282E+01 -0.74058695885E+01  0.26352134196E+02  0.41800000000E+01 0. -1.
        -11    1    3    3    0    0  0.28511774184E+02  0.29440501747E+02 -0.21338151391E+02  0.46205855852E+02  0.00000000000E+00 0.  1.
         11    1    3    3    0    0  0.40778150255E+01 -0.56366615795E+02 -0.67774305673E+02  0.88245002471E+02  0.00000000000E+00 0. -1.
</event>
<event>
 7    1  0.6988825E-006  0.1003419E+03  0.7561462E-02  0.1279579E+00
         -1   -1    0    0    0  501 -0.00000000000E+00  0.00000000000E+00  0.41334285028E+02  0.41334285028E+02  0.00000000000E+00 0.  1.
          1   -1    0    0  501    0  0.00000000000E+00 -0.00000000000E+00 -0.30876043312E+03  0.30876043312E+03  0.00000000000E+00 0. -1.
         23    2    1    2    0    0 -0.26819106419E+01 -0.25268491245E+02 -0.82356397131E+02  0.12527812190E+03  0.90919427984E+02 0.  0.
          5    1    1    2  502    0 -0.42799161079E+02 -0.31919964134E+02 -0.65265208164E+02  0.84425541728E+02  0.41800000000E+01 0.  1.
         -5    1    1    2    0  502  0.45481071721E+02  0.57188455379E+02 -0.11980454280E+03  0.14039105452E+03  0.41800000000E+01 0.  1.
        -11    1    3    3    0    0 -0.13059031436E+01  0.24309027288E+02  0.49739178631E+01  0.24847012891E+02  0.00000000000E+00 0.  1.
         11    1    3    3    0    0 -0.13760074983E+01 -0.49577518533E+02 -0.87330314994E+02  0.10043110901E+03  0.00000000000E+00 0. -1.
</event>
<event>
 7    1  0.7903067E-006  0.1829203E+03  0.7561462E-02  0.1165006E+00
          1   -1    0    0  501    0  0.00000000000E+00  0.00000000000E+00  0.23609284373E+02  0.23609284373E+02  0.00000000000E+00 0. -1.
         -1   -1    0    0    0  501 -0.00000000000E+00 -0.00000000000E+00 -0.14219092400E+04  0.14219092400E+04  0.00000000000E+00 0.  1.
         23    2    1    2    0    0  0.67292218805E+02 -0.13147900503E+03 -0.66299274181E+03  0.68516386946E+03  0.89862010056E+02 0.  0.
          5    1    1    2  502    0 -0.10260792512E+03  0.76902452904E+02 -0.47510621807E+03  0.49212372876E+03  0.41800000000E+01 0.  1.
         -5    1    1    2    0  502  0.35315706316E+02  0.54576552124E+02 -0.26020099571E+03  0.26823092612E+03  0.41800000000E+01 0.  1.
        -11    1    3    3    0    0  0.89971990411E+01 -0.10986277723E+03 -0.44797489838E+03  0.46133750009E+03  0.00000000000E+00 0.  1.
         11    1    3    3    0    0  0.58295019764E+02 -0.21616227797E+02 -0.21501784343E+03  0.22382636937E+03  0.00000000000E+00 0. -1.
</event>
<event>
 7    1  0.6988825E-006  0.1047254E+03  0.7561462E-02  0.1270662E+00
          2   -1    0    0  501    0  0.00000000000E+00  0.00000000000E+00  0.16296475030E+04  0.16296475030E+04  0.00000000000E+00 0. -1.
         -2   -1    0    0    0  501 -0.00000000000E+00 -0.00000000000E+00 -0.22371226674E+02  0.22371226674E+02  0.00000000000E+00 0.  1.
         23    2    1    2    0    0 -0.11302848661E+02  0.16901580724E+02  0.93476928118E+02  0.13292400761E+03  0.92289966350E+02 0.  0.
          5    1    1    2  502    0  0.42527470981E+02 -0.52950550361E+02  0.56400706824E+03  0.56809663966E+03  0.41800000000E+01 0.  1.
         -5    1    1    2    0  502 -0.31224622319E+02  0.36048969636E+02  0.94979228000E+03  0.95099808243E+03  0.41800000000E+01 0.  1.
        -11    1    3    3    0    0 -0.74193638953E+01 -0.37887386869E+02  0.48104428872E+02  0.61680929966E+02  0.00000000000E+00 0. -1.
         11    1    3    3    0    0 -0.38834847661E+01  0.54788967593E+02  0.45372499246E+02  0.71243077640E+02  0.00000000000E+00 0.  1.
</event>
<event>
 7    1  0.6988825E-006  0.1340792E+03  0.7561462E-02  0.1221525E+00
          1   -1    0    0  501    0  0.00000000000E+00  0.00000000000E+00  0.13490385587E+04  0.13490385587E+04  0.00000000000E+00 0. -1.
         -1   -1    0    0    0  501 -0.00000000000E+00 -0.00000000000E+00 -0.17005349724E+02  0.17005349724E+02  0.00000000000E+00 0.  1.
         23    2    1    2    0    0  0.83310935500E+02  0.19088069697E+02  0.31508826765E+03  0.33787539020E+03  0.87029285393E+02 0.  0.
          5    1    1    2  502    0 -0.78641300009E+02  0.38947067307E+02  0.73588067141E+03  0.74110671504E+03  0.41800000000E+01 0. -1.
         -5    1    1    2    0  502 -0.46696354909E+01 -0.58035137004E+02  0.28106426993E+03  0.28706180319E+03  0.41800000000E+01 0. -1.
        -11    1    3    3    0    0  0.80018670492E+02 -0.20179400489E+02  0.21778119687E+03  0.23289234754E+03  0.00000000000E+00 0.  1.
         11    1    3    3    0    0  0.32922650079E+01  0.39267470186E+02  0.97307070778E+02  0.10498304266E+03  0.00000000000E+00 0. -1.
</event>
<event>
 7    1  0.6988825E-006  0.9805582E+02  0.7561462E-02  0.1284438E+00
         -1   -1    0    0    0  501 -0.00000000000E+00  0.00000000000E+00  0.37595304681E+02  0.37595304681E+02  0.00000000000E+00 0.  1.
          1   -1    0    0  501    0  0.00000000000E+00 -0.00000000000E+00 -0.52790829286E+03  0.52790829286E+03  0.00000000000E+00 0. -1.
         23    2    1    2    0    0 -0.39048724551E+02  0.67500795687E+02 -0.13038755504E+03  0.17656349582E+03  0.89958841906E+02 0.  0.
          5    1    1    2  502    0  0.61146392675E+02 -0.27723569831E+02 -0.76558288419E+02  0.10191232304E+03  0.41800000000E+01 0. -1.
         -5    1    1    2    0  502 -0.22097668125E+02 -0.39777225856E+02 -0.28336714471E+03  0.28702777869E+03  0.41800000000E+01 0. -1.
        -11    1    3    3    0    0 -0.28012289805E+02  0.20092297447E+02 -0.12249285145E+03  0.12725127682E+03  0.00000000000E+00 0. -1.
         11    1    3    3    0    0 -0.11036434745E+02  0.47408498241E+02 -0.78947035954E+01  0.49312218995E+02  0.00000000000E+00 0.  1.
</event>
<event>
 7    1  0.6988825E-006  0.9259742E+02  0.7561462E-02  0.1296681E+00
         -1   -1    0    0    0  501 -0.00000000000E+00  0.00000000000E+00  0.20406470099E+02  0.20406470099E+02  0.00000000000E+00 0.  1.
          1   -1    0    0  501    0  0.00000000000E+00 -0.00000000000E+00 -0.70679572830E+03  0.70679572830E+03  0.00000000000E+00 0. -1.
         23    2    1    2    0    0  0.79458912943E+01 -0.26322424779E+02 -0.13573437629E+03  0.16184924314E+03  0.83757682413E+02 0.  0.
          5    1    1    2  502    0 -0.90540141676E+01  0.61539265049E+02 -0.14103471885E+03  0.15419896445E+03  0.41800000000E+01 0.  1.
         -5    1    1    2    0  502  0.11081228733E+01 -0.35216840270E+02 -0.40962016306E+03  0.41115399081E+03  0.41800000000E+01 0.  1.
        -11    1    3    3    0    0 -0.36466565517E+02 -0.22375331910E+02 -0.77256399780E+02  0.88312044398E+02  0.00000000000E+00 0. -1.
         11    1    3    3    0    0  0.44412456811E+02 -0.39470928692E+01 -0.58477976510E+02  0.73537198742E+02  0.00000000000E+00 0.  1.
</event>
<event>
 7    1  0.6988825E-006  0.1005776E+03  0.7561462E-02  0.1279086E+00
         -1   -1    0    0    0  501 -0.00000000000E+00  0.00000000000E+00  0.12830419563E+02  0.12830419563E+02  0.00000000000E+00 0.  1.
          1   -1    0    0  501    0  0.00000000000E+00 -0.00000000000E+00 -0.10121522320E+04  0.10121522320E+04  0.00000000000E+00 0. -1.
         23    2    1    2    0    0 -0.58880093823E+01  0.50450092399E+01 -0.24016225202E+03  0.25753444840E+03  0.92660477252E+02 0.  0.
          5    1    1    2  502    0 -0.10507843156E+02 -0.56813730801E+02 -0.40708575376E+03  0.41118669493E+03  0.41800000000E+01 0. -1.
         -5    1    1    2    0  502  0.16395852538E+02  0.51768721561E+02 -0.35207380663E+03  0.35626150820E+03  0.41800000000E+01 0.  1.
        -11    1    3    3    0    0  0.18284183169E+02 -0.36428522746E+02 -0.14939084509E+03  0.15485145534E+03  0.00000000000E+00 0. -1.
         11    1    3    3    0    0 -0.24172192551E+02  0.41473531986E+02 -0.90771406933E+02  0.10268299306E+03  0.00000000000E+00 0.  1.
</event>
<event>
 7    1  0.6988825E-006  0.7900575E+02  0.7561462E-02  0.1331897E+00
          2   -1    0    0  501    0  0.00000000000E+00  0.00000000000E+00  0.97702987542E+03  0.97702987542E+03  0.00000000000E+00 0. -1.
         -2   -1    0    0    0  501 -0.00000000000E+00 -0.00000000000E+00 -0.16951012923E+02  0.16951012923E+02  0.00000000000E+00 0.  1.
         23    2    1    2    0    0  0.45980606703E+02 -0.17822665583E+02  0.22663778770E+03  0.24831611316E+03  0.88681123370E+02 0.  0.
          5    1    1    2  502    0 -0.33350086620E+02 -0.18811860534E+01  0.71443248892E+03  0.71522515390E+03  0.41800000000E+01 0.  1.
         -5    1    1    2    0  502 -0.12630520083E+02  0.19703851637E+02  0.19008585877E+02  0.30439621285E+02  0.41800000000E+01 0.  1.
        -11    1    3    3    0    0 -0.28199601977E+01  0.31243509892E+02  0.56156431434E+02  0.64324597762E+02  0.00000000000E+00 0.  1.
         11    1    3    3    0    0  0.48800566901E+02 -0.49066175475E+02  0.17048135627E+03  0.18399151540E+03  0.00000000000E+00 0. -1.
</event>
<event>
 7    1  0.6988825E-006  0.1185686E+03  0.7561462E-02  0.1245477E+00
         -3   -1    0    0    0  501 -0.00000000000E+00  0.00000000000E+00  0.32988834845E+02  0.32988834845E+02  0.00000000000E+00 0.  1.
          3   -1    0    0  501    0  0.00000000000E+00 -0.00000000000E+00 -0.10228248975E+04  0.10228248975E+04  0.00000000000E+00 0. -1.
         23    2    1    2    0    0  0.15757873023E+02  0.98725069800E+02 -0.15732859964E+03  0.20804498037E+03  0.92387637829E+02 0.  0.
          5    1    1    2  502    0  0.19501239266E+02 -0.11261097737E+02 -0.21918113794E+02  0.31701526264E+02  0.41800000000E+01 0.  1.
         -5    1    1    2    0  502 -0.35259112289E+02 -0.87463972063E+02 -0.81058934920E+03  0.81606722569E+03  0.41800000000E+01 0.  1.
        -11    1    3    3    0    0 -0.14494705415E+02  0.85670811397E+02 -0.60800828543E+02  0.10604869241E+03  0.00000000000E+00 0.  1.
         11    1    3    3    0    0  0.30252578437E+02  0.13054258402E+02 -0.96527771099E+02  0.10199628796E+03  0.00000000000E+00 0. -1.
</event>
<event>
 7    1  0.6988825E-006  0.1418660E+03  0.7561462E-02  0.1210840E+00
          2   -1    0    0  501    0  0.00000000000E+00  0.00000000000E+00  0.25817480745E+03  0.25817480745E+03  0.00000000000E+00 0. -1.
         -2   -1    0    0    0  501 -0.00000000000E+00 -0.00000000000E+00 -0.94562776219E+02  0.94562776219E+02  0.00000000000E+00 0.  1.
         23    2    1    2    0    0  0.87226416383E+02  0.51421624488E+02  0.68341417487E+01  0.13559851522E+03  0.89931199572E+02 0.  0.
          5    1    1    2  502    0 -0.32013762109E+02 -0.80052240950E+02  0.75262547966E+02  0.11452146424E+03  0.41800000000E+01 0. -1.
         -5    1    1    2    0  502 -0.55212654274E+02  0.28630616461E+02  0.81515341522E+02  0.10261760421E+03  0.41800000000E+01 0.  1.
        -11    1    3    3    0    0 -0.55421005968E+00 -0.21166801952E+02 -0.24485244742E+01  0.21315157184E+02  0.00000000000E+00 0. -1.
         11    1    3    3    0    0  0.87780626443E+02  0.72588426441E+02  0.92826662229E+01  0.11428335804E+03  0.00000000000E+00 0.  1.
</event>
<event>
 7    1  0.6988825E-006  0.1011921E+03  0.7561462E-02  0.1277809E+00
         -3   -1    0    0    0  501 -0.00000000000E+00  0.00000000000E+00  0.25644582353E+03  0.25644582353E+03  0.00000000000E+00 0.  1.
          3   -1    0    0  501    0  0.00000000000E+00 -0.00000000000E+00 -0.59506007785E+02  0.59506007785E+02  0.00000000000E+00 0. -1.
         23    2    1    2    0    0 -0.29815767250E+02 -0.17522115447E+02  0.14512194315E+03  0.17620918257E+03  0.93772560656E+02 0.  0.
          5    1    1    2  502    0 -0.46904104495E+02 -0.34330991479E+01  0.33865123408E+02  0.58104218192E+02  0.41800000000E+01 0.  1.
         -5    1    1    2    0  502  0.76719871744E+02  0.20955214595E+02  0.17952749182E+02  0.81638430548E+02  0.41800000000E+01 0.  1.
        -11    1    3    3    0    0  0.86782263083E+01  0.19982446224E+02  0.10970003612E+03  0.11184233409E+03  0.00000000000E+00 0.  1.
         11    1    3    3    0    0 -0.38493993558E+02 -0.37504561670E+02  0.35421907029E+02  0.64366848484E+02  0.00000000000E+00 0. -1.
</event>
<event>
 7    1  0.6988825E-006  0.9993536E+02  0.7561462E-02  0.1280432E+00
         -1   -1    0    0    0  501 -0.00000000000E+00  0.00000000000E+00  0.28212290022E+02  0.28212290022E+02  0.00000000000E+00 0.  1.
          1   -1    0    0  501    0  0.00000000000E+00 -0.00000000000E+00 -0.41782966223E+03  0.41782966223E+03  0.00000000000E+00 0. -1.
         23    2    1    2    0    0 -0.74504766664E+01 -0.44417078535E+01 -0.87339884624E+02  0.11878945260E+03  0.80046487942E+02 0.  0.
          5    1    1    2  502    0  0.60786202948E+02 -0.19839269696E+02 -0.19029144862E+03  0.20079060463E+03  0.41800000000E+01 0. -1.
         -5    1    1    2    0  502 -0.53335726281E+02  0.24280977549E+02 -0.11198603897E+03  0.12646189502E+03  0.41800000000E+01 0. -1.
        -11    1    3    3    0    0  0.85773126410E+01  0.34172461931E+02 -0.57458463047E+02  0.67400314704E+02  0.00000000000E+00 0. -1.
         11    1    3    3    0    0 -0.16027789307E+02 -0.38614169785E+02 -0.29881421577E+02  0.51389137896E+02  0.00000000000E+00 0.  1.
</event>
<event>
 7    1  0.6988825E-006  0.1709576E+03  0.7561462E-02  0.1176853E+00
          1   -1    0    0  501    0  0.00000000000E+00  0.00000000000E+00  0.13277925320E+04  0.13277925320E+04  0.00000000000E+00 0. -1.
         -1   -1    0    0    0  501 -0.00000000000E+00 -0.00000000000E+00 -0.22707538752E+02  0.22707538752E+02  0.00000000000E+00 0.  1.
         23    2    1    2    0    0 -0.11346823736E+03 -0.67465386473E+02  0.49497230009E+03  0.52022477508E+03  0.90606950558E+02 0.  0.
          5    1    1    2  502    0  0.63121015243E+02 -0.31560495831E+02  0.31418546111E+03  0.32204084188E+03  0.41800000000E+01 0. -1.
         -5    1    1    2    0  502  0.50347222117E+02  0.99025882304E+02  0.49592723206E+03  0.50823445381E+03  0.41800000000E+01 0. -1.
        -11    1    3    3    0    0 -0.15573032955E+02  0.22321176074E+02  0.78875389706E+02  0.83439087711E+02  0.00000000000E+00 0. -1.
         11    1    3    3    0    0 -0.97895204405E+02 -0.89786562547E+02  0.41609691039E+03  0.43678568737E+03  0.00000000000E+00 0.  1.
</event>
<event>
 7    1  0.6988825E-006  0.1298203E+03  0.7561462E-02  0.1227723E+00
          2   -1    0    0  501    0  0.00000000000E+00  0.00000000000E+00  0.45307130630E+03  0.45307130630E+03  0.00000000000E+00 0. -1.
         -2   -1    0    0    0  501 -0.00000000000E+00 -0.00000000000E+00 -0.54718291220E+02  0.54718291220E+02  0.00000000000E+00 0.  1.
         23    2    1    2    0    0 -0.51706549695E+02  0.90135586892E+02  0.10837843580E+03  0.17533064112E+03  0.90537048018E+02 0.  0.
          5    1    1    2  502    0  0.40678492590E+02  0.38457555205E+01  0.19138265625E+03  0.19574044832E+03  0.41800000000E+01 0.  1.
         -5    1    1    2    0  502  0.11028057105E+02 -0.93981342413E+02  0.98591923028E+02  0.13671850808E+03  0.41800000000E+01 0.  1.
        -11    1    3    3    0    0  0.15876324195E+02  0.27231515104E+02  0.67221647967E+02  0.74245289683E+02  0.00000000000E+00 0. -1.
         11    1    3    3    0    0 -0.67582873890E+02  0.62904071788E+02  0.41156787837E+02  0.10108535144E+03  0.00000000000E+00 0.  1.
</event>
<event>
 7    1  0.6988825E-006  0.1631654E+03  0.7561462E-02  0.1185169E+00
         -2   -1    0    0    0  501 -0.00000000000E+00  0.00000000000E+00  0.15129904970E+03  0.15129904970E+03  0.00000000000E+00 0. -1.
          2   -1    0    0  501    0  0.00000000000E+00 -0.00000000000E+00 -0.21072115164E+03  0.21072115164E+03  0.00000000000E+00 0.  1.
         23    2    1    2    0    0  0.12427521002E+03  0.44189735375E+02  0.22174425948E+02  0.16276572051E+03  0.92757285793E+02 0.  0.
          5    1    1    2  502    0 -0.12985258767E+03 -0.19615183675E+01 -0.86621234322E+02  0.15616098333E+03  0.41800000000E+01 0. -1.
         -5    1    1    2    0  502  0.55773776489E+01 -0.42228217007E+02  0.50247064317E+01  0.43093497512E+02  0.41800000000E+01 0. -1.
        -11    1    3    3    0    0  0.10065486808E+03 -0.31361483440E+01 -0.94394217755E+01  0.10114514609E+03  0.00000000000E+00 0.  1.
         11    1    3    3    0    0  0.23620341940E+02  0.47325883719E+02  0.31613847724E+02  0.61620574413E+02  0.00000000000E+00 0. -1.
</event>
<event>
 7    1  0.6988825E-006  0.1121222E+03  0.7561462E-02  0.1256690E+00
          2   -1    0    0  501    0  0.00000000000E+00  0.00000000000E+00  0.70206091054E+03  0.70206091054E+03  0.00000000000E+00 0. -1.
         -2   -1    0    0    0  501 -0.00000000000E+00 -0.00000000000E+00 -0.19863971256E+02  0.19863971256E+02  0.00000000000E+00 0.  1.
         23    2    1    2    0    0 -0.30445384966E+02  0.27733769677E+02  0.22356478800E+03  0.24475992108E+03  0.90720014790E+02 0.  0.
          5    1    1    2  502    0  0.53236954177E+02  0.32039747928E+02  0.15919626059E+03  0.17094338397E+03  0.41800000000E+01 0.  1.
         -5    1    1    2    0  502 -0.22791569211E+02 -0.59773517605E+02  0.29943589069E+03  0.30622157675E+03  0.41800000000E+01 0.  1.
        -11    1    3    3    0    0 -0.32448213240E+01  0.57469806941E+02  0.10819407421E+03  0.12255311204E+03  0.00000000000E+00 0.  1.
         11    1    3    3    0    0 -0.27200563642E+02 -0.29736037264E+02  0.11537071379E+03  0.12220680904E+03  0.00000000000E+00 0. -1.
</event>
<event>
 7    1  0.6988825E-006  0.1050054E+03  0.7561462E-02  0.1270109E+00
          2   -1    0    0  501    0  0.00000000000E+00  0.00000000000E+00  0.12790022587E+03  0.12790022587E+03  0.00000000000E+00 0. -1.
         -2   -1    0    0    0  501 -0.00000000000E+00 -0.00000000000E+00 -0.13607456071E+03  0.13607456071E+03  0.00000000000E+00 0.  1.
         23    2    1    2    0    0  0.70295554629E+02  0.18489819733E+02 -0.20748746938E+02  0.11875679531E+03  0.91593272128E+02 0.  0.
          5    1    1    2  502    0 -0.96628901245E+02 -0.31357802233E+02 -0.17324841763E+02  0.10314106291E+03  0.41800000000E+01 0.  1.
         -5    1    1    2    0  502  0.26333346616E+02  0.12867982500E+02  0.29899253863E+02  0.42076928348E+02  0.41800000000E+01 0.  1.
        -11    1    3    3    0    0  0.30890088771E+02  0.23762959695E+02  0.33573861530E+02  0.51440062362E+02  0.00000000000E+00 0.  1.
         11    1    3    3    0    0  0.39405465858E+02 -0.52731399618E+01 -0.54322608468E+02  0.67316732951E+02  0.00000000000E+00 0. -1.
</event>
<event>
 7    1  0.6988825E-006  0.1459361E+03  0.7561462E-02  0.1205557E+00
         -1   -1    0    0    0  501 -0.00000000000E+00  0.00000000000E+00  0.41079366740E+02  0.41079366740E+02  0.00000000000E+00 0.  1.
          1   -1    0    0  501    0  0.00000000000E+00 -0.00000000000E+00 -0.86263506226E+03  0.86263506226E+03  0.00000000000E+00 0. -1.
         23    2    1    2    0    0 -0.58979261672E+02  0.13152753219E+03 -0.25387467149E+03  0.30480955243E+03  0.87626876006E+02 0.  0.
          5    1    1    2  502    0  0.55959088249E+02 -0.91434543785E+02 -0.18316642411E+03  0.21227130441E+03  0.41800000000E+01 0. -1.
         -5    1    1    2    0  502  0.30201734226E+01 -0.40092988409E+02 -0.38451459992E+03  0.38663357216E+03  0.41800000000E+01 0. -1.
        -11    1    3    3    0    0 -0.42983898107E+02  0.93047454554E+02 -0.92242100388E+02  0.13789144056E+03  0.00000000000E+00 0. -1.
         11    1    3    3    0    0 -0.15995363564E+02  0.38480077639E+02 -0.16163257110E+03  0.16691811187E+03  0.00000000000E+00 0.  1.
</event>
<event>
 7    1  0.6988825E-006  0.1208854E+03  0.7561462E-02  0.1241643E+00
         -3   -1    0    0    0  501 -0.00000000000E+00  0.00000000000E+00  0.84766084642E+02  0.84766084642E+02  0.00000000000E+00 0.  1.
          3   -1    0    0  501    0  0.00000000000E+00 -0.00000000000E+00 -0.19104028315E+03  0.19104028315E+03  0.00000000000E+00 0. -1.
         23    2    1    2    0    0  0.18941200754E+02 -0.56757559757E+02 -0.16309859860E+02  0.11051680585E+03  0.91475478522E+02 0.  0.
          5    1    1    2  502    0  0.35103422770E+01 -0.37074668830E+02 -0.45578895934E+02  0.59006454955E+02  0.41800000000E+01 0.  1.
         -5    1    1    2    0  502 -0.22451543031E+02  0.93832228587E+02 -0.44385442712E+02  0.10628310699E+03  0.41800000000E+01 0.  1.
        -11    1    3    3    0    0 -0.61507792024E+00 -0.78488115543E+02 -0.34154612863E+01  0.78564801140E+02  0.00000000000E+00 0. -1.
         11    1    3    3    0    0  0.19556278674E+02  0.21730555786E+02 -0.12894398573E+02  0.31952004709E+02  0.00000000000E+00 0.  1.
</event>
<event>
 7    1  0.6988825E-006  0.9723242E+02  0.7561462E-02  0.1286226E+00
         -3   -1    0    0    0  501 -0.00000000000E+00  0.00000000000E+00  0.24225010785E+03  0.24225010785E+03  0.00000000000E+00 0.  1.
          3   -1    0    0  501    0  0.00000000000E+00 -0.00000000000E+00 -0.71550239274E+02  0.71550239274E+02  0.00000000000E+00 0. -1.
         23    2    1    2    0    0 -0.22832927451E+02  0.26368534961E+02  0.16640324775E+03  0.18791582979E+03  0.80035467224E+02 0.  0.
          5    1    1    2  502    0 -0.40207469786E+02 -0.26479810377E+02 -0.27024409898E+02  0.55367970114E+02  0.41800000000E+01 0. -1.
         -5    1    1    2    0  502  0.63040397238E+02  0.11127541623E+00  0.31321030731E+02  0.70516547222E+02  0.41800000000E+01 0.  1.
        -11    1    3    3    0    0  0.18230675489E+02 -0.15783394352E+02  0.78603298440E+02  0.82218924778E+02  0.00000000000E+00 0. -1.
         11    1    3    3    0    0 -0.41063602940E+02  0.42151929313E+02  0.87799949306E+02  0.10569690501E+03  0.00000000000E+00 0.  1.
</event>
<event>
 7    1  0.6988825E-006  0.1122343E+03  0.7561462E-02  0.1256487E+00
         -2   -1    0    0    0  501 -0.00000000000E+00  0.00000000000E+00  0.10204041238E+02  0.10204041238E+02  0.00000000000E+00 0. -1.
          2   -1    0    0  501    0  0.00000000000E+00 -0.00000000000E+00 -0.18554079178E+04  0.18554079178E+04  0.00000000000E+00 0.  1.
         23    2    1    2    0    0  0.57808145023E+01 -0.31834899273E+02 -0.30910283592E+03  0.32408670351E+03  0.91873552167E+02 0.  0.
          5    1    1    2  502    0 -0.60180341563E+02 -0.77892046483E+01 -0.63602091286E+03  0.63892285857E+03  0.41800000000E+01 0.  1.
         -5    1    1    2    0  502  0.54399527061E+02  0.39624103921E+02 -0.90008012780E+03  0.90260239697E+03  0.41800000000E+01 0.  1.
        -11    1    3    3    0    0 -0.21237165417E+02  0.25287502336E+02 -0.13130554548E+03  0.13539431762E+03  0.00000000000E+00 0. -1.
         11    1    3    3    0    0  0.27017979919E+02 -0.57122401609E+02 -0.17779729044E+03  0.18869238589E+03  0.00000000000E+00 0.  1.
</event>
<event>
 7    1  0.6988825E-006  0.1116221E+03  0.7561462E-02  0.1257595E+00
          2   -1    0    0  501    0  0.00000000000E+00  0.00000000000E+00  0.21902989035E+03  0.21902989035E+03  0.00000000000E+00 0. -1.
         -2   -1    0    0    0  501 -0.00000000000E+00 -0.00000000000E+00 -0.76117280641E+02  0.76117280641E+02  0.00000000000E+00 0.  1.
         23    2    1    2    0    0 -0.64214264821E+02 -0.23002439052E+02  0.47492260284E+02  0.12366839408E+03  0.91573865810E+02 0.  0.
          5    1    1    2  502    0  0.91466115638E+02  0.20864294132E+02  0.10623037030E+03  0.14178763364E+03  0.41800000000E+01 0.  1.
         -5    1    1    2    0  502 -0.27251850818E+02  0.21381449197E+01 -0.10810020881E+02  0.29691143261E+02  0.41800000000E+01 0.  1.
        -11    1    3    3    0    0 -0.48603928145E+02 -0.50482824845E+02  0.43822173188E+01  0.70214394992E+02  0.00000000000E+00 0.  1.
         11    1    3    3    0    0 -0.15610336676E+02  0.27480385792E+02  0.43110042965E+02  0.53453999092E+02  0.00000000000E+00 0. -1.
</event>
<event>
 7    1  0.6988825E-006  0.8284358E+02  0.7561462E-02  0.1321170E+00
         -2   -1    0    0    0  501 -0.00000000000E+00  0.00000000000E+00  0.20092667000E+02  0.20092667000E+02  0.00000000000E+00 0.  1.
          2   -1    0    0  501    0  0.00000000000E+00 -0.00000000000E+00 -0.11504632829E+04  0.11504632829E+04  0.00000000000E+00 0. -1.
         23    2    1    2    0    0 -0.49781927023E+02  0.16996912632E+02 -0.17123283282E+03  0.20179668802E+03  0.92919777015E+02 0.  0.
          5    1    1    2  502    0  0.51614528811E+02 -0.14774769605E+02 -0.96160746087E+03  0.96311408182E+03  0.41800000000E+01 0. -1.
         -5    1    1    2    0  502 -0.18326017878E+01 -0.22221430267E+01  0.24696778294E+01  0.56451800259E+01  0.41800000000E+01 0.  1.
        -11    1    3    3    0    0 -0.30352079865E+02 -0.37883273062E+02 -0.76138213550E+02  0.90296282829E+02  0.00000000000E+00 0.  1.
         11    1    3    3    0    0 -0.19429847158E+02  0.54880185694E+02 -0.95094619272E+02  0.11150040519E+03  0.00000000000E+00 0. -1.
</event>
<event>
 7    1  0.6988825E-006  0.9528960E+02  0.7561462E-02  0.1290525E+00
         -2   -1    0    0    0  501 -0.00000000000E+00  0.00000000000E+00  0.29914411869E+03  0.29914411869E+03  0.00000000000E+00 0. -1.
          2   -1    0    0  501    0  0.00000000000E+00 -0.00000000000E+00 -0.53932264544E+02  0.53932264544E+02  0.00000000000E+00 0.  1.
         23    2    1    2    0    0  0.40426558662E+02 -0.48200257854E+01  0.18494934317E+03  0.20838473334E+03  0.86950550625E+02 0.  0.
          5    1    1    2  502    0  0.30527462736E+02 -0.11175338519E+02 -0.18306975334E+02  0.37542401602E+02  0.41800000000E+01 0. -1.
         -5    1    1    2    0  502 -0.70954021398E+02  0.15995364304E+02  0.78569486307E+02  0.10714924830E+03  0.41800000000E+01 0. -1.
        -11    1    3    3    0    0 -0.98456787652E+01  0.24741543286E+02  0.19635046963E+02  0.33084987891E+02  0.00000000000E+00 0.  1.
         11    1    3    3    0    0  0.50272237427E+02 -0.29561569071E+02  0.16531429621E+03  0.17529974545E+03  0.00000000000E+00 0. -1.
</event>
<event>
 7    1  0.6988825E-006  0.1182824E+03  0.7561462E-02  0.1245958E+00
          2   -1    0    0  501    0  0.00000000000E+00  0.00000000000E+00  0.44299891319E+03  0.44299891319E+03  0.00000000000E+00 0.  1.
         -2   -1    0    0    0  501 -0.00000000000E+00 -0.00000000000E+00 -0.64922454613E+02  0.64922454613E+02  0.00000000000E+00 0. -1.
         23    2    1    2    0    0  0.48946814409E+02  0.85143971331E+02  0.49896646629E+02  0.14323669810E+03  0.91552115450E+02 0.  0.
          5    1    1    2  502    0 -0.14202981798E+02 -0.86757210329E+02  0.97450596976E+02  0.13131119330E+03  0.41800000000E+01 0.  1.
         -5    1    1    2    0  502 -0.34743832611E+02  0.16132389981E+01  0.23072921497E+03  0.23337347640E+03  0.41800000000E+01 0.  1.
        -11    1    3    3    0    0  0.14670190601E+02  0.76874479159E+02  0.67931565512E+02  0.10363202995E+03  0.00000000000E+00 0.  1.
         11    1    3    3    0    0  0.34276623807E+02  0.82694921724E+01 -0.18034918883E+02  0.39604668154E+02  0.00000000000E+00 0. -1.
</event>
<event>
 7    1  0.6988825E-006  0.9728721E+02  0.7561462E-02  0.1286106E+00
          1   -1    0    0  501    0  0.00000000000E+00  0.00000000000E+00  0.10222750399E+04  0.10222750399E+04  0.00000000000E+00 0. -1.
         -1   -1    0    0    0  501 -0.00000000000E+00 -0.00000000000E+00 -0.19117152702E+02  0.19117152702E+02  0.00000000000E+00 0.  1.
         23    2    1    2    0    0  0.26319094037E+02  0.52907284600E+01  0.14388404481E+03  0.17264484082E+03  0.91558375862E+02 0.  0.
          5    1    1    2  502    0  0.12467319761E+02 -0.45969529019E+02  0.65789101552E+03  0.65962617623E+03  0.41800000000E+01 0.  1.
         -5    1    1    2    0  502 -0.38786413798E+02  0.40678800559E+02  0.20138282683E+03  0.20912117553E+03  0.41800000000E+01 0.  1.
        -11    1    3    3    0    0 -0.13329533193E+02 -0.32808375839E+02  0.30932829261E+02  0.47020271229E+02  0.00000000000E+00 0.  1.
         11    1    3    3    0    0  0.39648627230E+02  0.38099104299E+02  0.11295121555E+03  0.12562456959E+03  0.00000000000E+00 0. -1.
</event>
<event>
 7    1  0.6988825E-006  0.1227365E+03  0.7561462E-02  0.1238650E+00
          1   -1    0    0  501    0  0.00000000000E+00  0.00000000000E+00  0.76385606235E+03  0.76385606235E+03  0.00000000000E+00 0. -1.
         -1   -1    0    0    0  501 -0.00000000000E+00 -0.00000000000E+00 -0.28499484592E+02  0.28499484592E+02  0.00000000000E+00 0.  1.
         23    2    1    2    0    0  0.27292176033E+02  0.93682790649E+02  0.27652937172E+03  0.30687572920E+03  0.90459336772E+02 0.  0.
          5    1    1    2  502    0 -0.38994361224E+02  0.12035591368E+02  0.59940756100E+02  0.72634580667E+02  0.41800000000E+01 0. -1.
         -5    1    1    2    0  502  0.11702185190E+02 -0.10571838202E+03  0.39888644994E+03  0.41284523708E+03  0.41800000000E+01 0. -1.
        -11    1    3    3    0    0  0.20341008651E+02  0.53741897581E+02  0.25415536492E+03  0.26057033159E+03  0.00000000000E+00 0. -1.
         11    1    3    3    0    0  0.69511673819E+01  0.39940893068E+02  0.22374006802E+02  0.46305397606E+02  0.00000000000E+00 0.  1.
</event>
<event>
 7    1  0.6988825E-006  0.1133675E+03  0.7561462E-02  0.1254458E+00
          2   -1    0    0  501    0  0.00000000000E+00  0.00000000000E+00  0.18164421516E+03  0.18164421516E+03  0.00000000000E+00 0.  1.
         -2   -1    0    0    0  501 -0.00000000000E+00 -0.00000000000E+00 -0.25996264888E+03  0.25996264888E+03  0.00000000000E+00 0. -1.
         23    2    1    2    0    0 -0.59714225858E+02 -0.18968146180E+02 -0.21778897906E+03  0.24405918400E+03  0.90593965358E+02 0.  0.
          5    1    1    2  502    0 -0.34047421614E+01  0.59988008718E+02  0.38303901011E+02  0.71377970633E+02  0.41800000000E+01 0.  1.
         -5    1    1    2    0  502  0.63118968019E+02 -0.41019862538E+02  0.10116664432E+03  0.12616970940E+03  0.41800000000E+01 0.  1.
        -11    1    3    3    0    0 -0.42033239477E+01  0.21823929409E+02 -0.13285374969E+03  0.13469992811E+03  0.00000000000E+00 0. -1.
         11    1    3    3    0    0 -0.55510901910E+02 -0.40792075589E+02 -0.84935229368E+02  0.10935925589E+03  0.00000000000E+00 0.  1.
</event>
<event>
 7    1  0.6988825E-006  0.1217559E+03  0.7561462E-02  0.1240228E+00
          1   -1    0    0  501    0  0.00000000000E+00  0.00000000000E+00  0.26754903429E+03  0.26754903429E+03  0.00000000000E+00 0. -1.
         -1   -1    0    0    0  501 -0.00000000000E+00 -0.00000000000E+00 -0.91765699936E+02  0.91765699936E+02  0.00000000000E+00 0.  1.
         23    2    1    2    0    0  0.90594688257E+02  0.54355721601E+02  0.35779708925E+02  0.14388577774E+03  0.90889974441E+02 0.  0.
          5    1    1    2  502    0 -0.23707130720E+02 -0.20642168927E+02 -0.20842859392E+02  0.37947653058E+02  0.41800000000E+01 0.  1.
         -5    1    1    2    0  502 -0.66887557538E+02 -0.33713552674E+02  0.16084648482E+03  0.17748130343E+03  0.41800000000E+01 0.  1.
        -11    1    3    3    0    0  0.80365306472E+02 -0.11164914824E+01  0.34497384049E+02  0.87463698434E+02  0.00000000000E+00 0. -1.
         11    1    3    3    0    0  0.10229381785E+02  0.55472213083E+02  0.12823248762E+01  0.56422079306E+02  0.00000000000E+00 0.  1.
</event>
<event>
 7    1  0.6988825E-006  0.1248112E+03  0.7561462E-02  0.1235365E+00
         -2   -1    0    0    0  501 -0.00000000000E+00  0.00000000000E+00  0.24359553737E+02  0.24359553737E+02  0.00000000000E+00 0.  1.
          2   -1    0    0  501    0  0.00000000000E+00 -0.00000000000E+00 -0.84951810897E+03  0.84951810897E+03  0.00000000000E+00 0. -1.
         23    2    1    2    0    0  0.80090926896E+02  0.20137052116E+02 -0.23827980754E+03  0.26815990344E+03  0.91172417382E+02 0.  0.
          5    1    1    2  502    0 -0.10658898142E+03 -0.26238878274E+02 -0.33987041495E+03  0.35718211189E+03  0.41800000000E+01 0. -1.
         -5    1    1    2    0  502  0.26498054522E+02  0.61018261576E+01 -0.24700833275E+03  0.24853564739E+03  0.41800000000E+01 0. -1.
        -11    1    3    3    0    0  0.61473350961E+02  0.48521545468E+02 -0.10722323096E+03  0.13277851675E+03  0.00000000000E+00 0.  1.
         11    1    3    3    0    0  0.18617575935E+02 -0.28384493352E+02 -0.13105657658E+03  0.13538138668E+03  0.00000000000E+00 0. -1.
</event>
<event>
 7    1  0.1009162E-005  0.1017191E+03  0.7561462E-02  0.1276722E+00
         -2   -1    0    0    0  501 -0.00000000000E+00  0.00000000000E+00  0.10009634227E+02  0.10009634227E+02  0.00000000000E+00 0.  1.
          2   -1    0    0  501    0  0.00000000000E+00 -0.00000000000E+00 -0.12662014400E+04  0.12662014400E+04  0.00000000000E+00 0. -1.
         23    2    1    2    0    0 -0.40837504489E+02 -0.71840777402E+01 -0.40132462039E+03  0.41124605979E+03  0.79640178391E+02 0.  0.
          5    1    1    2  502    0  0.62164409304E+02  0.40270904975E+02 -0.31373602410E+03  0.32238784839E+03  0.41800000000E+01 0. -1.
         -5    1    1    2    0  502 -0.21326904816E+02 -0.33086827234E+02 -0.54113116130E+03  0.54257716606E+03  0.41800000000E+01 0. -1.
        -11    1    3    3    0    0 -0.15284101816E+02 -0.43018802470E+02 -0.21504248713E+03  0.21983514825E+03  0.00000000000E+00 0.  1.
         11    1    3    3    0    0 -0.25553402672E+02  0.35834724729E+02 -0.18628213326E+03  0.19141091154E+03  0.00000000000E+00 0. -1.
</event>
<event>
 7    1  0.6988825E-006  0.7960621E+02  0.7561462E-02  0.1330173E+00
         -2   -1    0    0    0  501 -0.00000000000E+00  0.00000000000E+00  0.86848360238E+02  0.86848360238E+02  0.00000000000E+00 0.  1.
          2   -1    0    0  501    0  0.00000000000E+00 -0.00000000000E+00 -0.18387635922E+03  0.18387635922E+03  0.00000000000E+00 0. -1.
         23    2    1    2    0    0  0.25857721696E+02  0.60622620522E+00  0.20313105415E+02  0.97271866017E+02  0.91543456266E+02 0.  0.
          5    1    1    2  502    0 -0.35710344583E+02  0.27476443554E+02 -0.13234169928E+03  0.13986415348E+03  0.41800000000E+01 0.  1.
         -5    1    1    2    0  502  0.98526228870E+01 -0.28082669759E+02  0.15000594880E+02  0.33588699964E+02  0.41800000000E+01 0.  1.
        -11    1    3    3    0    0  0.33205123742E+02 -0.34592963217E+02 -0.11444969222E+02  0.49297471206E+02  0.00000000000E+00 0. -1.
         11    1    3    3    0    0 -0.73474020460E+01  0.35199189422E+02  0.31758074637E+02  0.47974394810E+02  0.00000000000E+00 0.  1.
</event>
<event>
 7    1  0.6988825E-006  0.9746185E+02  0.7561462E-02  0.1285726E+00
          2   -1    0    0  501    0  0.00000000000E+00  0.00000000000E+00  0.36714546554E+03  0.36714546554E+03  0.00000000000E+00 0. -1.
         -2   -1    0    0    0  501 -0.00000000000E+00 -0.00000000000E+00 -0.53994898140E+02  0.53994898140E+02  0.00000000000E+00 0.  1.
         23    2    1    2    0    0 -0.22564609514E+02 -0.47763848665E+02  0.48432309132E-01  0.84144767111E+02  0.65496508645E+02 0.  0.
          5    1    1    2  502    0  0.83180694533E+01  0.83171600404E+02  0.18071746855E+03  0.19915567085E+03  0.41800000000E+01 0. -1.
         -5    1    1    2    0  502  0.14246540061E+02 -0.35407751739E+02  0.13238466654E+03  0.13783992571E+03  0.41800000000E+01 0.  1.
        -11    1    3    3    0    0 -0.38692381734E+02 -0.31035227722E+02 -0.19973584456E+02  0.53471766756E+02  0.00000000000E+00 0. -1.
         11    1    3    3    0    0  0.16127772220E+02 -0.16728620942E+02  0.20022016765E+02  0.30673000354E+02  0.00000000000E+00 0.  1.
</event>
<event>
 7    1  0.6988825E-006  0.1215591E+03  0.7561462E-02  0.1240547E+00
          1   -1    0    0  501    0  0.00000000000E+00  0.00000000000E+00  0.13060768613E+04  0.13060768613E+04  0.00000000000E+00 0. -1.
         -1   -1    0    0    0  501 -0.00000000000E+00 -0.00000000000E+00 -0.14277289920E+02  0.14277289920E+02  0.00000000000E+00 0.  1.
         23    2    1    2    0    0  0.53569425570E+02  0.17554428883E+02  0.30908105829E+03  0.32717943902E+03  0.91309601883E+02 0.  0.
          5    1    1    2  502    0 -0.78305126944E+02  0.30558346783E+02  0.45891045571E+03  0.46656380509E+03  0.41800000000E+01 0. -1.
         -5    1    1    2    0  502  0.24735701374E+02 -0.48112775666E+02  0.52380805738E+03  0.52661090710E+03  0.41800000000E+01 0.  1.
        -11    1    3    3    0    0 -0.22601314303E+02 -0.85698519971E+01  0.10588394175E+03  0.10860787675E+03  0.00000000000E+00 0. -1.
         11    1    3    3    0    0  0.76170739873E+02  0.26124280880E+02  0.20319711654E+03  0.21857156228E+03  0.00000000000E+00 0.  1.
</event>
<event>
 7    1  0.6988825E-006  0.1058190E+03  0.7561462E-02  0.1268514E+00
          2   -1    0    0  501    0  0.00000000000E+00  0.00000000000E+00  0.13238325175E+03  0.13238325175E+03  0.00000000000E+00 0. -1.
         -2   -1    0    0    0  501 -0.00000000000E+00 -0.00000000000E+00 -0.13269898247E+03  0.13269898247E+03  0.00000000000E+00 0.  1.
         23    2    1    2    0    0  0.38248952925E+02 -0.43106787461E+02 -0.48251864518E+02  0.11924789099E+03  0.92577748678E+02 0.  0.
          5    1    1    2  502    0  0.39743199356E+02  0.18402689049E+02  0.46343068553E+02  0.63900964486E+02  0.41800000000E+01 0.  1.
         -5    1    1    2    0  502 -0.77992152281E+02  0.24704098413E+02  0.15930652446E+01  0.81933378746E+02  0.41800000000E+01 0.  1.
        -11    1    3    3    0    0 -0.17596591093E+02 -0.15397524173E+02 -0.51771289415E+02  0.56806603282E+02  0.00000000000E+00 0.  1.
         11    1    3    3    0    0  0.55845544018E+02 -0.27709263289E+02  0.35194248971E+01  0.62441287705E+02  0.00000000000E+00 0. -1.
</event>
<event>
 7    1  0.6988825E-006  0.1409627E+03  0.7561462E-02  0.1212039E+00
          1   -1    0    0  501    0  0.00000000000E+00  0.00000000000E+00  0.16697078081E+03  0.16697078081E+03  0.00000000000E+00 0. -1.
         -1   -1    0    0    0  501 -0.00000000000E+00 -0.00000000000E+00 -0.23837478592E+03  0.23837478592E+03  0.00000000000E+00 0.  1.
         23    2    1    2    0    0  0.35497418668E+02  0.19146406519E+02 -0.15499972043E+03  0.18415385085E+03  0.90890460648E+02 0.  0.
          5    1    1    2  502    0  0.54457295896E+02 -0.63820975837E+02 -0.90488474460E+01  0.84487088204E+02  0.41800000000E+01 0. -1.
         -5    1    1    2    0  502 -0.89954714564E+02  0.44674569318E+02  0.92644562769E+02  0.13670462767E+03  0.41800000000E+01 0.  1.
        -11    1    3    3    0    0  0.15731314369E+02 -0.35747442901E+02 -0.44584404982E+02  0.59271604443E+02  0.00000000000E+00 0. -1.
         11    1    3    3    0    0  0.19766104300E+02  0.54893849420E+02 -0.11041531545E+03  0.12488224641E+03  0.00000000000E+00 0.  1.
</event>
<event>
 7    1  0.6988825E-006  0.9590654E+02  0.7561462E-02  0.1289147E+00
          1   -1    0    0  501    0  0.00000000000E+00  0.00000000000E+00  0.55925374812E+03  0.55925374812E+03  0.00000000000E+00 0. -1.
         -1   -1    0    0    0  501 -0.00000000000E+00 -0.00000000000E+00 -0.33167570145E+02  0.33167570145E+02  0.00000000000E+00 0.  1.
         23    2    1    2    0    0  0.10500190715E+02  0.27095972532E+01  0.85885583413E+02  0.13466404199E+03  0.10315267736E+03 0.  0.
          5    1    1    2  502    0  0.27145042688E+02  0.30488986729E+02  0.51702715580E+02  0.66008142321E+02  0.41800000000E+01 0.  1.
         -5    1    1    2    0  502 -0.37645233403E+02 -0.33198583983E+02  0.38849787898E+03  0.39174913395E+03  0.41800000000E+01 0.  1.
        -11    1    3    3    0    0  0.25016176701E+02 -0.44483984548E+02  0.26736259213E+02  0.57614768373E+02  0.00000000000E+00 0.  1.
         11    1    3    3    0    0 -0.14515985986E+02  0.47193581801E+02  0.59149324200E+02  0.77049273622E+02  0.00000000000E+00 0. -1.
</event>
<event>
 7    1  0.6988825E-006  0.1010163E+03  0.7561462E-02  0.1278173E+00
         -1   -1    0    0    0  501 -0.00000000000E+00  0.00000000000E+00  0.25025695882E+02  0.25025695882E+02  0.00000000000E+00 0.  1.
          1   -1    0    0  501    0  0.00000000000E+00 -0.00000000000E+00 -0.61645158721E+03  0.61645158721E+03  0.00000000000E+00 0. -1.
         23    2    1    2    0    0 -0.22249330194E+02 -0.38639802804E+02 -0.15475178501E+03  0.18505607836E+03  0.91156843517E+02 0.  0.
          5    1    1    2  502    0  0.49289818016E+02  0.72180007017E+02 -0.25262099874E+03  0.26734674297E+03  0.41800000000E+01 0.  1.
         -5    1    1    2    0  502 -0.27040487821E+02 -0.33540204213E+02 -0.18405310758E+03  0.18907446177E+03  0.41800000000E+01 0.  1.
        -11    1    3    3    0    0  0.93227605889E+01  0.97340733473E+01  0.56161950362E+01  0.14601633320E+02  0.00000000000E+00 0.  1.
         11    1    3    3    0    0 -0.31572090783E+02 -0.48373876152E+02 -0.16036798005E+03  0.17045444504E+03  0.00000000000E+00 0. -1.
</event>
<event>
 7    1  0.6988825E-006  0.1599709E+03  0.7561462E-02  0.1188730E+00
          2   -1    0    0  501    0  0.00000000000E+00  0.00000000000E+00  0.51037622834E+03  0.51037622834E+03  0.00000000000E+00 0.  1.
         -2   -1    0    0    0  501 -0.00000000000E+00 -0.00000000000E+00 -0.63486486770E+02  0.63486486770E+02  0.00000000000E+00 0. -1.
         23    2    1    2    0    0 -0.99493152324E+02 -0.10211720342E+03  0.21273757819E+03  0.27252969207E+03  0.93211293804E+02 0.  0.
          5    1    1    2  502    0  0.80964452077E+02  0.10879553516E+03  0.10754040698E+03  0.17313036274E+03  0.41800000000E+01 0.  1.
         -5    1    1    2    0  502  0.18528700247E+02 -0.66783317380E+01  0.12661175640E+03  0.12820266029E+03  0.41800000000E+01 0.  1.
        -11    1    3    3    0    0 -0.71777999749E+02 -0.15836342944E+02  0.59791786666E+02  0.94751932743E+02  0.00000000000E+00 0. -1.
         11    1    3    3    0    0 -0.27715152575E+02 -0.86280860476E+02  0.15294579153E+03  0.17777775933E+03  0.00000000000E+00 0.  1.
</event>
<event>
 7    1  0.6988825E-006  0.1488807E+03  0.7561462E-02  0.1201855E+00
          1   -1    0    0  501    0  0.00000000000E+00  0.00000000000E+00  0.73860462353E+02  0.73860462353E+02  0.00000000000E+00 0. -1.
         -1   -1    0    0    0  501 -0.00000000000E+00 -0.00000000000E+00 -0.39126507279E+03  0.39126507279E+03  0.00000000000E+00 0.  1.
         23    2    1    2    0    0 -0.11739283843E+03  0.33871945369E+02 -0.21292443281E+03  0.26142853782E+03  0.89887035209E+02 0.  0.
          5    1    1    2  502    0  0.11650552824E+03 -0.52523611940E+02 -0.12274387186E+03  0.17724502363E+03  0.41800000000E+01 0. -1.
         -5    1    1    2    0  502  0.88731019502E+00  0.18651666571E+02  0.18263694238E+02  0.26451973697E+02  0.41800000000E+01 0. -1.
        -11    1    3    3    0    0  0.14432947800E+02  0.77116359384E+01 -0.33170197513E+02  0.36987042516E+02  0.00000000000E+00 0.  1.
         11    1    3    3    0    0 -0.13182578623E+03  0.26160309431E+02 -0.17975423530E+03  0.22444149530E+03  0.00000000000E+00 0. -1.
</event>
<event>
 7    1  0.6988825E-006  0.1323247E+03  0.7561462E-02  0.1224047E+00
          1   -1    0    0  501    0  0.00000000000E+00  0.00000000000E+00  0.31397711043E+02  0.31397711043E+02  0.00000000000E+00 0. -1.
         -1   -1    0    0    0  501 -0.00000000000E+00 -0.00000000000E+00 -0.67969348782E+03  0.67969348782E+03  0.00000000000E+00 0.  1.
         23    2    1    2    0    0 -0.87644490880E+02  0.40711511953E+02 -0.33290314402E+03  0.35830462250E+03  0.90657129971E+02 0.  0.
          5    1    1    2  502    0 -0.31806174864E+01  0.21897156483E+02 -0.16334761695E+03  0.16489244420E+03  0.41800000000E+01 0. -1.
         -5    1    1    2    0  502  0.90825108367E+02 -0.62608668436E+02 -0.15204501580E+03  0.18789413217E+03  0.41800000000E+01 0. -1.
        -11    1    3    3    0    0 -0.54376731333E+02  0.69152145790E+02 -0.23980318070E+03  0.25542986053E+03  0.00000000000E+00 0.  1.
         11    1    3    3    0    0 -0.33267759548E+02 -0.28440633837E+02 -0.93099963324E+02  0.10287476196E+03  0.00000000000E+00 0. -1.
</event>
<event>
 7    1  0.6988825E-006  0.6372537E+02  0.7561462E-02  0.1382831E+00
          2   -1    0    0  501    0  0.00000000000E+00  0.00000000000E+00  0.72961628523E+03  0.72961628523E+03  0.00000000000E+00 0.  1.
         -2   -1    0    0    0  501 -0.00000000000E+00 -0.00000000000E+00 -0.18564722900E+02  0.18564722900E+02  0.00000000000E+00 0. -1.
         23    2    1    2    0    0 -0.21965013652E+01  0.28626599108E+02  0.19219137207E+03  0.21368531954E+03  0.88879612354E+02 0.  0.
          5    1    1    2  502    0  0.23567903471E+02 -0.11729663294E+02  0.16434405416E+02  0.31314424095E+02  0.41800000000E+01 0. -1.
         -5    1    1    2    0  502 -0.21371402106E+02 -0.16896935814E+02  0.50242578484E+03  0.50318126450E+03  0.41800000000E+01 0. -1.
        -11    1    3    3    0    0 -0.21384149032E+02  0.43819075646E+02  0.51650307810E+02  0.71029201862E+02  0.00000000000E+00 0. -1.
         11    1    3    3    0    0  0.19187647667E+02 -0.15192476538E+02  0.14054106426E+03  0.14265611768E+03  0.00000000000E+00 0.  1.
</event>
<event>
 7    1  0.6988825E-006  0.1034245E+03  0.7561462E-02  0.1273255E+00
         -1   -1    0    0    0  501 -0.00000000000E+00  0.00000000000E+00  0.50952929381E+02  0.50952929381E+02  0.00000000000E+00 0.  1.
          1   -1    0    0  501    0  0.00000000000E+00 -0.00000000000E+00 -0.38632011862E+03  0.38632011862E+03  0.00000000000E+00 0. -1.
         23    2    1    2    0    0  0.83673505467E+02  0.30635904460E+02 -0.13076014585E+03  0.18236742017E+03  0.90663366572E+02 0.  0.
          5    1    1    2  502    0 -0.71383290631E+02 -0.26401634044E+02 -0.22088026576E+03  0.23366254442E+03  0.41800000000E+01 0. -1.
         -5    1    1    2    0  502 -0.12290214836E+02 -0.42342704163E+01  0.16273222369E+02  0.21243083414E+02  0.41800000000E+01 0.  1.
        -11    1    3    3    0    0  0.54373787623E+02  0.56118367830E+02 -0.50028612440E+02  0.92782768072E+02  0.00000000000E+00 0.  1.
         11    1    3    3    0    0  0.29299717844E+02 -0.25482463370E+02 -0.80731533409E+02  0.89584652099E+02  0.00000000000E+00 0. -1.
</event>
<event>
 7    1  0.6988825E-006  0.9493482E+02  0.7561462E-02  0.1291323E+00
         -2   -1    0    0    0  501 -0.00000000000E+00  0.00000000000E+00  0.12166405441E+03  0.12166405441E+03  0.00000000000E+00 0.  1.
          2   -1    0    0  501    0  0.00000000000E+00 -0.00000000000E+00 -0.32744010483E+03  0.32744010483E+03  0.00000000000E+00 0. -1.
         23    2    1    2    0    0 -0.56686390424E+02  0.48761179916E+02  0.55943289005E+02  0.13528434016E+03  0.97883612421E+02 0.  0.
          5    1    1    2  502    0  0.42871037903E+01 -0.30216709762E+02 -0.25593208380E+03  0.25777923254E+03  0.41800000000E+01 0. -1.
         -5    1    1    2    0  502  0.52399286634E+02 -0.18544470154E+02 -0.57872556142E+01  0.56040586547E+02  0.41800000000E+01 0.  1.
        -11    1    3    3    0    0  0.16997866607E+02  0.54321227694E+01  0.45863052929E+02  0.49212346530E+02  0.00000000000E+00 0. -1.
         11    1    3    3    0    0 -0.73684257031E+02  0.43329057147E+02  0.10080236076E+02  0.86071993627E+02  0.00000000000E+00 0.  1.
</event>
<event>
 7    1  0.6988825E-006  0.1079981E+03  0.7561462E-02  0.1264323E+00
          3   -1    0    0  501    0  0.00000000000E+00  0.00000000000E+00  0.55447591824E+03  0.55447591824E+03  0.00000000000E+00 0. -1.
         -3   -1    0    0    0  501 -0.00000000000E+00 -0.00000000000E+00 -0.24037523739E+02  0.24037523739E+02  0.00000000000E+00 0.  1.
         23    2    1    2    0    0  0.28482521027E+01 -0.33597962221E+02  0.23358965163E+03  0.25462602629E+03  0.95568573875E+02 0.  0.
          5    1    1    2  502    0  0.99224509755E+01 -0.42462827327E+02  0.16839971715E+03  0.17400426395E+03  0.41800000000E+01 0. -1.
         -5    1    1    2    0  502 -0.12770703078E+02  0.76060789548E+02  0.12844902573E+03  0.14988315173E+03  0.41800000000E+01 0. -1.
        -11    1    3    3    0    0  0.42520740185E+02 -0.35267731485E+02  0.89598710377E+02  0.10526041579E+03  0.00000000000E+00 0. -1.
         11    1    3    3    0    0 -0.39672488083E+02  0.16697692635E+01  0.14399094125E+03  0.14936561051E+03  0.00000000000E+00 0.  1.
</event>
<event>
 7    1  0.6988825E-006  0.4331720E+03  0.7561462E-02  0.1032863E+00
          1   -1    0    0  501    0  0.00000000000E+00  0.00000000000E+00  0.44804515117E+03  0.44804515117E+03  0.00000000000E+00 0. -1.
         -1   -1    0    0    0  501 -0.00000000000E+00 -0.00000000000E+00 -0.60895641605E+03  0.60895641605E+03  0.00000000000E+00 0.  1.
         23    2    1    2    0    0  0.22892960006E+02  0.37934583451E+02 -0.15404355456E+03  0.18382646027E+03  0.89997947500E+02 0.  0.
          5    1    1    2  502    0 -0.40209564992E+03 -0.13931894190E+03  0.14888509613E+03  0.45086020395E+03  0.41800000000E+01 0. -1.
         -5    1    1    2    0  502  0.37920268991E+03  0.10138435845E+03 -0.15575280645E+03  0.42231490300E+03  0.41800000000E+01 0.  1.
        -11    1    3    3    0    0  0.22300093916E+02  0.19024966662E+02 -0.16101688458E+03  0.16366331496E+03  0.00000000000E+00 0.  1.
         11    1    3    3    0    0  0.59286609033E+00  0.18909616790E+02  0.69733300144E+01  0.20163145311E+02  0.00000000000E+00 0. -1.
</event>
<event>
 7    1  0.6988825E-006  0.1598643E+03  0.7561462E-02  0.1188850E+00
         -2   -1    0    0    0  501 -0.00000000000E+00  0.00000000000E+00  0.61459907322E+03  0.61459907322E+03  0.00000000000E+00 0.  1.
          2   -1    0    0  501    0  0.00000000000E+00 -0.00000000000E+00 -0.54075818777E+02  0.54075818777E+02  0.00000000000E+00 0. -1.
         23    2    1    2    0    0  0.13848987384E+03  0.13123958966E+02  0.34570717715E+03  0.38381498320E+03  0.91917384329E+02 0.  0.
          5    1    1    2  502    0 -0.13303665724E+03  0.64145748410E+01  0.95958922245E+02  0.16421171121E+03  0.41800000000E+01 0.  1.
         -5    1    1    2    0  502 -0.54532165970E+01 -0.19538533807E+02  0.11885715504E+03  0.12064819758E+03  0.41800000000E+01 0.  1.
        -11    1    3    3    0    0  0.13024140860E+03  0.41116818081E+02  0.26769115987E+03  0.30051950738E+03  0.00000000000E+00 0. -1.
         11    1    3    3    0    0  0.82484652427E+01 -0.27992859115E+02  0.78016017286E+02  0.83295475828E+02  0.00000000000E+00 0.  1.
</event>
<event>
 7    1  0.6988825E-006  0.1270897E+03  0.7561462E-02  0.1231839E+00
          1   -1    0    0  501    0  0.00000000000E+00  0.00000000000E+00  0.24813134342E+04  0.24813134342E+04  0.00000000000E+00 0. -1.
         -1   -1    0    0    0  501 -0.00000000000E+00 -0.00000000000E+00 -0.94553739785E+01  0.94553739785E+01  0.00000000000E+00 0.  1.
         23    2    1    2    0    0  0.35984809975E+02 -0.71040417241E+02  0.65180893809E+03  0.66468884592E+03  0.10302777627E+03 0.  0.
          5    1    1    2  502    0  0.32546847175E+02  0.29407530734E+02  0.12058103318E+04  0.12066151535E+04  0.41800000000E+01 0. -1.
         -5    1    1    2    0  502 -0.68531657150E+02  0.41632886507E+02  0.61423879040E+03  0.61946480877E+03  0.41800000000E+01 0. -1.
        -11    1    3    3    0    0 -0.26547237979E+02 -0.60949078558E+02  0.35962374057E+03  0.36571680410E+03  0.00000000000E+00 0. -1.
         11    1    3    3    0    0  0.62532047954E+02 -0.10091338683E+02  0.29218519752E+03  0.29897204182E+03  0.00000000000E+00 0.  1.
</event>
<event>
 7    1  0.6988825E-006  0.9119505E+02  0.7561462E-02  0.1299983E+00
          1   -1    0    0  501    0  0.00000000000E+00  0.00000000000E+00  0.74402746665E+03  0.74402746665E+03  0.00000000000E+00 0. -1.
         -1   -1    0    0    0  501 -0.00000000000E+00 -0.00000000000E+00 -0.94066289388E+02  0.94066289388E+02  0.00000000000E+00 0.  1.
         23    2    1    2    0    0 -0.17025175167E+02  0.41272904287E+02 -0.59530567935E+02  0.11627700261E+03  0.89348439273E+02 0.  0.
          5    1    1    2  502    0  0.50102439748E+02  0.72982768521E+01  0.53987592638E+03  0.54226101427E+03  0.41800000000E+01 0.  1.
         -5    1    1    2    0  502 -0.33077264581E+02 -0.48571181139E+02  0.16961581882E+03  0.17955573915E+03  0.41800000000E+01 0.  1.
        -11    1    3    3    0    0  0.11150088166E+01 -0.14234079135E+02 -0.55981209410E+02  0.57773246927E+02  0.00000000000E+00 0.  1.
         11    1    3    3    0    0 -0.18140183984E+02  0.55506983422E+02 -0.35493585250E+01  0.58503755687E+02  0.00000000000E+00 0. -1.
</event>
<event>
 7    1  0.1048864E-005  0.2530202E+03  0.7561462E-02  0.1111411E+00
         -2   -1    0    0    0  501 -0.00000000000E+00  0.00000000000E+00  0.88196368269E+02  0.88196368269E+02  0.00000000000E+00 0.  1.
          2   -1    0    0  501    0  0.00000000000E+00 -0.00000000000E+00 -0.86468546534E+03  0.86468546534E+03  0.00000000000E+00 0. -1.
         23    2    1    2    0    0 -0.24245261310E+03 -0.70505306571E+02 -0.34270572689E+03  0.43561012013E+03  0.92491587019E+02 0.  0.
          5    1    1    2  502    0  0.56515626683E+02  0.19522238772E+02 -0.24349814640E+02  0.64695592887E+02  0.41800000000E+01 0.  1.
         -5    1    1    2    0  502  0.18593698642E+03  0.50983067799E+02 -0.40943355555E+03  0.45257612059E+03  0.41800000000E+01 0.  1.
        -11    1    3    3    0    0 -0.84452508391E+02 -0.34361146684E+02 -0.19941927294E+03  0.21927371251E+03  0.00000000000E+00 0. -1.
         11    1    3    3    0    0 -0.15800010471E+03 -0.36144159887E+02 -0.14328645394E+03  0.21633640763E+03  0.00000000000E+00 0.  1.
</event>
<event>
 7    1  0.6988825E-006  0.1262672E+03  0.7561462E-02  0.1233102E+00
         -1   -1    0    0    0  501 -0.00000000000E+00  0.00000000000E+00  0.13422639818E+03  0.13422639818E+03  0.00000000000E+00 0.  1.
          1   -1    0    0  501    0  0.00000000000E+00 -0.00000000000E+00 -0.13270658606E+03  0.13270658606E+03  0.00000000000E+00 0. -1.
         23    2    1    2    0    0 -0.18492212277E+02  0.74029860809E+02 -0.84327935491E+01  0.12006437880E+03  0.92314467143E+02 0.  0.
          5    1    1    2  502    0 -0.38887545751E+02  0.48860485167E+01 -0.20686689896E+02  0.44514337281E+02  0.41800000000E+01 0.  1.
         -5    1    1    2    0  502  0.57379758028E+02 -0.78915909325E+02  0.30639295566E+02  0.10235426815E+03  0.41800000000E+01 0.  1.
        -11    1    3    3    0    0  0.35027215567E+02  0.27317762015E+02  0.12247304965E+02  0.46077786740E+02  0.00000000000E+00 0.  1.
         11    1    3    3    0    0 -0.53519427844E+02  0.46712098794E+02 -0.20680098514E+02  0.73986592063E+02  0.00000000000E+00 0. -1.
</event>
<event>
 7    1  0.6988825E-006  0.1071860E+03  0.7561462E-02  0.1265871E+00
         -1   -1    0    0    0  501 -0.00000000000E+00  0.00000000000E+00  0.14833084350E+03  0.14833084350E+03  0.00000000000E+00 0.  1.
          1   -1    0    0  501    0  0.00000000000E+00 -0.00000000000E+00 -0.12184953475E+03  0.12184953475E+03  0.00000000000E+00 0. -1.
         23    2    1    2    0    0  0.72249716605E+02 -0.18339406772E+02  0.42599005849E+02  0.12367382322E+03  0.89017885064E+02 0.  0.
          5    1    1    2  502    0 -0.70891147043E+02  0.55288899520E+02  0.22613895850E+02  0.92796970990E+02  0.41800000000E+01 0. -1.
         -5    1    1    2    0  502 -0.13585695614E+01 -0.36949492748E+02 -0.38731592945E+02  0.53709584039E+02  0.41800000000E+01 0. -1.
        -11    1    3    3    0    0  0.59481618905E+02  0.58924888106E+01  0.64989010067E+02  0.88296975268E+02  0.00000000000E+00 0.  1.
         11    1    3    3    0    0  0.12768097700E+02 -0.24231895583E+02 -0.22390004218E+02  0.35376847956E+02  0.00000000000E+00 0. -1.
</event>
<event>
 7    1  0.6988825E-006  0.1240903E+03  0.7561462E-02  0.1236498E+00
         -1   -1    0    0    0  501 -0.00000000000E+00  0.00000000000E+00  0.22724531673E+03  0.22724531673E+03  0.00000000000E+00 0.  1.
          1   -1    0    0  501    0  0.00000000000E+00 -0.00000000000E+00 -0.17801636020E+03  0.17801636020E+03  0.00000000000E+00 0. -1.
         23    2    1    2    0    0 -0.60307527410E+02  0.78856106279E+02  0.16129752025E+03  0.21016747710E+03  0.91094429200E+02 0.  0.
          5    1    1    2  502    0 -0.17963126335E+02 -0.55459255346E+02 -0.26845988915E+01  0.58507113947E+02  0.41800000000E+01 0. -1.
         -5    1    1    2    0  502  0.78270653745E+02 -0.23396850934E+02 -0.10938396482E+03  0.13658708589E+03  0.41800000000E+01 0. -1.
        -11    1    3    3    0    0 -0.36254518443E+02  0.75363258194E+02  0.16556728909E+03  0.18548999436E+03  0.00000000000E+00 0.  1.
         11    1    3    3    0    0 -0.24053008967E+02  0.34928480855E+01 -0.42697688394E+01  0.24677482733E+02  0.00000000000E+00 0. -1.
</event>
<event>
 7    1  0.6988825E-006  0.1086836E+03  0.7561462E-02  0.1263027E+00
         -1   -1    0    0    0  501 -0.00000000000E+00  0.00000000000E+00  0.35532689088E+02  0.35532689088E+02  0.00000000000E+00 0.  1.
          1   -1    0    0  501    0  0.00000000000E+00 -0.00000000000E+00 -0.46110561596E+03  0.46110561596E+03  0.00000000000E+00 0. -1.
         23    2    1    2    0    0  0.84647017110E+01 -0.16371056617E+02 -0.61803070922E+02  0.11152520860E+03  0.90986756779E+02 0.  0.
          5    1    1    2  502    0  0.51120614974E+02  0.36976732461E+02 -0.18435752217E+03  0.19489936993E+03  0.41800000000E+01 0. -1.
         -5    1    1    2    0  502 -0.59585316685E+02 -0.20605675844E+02 -0.17941233378E+03  0.19021372651E+03  0.41800000000E+01 0. -1.
        -11    1    3    3    0    0 -0.14443689345E+02 -0.48999277573E+02 -0.23465412488E+02  0.56215433360E+02  0.00000000000E+00 0.  1.
         11    1    3    3    0    0  0.22908391056E+02  0.32628220956E+02 -0.38337658433E+02  0.55309775245E+02  0.00000000000E+00 0. -1.
</event>
<event>
 7    1  0.6988825E-006  0.3082174E+03  0.7561462E-02  0.1081203E+00
         -2   -1    0    0    0  501 -0.00000000000E+00  0.00000000000E+00  0.44052403842E+02  0.44052403842E+02  0.00000000000E+00 0.  1.
          2   -1    0    0  501    0  0.00000000000E+00 -0.00000000000E+00 -0.28512208956E+04  0.28512208956E+04  0.00000000000E+00 0. -1.
         23    2    1    2    0    0 -0.35216343392E+02 -0.40855840758E+02 -0.14015808004E+03  0.17547903794E+03  0.90770120580E+02 0.  0.
          5    1    1    2  502    0  0.23524847595E+03  0.15494817600E+03 -0.18347134032E+04  0.18562169935E+04  0.41800000000E+01 0. -1.
         -5    1    1    2    0  502 -0.20003213256E+03 -0.11409233524E+03 -0.83229700855E+03  0.86357726803E+03  0.41800000000E+01 0.  1.
        -11    1    3    3    0    0  0.15493636753E+02  0.19921166929E+02 -0.46021550016E+02  0.52487033994E+02  0.00000000000E+00 0.  1.
         11    1    3    3    0    0 -0.50709980145E+02 -0.60777007687E+02 -0.94136530022E+02  0.12299200394E+03  0.00000000000E+00 0. -1.
</event>
<event>
 7    1  0.6988825E-006  0.8269836E+02  0.7561462E-02  0.1321564E+00
          2   -1    0    0  501    0  0.00000000000E+00  0.00000000000E+00  0.87759967575E+02  0.87759967575E+02  0.00000000000E+00 0. -1.
         -2   -1    0    0    0  501 -0.00000000000E+00 -0.00000000000E+00 -0.23778581708E+03  0.23778581708E+03  0.00000000000E+00 0.  1.
         23    2    1    2    0    0  0.11809795443E+02 -0.37904165583E+02 -0.16568282795E+03  0.19337728188E+03  0.91475552104E+02 0.  0.
          5    1    1    2  502    0  0.31298325600E+02  0.21851754912E+02 -0.42907433508E+02  0.57581287137E+02  0.41800000000E+01 0. -1.
         -5    1    1    2    0  502 -0.43108121043E+02  0.16052410672E+02  0.58564411957E+02  0.74587215634E+02  0.41800000000E+01 0. -1.
        -11    1    3    3    0    0  0.76830601657E+01 -0.58905476324E+02 -0.16080332605E+03  0.17142518550E+03  0.00000000000E+00 0.  1.
         11    1    3    3    0    0  0.41267352770E+01  0.21001310741E+02 -0.48795019047E+01  0.21952096385E+02  0.00000000000E+00 0. -1.
</event>
<event>
 7    1  0.6988825E-006  0.6387693E+02  0.7561462E-02  0.1382247E+00
          2   -1    0    0  501    0  0.00000000000E+00  0.00000000000E+00  0.14031277126E+03  0.14031277126E+03  0.00000000000E+00 0.  1.
         -2   -1    0    0    0  501 -0.00000000000E+00 -0.00000000000E+00 -0.10017449049E+03  0.10017449049E+03  0.00000000000E+00 0. -1.
         23    2    1    2    0    0 -0.36901410430E+02  0.12615787056E+02 -0.12204269571E+02  0.99388894064E+02  0.90599866958E+02 0.  0.
          5    1    1    2  502    0  0.13123598322E+02 -0.49767922290E+01 -0.41443011134E+02  0.43954440795E+02  0.41800000000E+01 0. -1.
         -5    1    1    2    0  502  0.23777812108E+02 -0.76389948275E+01  0.93785561476E+02  0.97143926892E+02  0.41800000000E+01 0. -1.
        -11    1    3    3    0    0 -0.61304712087E+02  0.24580052778E+01 -0.29215804579E+02  0.67954931766E+02  0.00000000000E+00 0. -1.
         11    1    3    3    0    0  0.24403301657E+02  0.10157781779E+02  0.17011535008E+02  0.31433962298E+02  0.00000000000E+00 0.  1.
</event>
<event>
 7    1  0.6988825E-006  0.2688216E+03  0.7561462E-02  0.1101956E+00
          2   -1    0    0  501    0  0.00000000000E+00  0.00000000000E+00  0.69953424295E+03  0.69953424295E+03  0.00000000000E+00 0. -1.
         -2   -1    0    0    0  501 -0.00000000000E+00 -0.00000000000E+00 -0.14314624404E+03  0.14314624404E+03  0.00000000000E+00 0.  1.
         23    2    1    2    0    0  0.11017688545E+03  0.70621449127E+02 -0.41764815885E+01  0.15727552818E+03  0.87131014014E+02 0.  0.
          5    1    1    2  502    0 -0.84652382250E+02  0.14384864194E+03  0.32762432382E+03  0.36771405680E+03  0.41800000000E+01 0. -1.
         -5    1    1    2    0  502 -0.25524503196E+02 -0.21447009106E+03  0.23294015669E+03  0.31769090201E+03  0.41800000000E+01 0.  1.
        -11    1    3    3    0    0  0.12146738334E+03  0.50420750079E+02 -0.13746651698E+02  0.13223292966E+03  0.00000000000E+00 0.  1.
         11    1    3    3    0    0 -0.11290497894E+02  0.20200699048E+02  0.95701701094E+01  0.25042598521E+02  0.00000000000E+00 0. -1.
</event>
<event>
 7    1  0.6988825E-006  0.1118843E+03  0.7561462E-02  0.1257120E+00
          3   -1    0    0  501    0  0.00000000000E+00  0.00000000000E+00  0.84384329546E+02  0.84384329546E+02  0.00000000000E+00 0. -1.
         -3   -1    0    0    0  501 -0.00000000000E+00 -0.00000000000E+00 -0.32366901750E+03  0.32366901750E+03  0.00000000000E+00 0.  1.
         23    2    1    2    0    0 -0.59830490418E+01  0.41090948704E+02 -0.17688960768E+03  0.20349841115E+03  0.91637367351E+02 0.  0.
          5    1    1    2  502    0 -0.19325284320E+02 -0.79185042237E+02  0.41061283662E+02  0.91363225337E+02  0.41800000000E+01 0. -1.
         -5    1    1    2    0  502  0.25308333362E+02  0.38094093532E+02 -0.10345636394E+03  0.11319171056E+03  0.41800000000E+01 0.  1.
        -11    1    3    3    0    0 -0.41801399893E+02  0.43498155081E+02 -0.80180253567E+02  0.10034101649E+03  0.00000000000E+00 0.  1.
         11    1    3    3    0    0  0.35818350852E+02 -0.24072063763E+01 -0.96709354110E+02  0.10315739466E+03  0.00000000000E+00 0. -1.
</event>
<event>
 7    1  0.6988825E-006  0.1033764E+03  0.7561462E-02  0.1273352E+00
         -1   -1    0    0    0  501 -0.00000000000E+00  0.00000000000E+00  0.78117500031E+02  0.78117500031E+02  0.00000000000E+00 0.  1.
          1   -1    0    0  501    0  0.00000000000E+00 -0.00000000000E+00 -0.18101255916E+03  0.18101255916E+03  0.00000000000E+00 0. -1.
         23    2    1    2    0    0  0.16969422713E+02 -0.45136756579E+02 -0.38693477199E+02  0.11048449143E+03  0.91566093977E+02 0.  0.
          5    1    1    2  502    0  0.30591676276E+02 -0.85046765395E+01 -0.69616720079E+02  0.76629891654E+02  0.41800000000E+01 0.  1.
         -5    1    1    2    0  502 -0.47561098989E+02  0.53641433119E+02  0.54151381513E+01  0.72015676108E+02  0.41800000000E+01 0.  1.
        -11    1    3    3    0    0 -0.95803040539E+01 -0.67515677303E+02 -0.31058125889E+02  0.74931676154E+02  0.00000000000E+00 0. -1.
         11    1    3    3    0    0  0.26549726767E+02  0.22378920723E+02 -0.76353513095E+01  0.35552815272E+02  0.00000000000E+00 0.  1.
</event>
<event>
 7    1  0.6988825E-006  0.1221632E+03  0.7561462E-02  0.1239570E+00
         -1   -1    0    0    0  501 -0.00000000000E+00  0.00000000000E+00  0.21220226332E+02  0.21220226332E+02  0.00000000000E+00 0. -1.
          1   -1    0    0  501    0  0.00000000000E+00 -0.00000000000E+00 -0.10449764156E+04  0.10449764156E+04  0.00000000000E+00 0.  1.
         23    2    1    2    0    0  0.75480859052E+02  0.33346697123E+02 -0.24504860821E+03  0.27320088513E+03  0.88207374728E+02 0.  0.
          5    1    1    2  502    0 -0.10788863909E+03 -0.27529914861E+02 -0.49685022437E+03  0.50919099807E+03  0.41800000000E+01 0.  1.
         -5    1    1    2    0  502  0.32407780038E+02 -0.58167822621E+01 -0.28185735664E+03  0.28380475869E+03  0.41800000000E+01 0.  1.
        -11    1    3    3    0    0  0.52996808771E+02 -0.70663930458E+01 -0.20552690186E+03  0.21236737753E+03  0.00000000000E+00 0.  1.
         11    1    3    3    0    0  0.22484050280E+02  0.40413090169E+02 -0.39521706356E+02  0.60833507603E+02  0.00000000000E+00 0. -1.
</event>
<event>
 7    1  0.6988825E-006  0.1009496E+03  0.7561462E-02  0.1278312E+00
          3   -1    0    0  501    0  0.00000000000E+00  0.00000000000E+00  0.12743516747E+03  0.12743516747E+03  0.00000000000E+00 0. -1.
         -3   -1    0    0    0  501 -0.00000000000E+00 -0.00000000000E+00 -0.12908340973E+03  0.12908340973E+03  0.00000000000E+00 0.  1.
         23    2    1    2    0    0  0.19960748924E+02 -0.22558391289E+02 -0.64632472887E+02  0.11570362076E+03  0.91118926630E+02 0.  0.
          5    1    1    2  502    0  0.24277448710E+02 -0.28950767793E+02  0.62065756416E+02  0.72781673456E+02  0.41800000000E+01 0. -1.
         -5    1    1    2    0  502 -0.44238197634E+02  0.51509159082E+02  0.91847421017E+00  0.68033282988E+02  0.41800000000E+01 0.  1.
        -11    1    3    3    0    0  0.51132665643E+00  0.35051073699E+02 -0.26320063436E+02  0.43835886688E+02  0.00000000000E+00 0.  1.
         11    1    3    3    0    0  0.19449422267E+02 -0.57609464988E+02 -0.38312409451E+02  0.71867734072E+02  0.00000000000E+00 0. -1.
</event>
<event>
 7    1  0.6988825E-006  0.9134367E+02  0.7561462E-02  0.1299630E+00
          1   -1    0    0  501    0  0.00000000000E+00  0.00000000000E+00  0.25896442138E+03  0.25896442138E+03  0.00000000000E+00 0.  1.
         -1   -1    0    0    0  501 -0.00000000000E+00 -0.00000000000E+00 -0.57483243811E+02  0.57483243811E+02  0.00000000000E+00 0. -1.
         23    2    1    2    0    0 -0.73447518002E+01 -0.45468191953E+02  0.46040071967E+02  0.11167775899E+03  0.90724482735E+02 0.  0.
          5    1    1    2  502    0  0.88762067060E+01  0.62806135845E+02  0.17859937740E+02  0.66029141455E+02  0.41800000000E+01 0. -1.
         -5    1    1    2    0  502 -0.15314549058E+01 -0.17337943892E+02  0.13758116787E+03  0.13874076475E+03  0.41800000000E+01 0. -1.
        -11    1    3    3    0    0  0.16791415047E+02  0.23082282729E+02  0.18199943644E+02  0.33852346210E+02  0.00000000000E+00 0.  1.
         11    1    3    3    0    0 -0.24136166847E+02 -0.68550474681E+02  0.27840128323E+02  0.77825412779E+02  0.00000000000E+00 0. -1.
</event>
<event>
 7    1  0.6988825E-006  0.8714929E+02  0.7561462E-02  0.1309906E+00
         -2   -1    0    0    0  501 -0.00000000000E+00  0.00000000000E+00  0.33452243945E+02  0.33452243945E+02  0.00000000000E+00 0.  1.
          2   -1    0    0  501    0  0.00000000000E+00 -0.00000000000E+00 -0.51801039044E+03  0.51801039044E+03  0.00000000000E+00 0. -1.
         23    2    1    2    0    0 -0.67157814905E+02 -0.11388990823E+02 -0.16391087183E+03  0.20060359066E+03  0.93462000122E+02 0.  0.
          5    1    1    2  502    0  0.17150292882E+02 -0.29890713877E+02 -0.25891381964E+03  0.26123059875E+03  0.41800000000E+01 0.  1.
         -5    1    1    2    0  502  0.50007522023E+02  0.41279704699E+02 -0.61733455012E+02  0.89628444964E+02  0.41800000000E+01 0.  1.
        -11    1    3    3    0    0 -0.37681117305E+02  0.90295630055E+01 -0.15989323294E+03  0.16452126169E+03  0.00000000000E+00 0. -1.
         11    1    3    3    0    0 -0.29476697600E+02 -0.20418553828E+02 -0.40176388987E+01  0.36082328974E+02  0.00000000000E+00 0.  1.
</event>
<event>
 7    1  0.6988825E-006  0.1633817E+03  0.7561462E-02  0.1184931E+00
          1   -1    0    0  501    0  0.00000000000E+00  0.00000000000E+00  0.80636053010E+03  0.80636053010E+03  0.00000000000E+00 0. -1.
         -1   -1    0    0    0  501 -0.00000000000E+00 -0.00000000000E+00 -0.62781076390E+02  0.62781076390E+02  0.00000000000E+00 0.  1.
         23    2    1    2    0    0 -0.55641260642E+02  0.13976396724E+03  0.11318575008E+03  0.20908357843E+03  0.90967094718E+02 0.  0.
          5    1    1    2  502    0 -0.17872792170E+02 -0.40691528518E+02  0.36076959517E+03  0.36352085276E+03  0.41800000000E+01 0. -1.
         -5    1    1    2    0  502  0.73514052812E+02 -0.99072438721E+02  0.26962410845E+03  0.29653717530E+03  0.41800000000E+01 0. -1.
        -11    1    3    3    0    0 -0.49166640031E+02  0.55392671979E+02  0.98436099580E+02  0.12318836106E+03  0.00000000000E+00 0.  1.
         11    1    3    3    0    0 -0.64746206106E+01  0.84371295260E+02  0.14749650504E+02  0.85895217363E+02  0.00000000000E+00 0. -1.
</event>
<event>
 7    1  0.6988825E-006  0.1211873E+03  0.7561462E-02  0.1241151E+00
          1   -1    0    0  501    0  0.00000000000E+00  0.00000000000E+00  0.27125169256E+02  0.27125169256E+02  0.00000000000E+00 0. -1.
         -1   -1    0    0    0  501 -0.00000000000E+00 -0.00000000000E+00 -0.82643391116E+03  0.82643391116E+03  0.00000000000E+00 0.  1.
         23    2    1    2    0    0  0.27346284482E+02 -0.90354646274E+02 -0.48515845664E+03  0.50249068884E+03  0.90589088454E+02 0.  0.
          5    1    1    2  502    0 -0.50783061217E+02  0.84183419351E+02 -0.11918650810E+03  0.15455957917E+03  0.41800000000E+01 0. -1.
         -5    1    1    2    0  502  0.23436776735E+02  0.61712269230E+01 -0.19496377717E+03  0.19650881241E+03  0.41800000000E+01 0. -1.
        -11    1    3    3    0    0 -0.24449773117E+02 -0.41554674266E+02 -0.10252560967E+03  0.11329643859E+03  0.00000000000E+00 0. -1.
         11    1    3    3    0    0  0.51796057600E+02 -0.48799972008E+02 -0.38263284696E+03  0.38919425025E+03  0.00000000000E+00 0.  1.
</event>
<event>
 7    1  0.6988825E-006  0.1268871E+03  0.7561462E-02  0.1232149E+00
         -1   -1    0    0    0  501 -0.00000000000E+00  0.00000000000E+00  0.34405231264E+03  0.34405231264E+03  0.00000000000E+00 0.  1.
          1   -1    0    0  501    0  0.00000000000E+00 -0.00000000000E+00 -0.20172185983E+03  0.20172185983E+03  0.00000000000E+00 0. -1.
         23    2    1    2    0    0 -0.34846261489E+01 -0.62049149118E+02  0.25131161424E+03  0.27358731748E+03  0.88488718543E+02 0.  0.
          5    1    1    2  502    0 -0.59569886296E+02  0.92190034234E+02 -0.15384520629E+03  0.18903278463E+03  0.41800000000E+01 0. -1.
         -5    1    1    2    0  502  0.63054512444E+02 -0.30140885116E+02  0.44864044865E+02  0.83154070357E+02  0.41800000000E+01 0.  1.
        -11    1    3    3    0    0 -0.13545720449E+02 -0.62399728088E+02  0.25499445901E+03  0.26286762207E+03  0.00000000000E+00 0.  1.
         11    1    3    3    0    0  0.10061094300E+02  0.35057896992E+00 -0.36828447687E+01  0.10719695411E+02  0.00000000000E+00 0. -1.
</event>
<event>
 7    1  0.6988825E-006  0.1168319E+03  0.7561462E-02  0.1248417E+00
         -2   -1    0    0    0  501 -0.00000000000E+00  0.00000000000E+00  0.18651992973E+02  0.18651992973E+02  0.00000000000E+00 0.  1.
          2   -1    0    0  501    0  0.00000000000E+00 -0.00000000000E+00 -0.74610318242E+03  0.74610318242E+03  0.00000000000E+00 0. -1.
         23    2    1    2    0    0 -0.26744807353E+01 -0.49805107857E+02 -0.27404599147E+03  0.29177001702E+03  0.86837985784E+02 0.  0.
          5    1    1    2  502    0  0.60348297402E+02  0.45969846225E+02 -0.28157570067E+03  0.29164617496E+03  0.41800000000E+01 0.  1.
         -5    1    1    2    0  502 -0.57673816667E+02  0.38352616319E+01 -0.17182949730E+03  0.18133898341E+03  0.41800000000E+01 0.  1.
        -11    1    3    3    0    0  0.41790834104E+02 -0.27083703767E+02 -0.15000711373E+03  0.15805737881E+03  0.00000000000E+00 0.  1.
         11    1    3    3    0    0 -0.44465314839E+02 -0.22721404090E+02 -0.12403887774E+03  0.13371263821E+03  0.00000000000E+00 0. -1.
</event>
<event>
 7    1  0.6988825E-006  0.1191248E+03  0.7561462E-02  0.1244548E+00
         -1   -1    0    0    0  501 -0.00000000000E+00  0.00000000000E+00  0.67034269433E+02  0.67034269433E+02  0.00000000000E+00 0.  1.
          1   -1    0    0  501    0  0.00000000000E+00 -0.00000000000E+00 -0.36123870231E+03  0.36123870231E+03  0.00000000000E+00 0. -1.
         23    2    1    2    0    0 -0.50151041608E+02  0.83147382968E+02 -0.63932194144E+02  0.14881638784E+03  0.92899825466E+02 0.  0.
          5    1    1    2  502    0  0.41352226744E+02 -0.10523329554E+03 -0.11367016999E+03  0.16038214705E+03  0.41800000000E+01 0. -1.
         -5    1    1    2    0  502  0.87988148646E+01  0.22085912574E+02 -0.11660206874E+03  0.11907443686E+03  0.41800000000E+01 0. -1.
        -11    1    3    3    0    0 -0.73178654538E+01  0.38138710766E+02  0.20557828186E+02  0.43940149220E+02  0.00000000000E+00 0.  1.
         11    1    3    3    0    0 -0.42833176155E+02  0.45008672202E+02 -0.84490022331E+02  0.10487623862E+03  0.00000000000E+00 0. -1.
</event>
<event>
 7    1  0.6988825E-006  0.9720769E+02  0.7561462E-02  0.1286280E+00
         -1   -1    0    0    0  501 -0.00000000000E+00  0.00000000000E+00  0.17494757604E+02  0.17494757604E+02  0.00000000000E+00 0.  1.
          1   -1    0    0  501    0  0.00000000000E+00 -0.00000000000E+00 -0.14454446428E+04  0.14454446428E+04  0.00000000000E+00 0. -1.
         23    2    1    2    0    0  0.69711587984E+02  0.30478623471E+02 -0.25556210084E+03  0.28144555378E+03  0.90060870360E+02 0.  0.
          5    1    1    2  502    0 -0.54394261733E+02  0.10852227382E+02 -0.10477513284E+04  0.10492267749E+04  0.41800000000E+01 0.  1.
         -5    1    1    2    0  502 -0.15317326251E+02 -0.41330850853E+02 -0.12463645596E+03  0.13226707175E+03  0.41800000000E+01 0.  1.
        -11    1    3    3    0    0  0.34401941422E+02 -0.14500621650E+02 -0.19344879995E+03  0.19701827277E+03  0.00000000000E+00 0. -1.
         11    1    3    3    0    0  0.35309646562E+02  0.44979245121E+02 -0.62113300883E+02  0.84427281009E+02  0.00000000000E+00 0.  1.
</event>
<event>
 7    1  0.6988825E-006  0.1356018E+03  0.7561462E-02  0.1219373E+00
         -3   -1    0    0    0  501 -0.00000000000E+00  0.00000000000E+00  0.49960506971E+02  0.49960506971E+02  0.00000000000E+00 0.  1.
          3   -1    0    0  501    0  0.00000000000E+00 -0.00000000000E+00 -0.53764515683E+03  0.53764515683E+03  0.00000000000E+00 0. -1.
         23    2    1    2    0    0 -0.88299167264E+02 -0.59038630981E+02 -0.11953943377E+03  0.18454098847E+03  0.92105359856E+02 0.  0.
          5    1    1    2  502    0  0.29008087384E+02  0.91494921894E+02 -0.22796562764E+03  0.24738348702E+03  0.41800000000E+01 0.  1.
         -5    1    1    2    0  502  0.59291079880E+02 -0.32456290913E+02 -0.14017958845E+03  0.15568118830E+03  0.41800000000E+01 0.  1.
        -11    1    3    3    0    0 -0.33042239040E+02 -0.31568266677E+02  0.45805729540E+01  0.45927406528E+02  0.00000000000E+00 0.  1.
         11    1    3    3    0    0 -0.55256928224E+02 -0.27470364304E+02 -0.12412000672E+03  0.13861358195E+03  0.00000000000E+00 0. -1.
</event>
<event>
 7    1  0.6988825E-006  0.1148067E+03  0.7561462E-02  0.1251919E+00
          2   -1    0    0  501    0  0.00000000000E+00  0.00000000000E+00  0.37254796449E+03  0.37254796449E+03  0.00000000000E+00 0. -1.
         -2   -1    0    0    0  501 -0.00000000000E+00 -0.00000000000E+00 -0.47164501396E+02  0.47164501396E+02  0.00000000000E+00 0.  1.
         23    2    1    2    0    0  0.23516871646E+02  0.42513360377E+02  0.52758096947E+02  0.11585181660E+03  0.90982402432E+02 0.  0.
          5    1    1    2  502    0 -0.69116981187E+02 -0.46123828580E+02  0.21243146858E+03  0.22814286290E+03  0.41800000000E+01 0.  1.
         -5    1    1    2    0  502  0.45600109541E+02  0.36104682036E+01  0.60193897566E+02  0.75717786385E+02  0.41800000000E+01 0.  1.
        -11    1    3    3    0    0  0.23383825170E+02  0.69585156470E+02  0.26245841075E+02  0.77959870794E+02  0.00000000000E+00 0.  1.
         11    1    3    3    0    0  0.13304647572E+00 -0.27071796094E+02  0.26512255873E+02  0.37891945801E+02  0.00000000000E+00 0. -1.
</event>
<event>
 7    1  0.6988825E-006  0.7320906E+02  0.7561462E-02  0.1349508E+00
         -2   -1    0    0    0  501 -0.00000000000E+00  0.00000000000E+00  0.29043646820E+02  0.29043646820E+02  0.00000000000E+00 0.  1.
          2   -1    0    0  501    0  0.00000000000E+00 -0.00000000000E+00 -0.72690184952E+03  0.72690184952E+03  0.00000000000E+00 0. -1.
         23    2    1    2    0    0  0.11831781698E+02  0.30424830096E+02 -0.82412765036E+02  0.12706814539E+03  0.91042783283E+02 0.  0.
          5    1    1    2  502    0 -0.23537206279E+02 -0.10249004667E+02 -0.19617934178E+02  0.32578795519E+02  0.41800000000E+01 0. -1.
         -5    1    1    2    0  502  0.11705424580E+02 -0.20175825429E+02 -0.59582750349E+03  0.59629855543E+03  0.41800000000E+01 0. -1.
        -11    1    3    3    0    0 -0.26776209852E+02 -0.19843417382E+02 -0.27660508207E+02  0.43310857089E+02  0.00000000000E+00 0. -1.
         11    1    3    3    0    0  0.38607991551E+02  0.50268247478E+02 -0.54752256829E+02  0.83757288303E+02  0.00000000000E+00 0.  1.
</event>
<event>
 7    1  0.6988825E-006  0.1142301E+03  0.7561462E-02  0.1252931E+00
          1   -1    0    0  501    0  0.00000000000E+00  0.00000000000E+00  0.71752593452E+03  0.71752593452E+03  0.00000000000E+00 0. -1.
         -1   -1    0    0    0  501 -0.00000000000E+00 -0.00000000000E+00 -0.25246727992E+02  0.25246727992E+02  0.00000000000E+00 0.  1.
         23    2    1    2    0    0 -0.53347659214E+02 -0.34272707257E+02  0.18695736980E+03  0.21835189093E+03  0.93294688716E+02 0.  0.
          5    1    1    2  502    0  0.84529757381E+02  0.61941399432E+01  0.42815752437E+03  0.43648595089E+03  0.41800000000E+01 0.  1.
         -5    1    1    2    0  502 -0.31182098167E+02  0.28078567313E+02  0.77164312355E+02  0.87934820690E+02  0.41800000000E+01 0.  1.
        -11    1    3    3    0    0 -0.11593996553E+02 -0.54015771184E+02  0.52615055955E+02  0.76291994376E+02  0.00000000000E+00 0.  1.
         11    1    3    3    0    0 -0.41753662661E+02  0.19743063928E+02  0.13434231385E+03  0.14205989655E+03  0.00000000000E+00 0. -1.
</event>
<event>
 7    1  0.6988825E-006  0.1300355E+03  0.7561462E-02  0.1227403E+00
         -1   -1    0    0    0  501 -0.00000000000E+00  0.00000000000E+00  0.20598479086E+03  0.20598479086E+03  0.00000000000E+00 0.  1.
          1   -1    0    0  501    0  0.00000000000E+00 -0.00000000000E+00 -0.11240499711E+03  0.11240499711E+03  0.00000000000E+00 0. -1.
         23    2    1    2    0    0  0.77458264172E+01 -0.77795791555E+02  0.11741941964E+03  0.16895919793E+03  0.92993050523E+02 0.  0.
          5    1    1    2  502    0  0.58063931867E+02  0.27474377026E+02 -0.14232591556E+02  0.65926479044E+02  0.41800000000E+01 0.  1.
         -5    1    1    2    0  502 -0.65809758284E+02  0.50321414530E+02 -0.96070343292E+01  0.83504111002E+02  0.41800000000E+01 0.  1.
        -11    1    3    3    0    0 -0.14041491674E+02 -0.87699764230E+02  0.61207614438E+02  0.10786465686E+03  0.00000000000E+00 0. -1.
         11    1    3    3    0    0  0.21787318092E+02  0.99039726751E+01  0.56211805197E+02  0.61094541065E+02  0.00000000000E+00 0.  1.
</event>
<event>
 7    1  0.6988825E-006  0.1175149E+03  0.7561462E-02  0.1247254E+00
          2   -1    0    0  501    0  0.00000000000E+00  0.00000000000E+00  0.13187912821E+04  0.13187912821E+04  0.00000000000E+00 0. -1.
         -2   -1    0    0    0  501 -0.00000000000E+00 -0.00000000000E+00 -0.18450058656E+02  0.18450058656E+02  0.00000000000E+00 0.  1.
         23    2    1    2    0    0  0.48112218239E+01  0.10712302155E+03  0.46513760668E+03  0.48594222695E+03  0.91040459018E+02 0.  0.
          5    1    1    2  502    0  0.14476783487E+02 -0.95082512477E+02  0.28911875935E+03  0.30472510702E+03  0.41800000000E+01 0.  1.
         -5    1    1    2    0  502 -0.19288005311E+02 -0.12040509070E+02  0.54608485739E+03  0.54657400677E+03  0.41800000000E+01 0.  1.
        -11    1    3    3    0    0  0.18673073873E+02  0.96194792587E+02  0.45531821772E+03  0.46574327821E+03  0.00000000000E+00 0. -1.
         11    1    3    3    0    0 -0.13861852049E+02  0.10928228960E+02  0.98193889589E+01  0.20198948734E+02  0.00000000000E+00 0.  1.
</event>
<event>
 7    1  0.6988825E-006  0.1464655E+03  0.7561462E-02  0.1204885E+00
         -3   -1    0    0    0  501 -0.00000000000E+00  0.00000000000E+00  0.18047362679E+03  0.18047362679E+03  0.00000000000E+00 0.  1.
          3   -1    0    0  501    0  0.00000000000E+00 -0.00000000000E+00 -0.19965064556E+03  0.19965064556E+03  0.00000000000E+00 0. -1.
         23    2    1    2    0    0  0.91633060935E+02  0.98789810003E+02  0.68673497588E+02  0.17635740845E+03  0.90718475671E+02 0.  0.
          5    1    1    2  502    0 -0.87043169540E+02 -0.94905846348E+02 -0.11679964869E+03  0.17390590378E+03  0.41800000000E+01 0.  1.
         -5    1    1    2    0  502 -0.45898913958E+01 -0.38839636550E+01  0.28949132329E+02  0.29860960120E+02  0.41800000000E+01 0.  1.
        -11    1    3    3    0    0  0.67739653899E+02  0.14662562722E+02  0.76763768826E+01  0.69732189253E+02  0.00000000000E+00 0.  1.
         11    1    3    3    0    0  0.23893407037E+02  0.84127247281E+02  0.60997120705E+02  0.10662521920E+03  0.00000000000E+00 0. -1.
</event>
<event>
 7    1  0.6988825E-006  0.1411169E+03  0.7561462E-02  0.1211834E+00
          1   -1    0    0  501    0  0.00000000000E+00  0.00000000000E+00  0.15709721088E+03  0.15709721088E+03  0.00000000000E+00 0. -1.
         -1   -1    0    0    0  501 -0.00000000000E+00 -0.00000000000E+00 -0.19245727195E+03  0.19245727195E+03  0.00000000000E+00 0.  1.
         23    2    1    2    0    0  0.69183684508E+02 -0.81234130962E+02 -0.99389963045E+02  0.17308207369E+03  0.93239869384E+02 0.  0.
          5    1    1    2  502    0 -0.17467624800E+01  0.74143377269E+02 -0.11183543703E+02  0.75118810040E+02  0.41800000000E+01 0.  1.
         -5    1    1    2    0  502 -0.67436922028E+02  0.70907536931E+01  0.75213445673E+02  0.10135359910E+03  0.41800000000E+01 0.  1.
        -11    1    3    3    0    0  0.56347878404E+02 -0.10146156383E+03 -0.71496521766E+02  0.13631318704E+03  0.00000000000E+00 0. -1.
         11    1    3    3    0    0  0.12835806104E+02  0.20227432873E+02 -0.27893441278E+02  0.36768886648E+02  0.00000000000E+00 0.  1.
</event>
<event>
 7    1  0.6988825E-006  0.2069972E+03  0.7561462E-02  0.1143966E+00
          2   -1    0    0  501    0  0.00000000000E+00  0.00000000000E+00  0.12340563180E+03  0.12340563180E+03  0.00000000000E+00 0. -1.
         -2   -1    0    0    0  501 -0.00000000000E+00 -0.00000000000E+00 -0.46862567440E+03  0.46862567440E+03  0.00000000000E+00 0.  1.
         23    2    1    2    0    0  0.17783099489E+03 -0.88963303853E+02 -0.26445591648E+03  0.34362346936E+03  0.92746022865E+02 0.  0.
          5    1    1    2  502    0 -0.11172486716E+03  0.40431064441E+02 -0.10927959455E+03  0.16148256593E+03  0.41800000000E+01 0. -1.
         -5    1    1    2    0  502 -0.66106127727E+02  0.48532239411E+02  0.28515468425E+02  0.86925270922E+02  0.41800000000E+01 0. -1.
        -11    1    3    3    0    0  0.17420320914E+03 -0.10035022432E+03 -0.22192562163E+03  0.29944600036E+03  0.00000000000E+00 0. -1.
         11    1    3    3    0    0  0.36277857456E+01  0.11386920465E+02 -0.42530294845E+02  0.44177468994E+02  0.00000000000E+00 0.  1.
</event>
<event>
 7    1  0.6988825E-006  0.9564946E+02  0.7561462E-02  0.1289720E+00
          1   -1    0    0  501    0  0.00000000000E+00  0.00000000000E+00  0.19860714470E+03  0.19860714470E+03  0.00000000000E+00 0. -1.
         -1   -1    0    0    0  501 -0.00000000000E+00 -0.00000000000E+00 -0.78797641257E+02  0.78797641257E+02  0.00000000000E+00 0.  1.
         23    2    1    2    0    0  0.53402646228E+02 -0.94364545691E+01  0.19033959390E+02  0.10786780363E+03  0.91281335177E+02 0.  0.
          5    1    1    2  502    0 -0.17587419408E+02  0.42463669305E+02 -0.11077999491E+02  0.47462353555E+02  0.41800000000E+01 0.  1.
         -5    1    1    2    0  502 -0.35815226819E+02 -0.33027214736E+02  0.11185354354E+03  0.12207462877E+03  0.41800000000E+01 0.  1.
        -11    1    3    3    0    0 -0.21190907864E+02 -0.18644275331E+01 -0.14488543796E+02  0.25738076219E+02  0.00000000000E+00 0.  1.
         11    1    3    3    0    0  0.74593554091E+02 -0.75720270361E+01  0.33522503185E+02  0.82129727415E+02  0.00000000000E+00 0. -1.
</event>
<event>
 7    1  0.6988825E-006  0.1201979E+03  0.7561462E-02  0.1242771E+00
         -1   -1    0    0    0  501 -0.00000000000E+00  0.00000000000E+00  0.15392887369E+03  0.15392887369E+03  0.00000000000E+00 0.  1.
          1   -1    0    0  501    0  0.00000000000E+00 -0.00000000000E+00 -0.12121208207E+03  0.12121208207E+03  0.00000000000E+00 0. -1.
         23    2    1    2    0    0 -0.59636140192E+00 -0.81145087652E+02  0.31560448474E+02  0.12603189809E+03  0.91121328632E+02 0.  0.
          5    1    1    2  502    0 -0.43672445821E+02 -0.99637908202E+01 -0.12794218707E+02  0.46773112830E+02  0.41800000000E+01 0. -1.
         -5    1    1    2    0  502  0.44268807223E+02  0.91108878473E+02  0.13950561860E+02  0.10233594484E+03  0.41800000000E+01 0. -1.
        -11    1    3    3    0    0 -0.24047152378E+02 -0.40540266445E+02  0.55965763744E+02  0.73170659778E+02  0.00000000000E+00 0.  1.
         11    1    3    3    0    0  0.23450790976E+02 -0.40604821207E+02 -0.24405315270E+02  0.52861238314E+02  0.00000000000E+00 0. -1.
</event>
<event>
 7    1  0.6988825E-006  0.1115197E+03  0.7561462E-02  0.1257781E+00
         -2   -1    0    0    0  501 -0.00000000000E+00  0.00000000000E+00  0.77648505719E+02  0.77648505719E+02  0.00000000000E+00 0.  1.
          2   -1    0    0  501    0  0.00000000000E+00 -0.00000000000E+00 -0.16511970743E+03  0.16511970743E+03  0.00000000000E+00 0. -1.
         23    2    1    2    0    0  0.15517449639E+02 -0.43313552924E+02 -0.29204306786E+02  0.10623596521E+03  0.91193934329E+02 0.  0.
          5    1    1    2  502    0  0.19291742027E+02  0.72996460850E+02 -0.24389654062E+02  0.79454277622E+02  0.41800000000E+01 0. -1.
         -5    1    1    2    0  502 -0.34809191666E+02 -0.29682907927E+02 -0.33877240861E+02  0.57077970319E+02  0.41800000000E+01 0.  1.
        -11    1    3    3    0    0  0.32240306219E+02  0.18689111965E+02 -0.16585352253E+02  0.40789633003E+02  0.00000000000E+00 0. -1.
         11    1    3    3    0    0 -0.16722856580E+02 -0.62002664888E+02 -0.12618954533E+02  0.65446332204E+02  0.00000000000E+00 0.  1.
</event>
<event>
 7    1  0.6988825E-006  0.1127998E+03  0.7561462E-02  0.1255471E+00
         -1   -1    0    0    0  501 -0.00000000000E+00  0.00000000000E+00  0.87881573983E+02  0.87881573983E+02  0.00000000000E+00 0.  1.
          1   -1    0    0  501    0  0.00000000000E+00 -0.00000000000E+00 -0.22771023200E+03  0.22771023200E+03  0.00000000000E+00 0. -1.
         23    2    1    2    0    0  0.74324282801E+02 -0.38354993429E+01 -0.10996836766E+02  0.12121768827E+03  0.95047290653E+02 0.  0.
          5    1    1    2  502    0 -0.10119125789E+03 -0.21756906711E+02 -0.71180609428E+02  0.12568685381E+03  0.41800000000E+01 0. -1.
         -5    1    1    2    0  502  0.26866975088E+02  0.25592406054E+02 -0.57651211827E+02  0.68687263908E+02  0.41800000000E+01 0. -1.
        -11    1    3    3    0    0  0.69628862275E+02 -0.16162792373E+02 -0.45190958956E+02  0.84567352391E+02  0.00000000000E+00 0. -1.
         11    1    3    3    0    0  0.46954205260E+01  0.12327293030E+02  0.34194122191E+02  0.36650335875E+02  0.00000000000E+00 0.  1.
</event>
<event>
 7    1  0.6988825E-006  0.1050083E+03  0.7561462E-02  0.1270103E+00
         -2   -1    0    0    0  501 -0.00000000000E+00  0.00000000000E+00  0.89874361839E+02  0.89874361839E+02  0.00000000000E+00 0.  1.
          2   -1    0    0  501    0  0.00000000000E+00 -0.00000000000E+00 -0.21712583215E+03  0.21712583215E+03  0.00000000000E+00 0. -1.
         23    2    1    2    0    0 -0.22992632511E+02  0.12635771048E+02  0.32307089556E+02  0.10256320603E+03  0.93739742565E+02 0.  0.
          5    1    1    2  502    0 -0.48976672182E+02 -0.21209759248E+02 -0.51718726342E+02  0.74437002625E+02  0.41800000000E+01 0. -1.
         -5    1    1    2    0  502  0.71969304693E+02  0.85739882001E+01 -0.10783983352E+03  0.12999998533E+03  0.41800000000E+01 0. -1.
        -11    1    3    3    0    0 -0.46325056795E+02 -0.14075052640E+02 -0.77819461374E+01  0.49037502786E+02  0.00000000000E+00 0.  1.
         11    1    3    3    0    0  0.23332424284E+02  0.26710823688E+02  0.40089035693E+02  0.53525703245E+02  0.00000000000E+00 0. -1.
</event>
<event>
 7    1  0.6988825E-006  0.1120766E+03  0.7561462E-02  0.1256772E+00
         -1   -1    0    0    0  501 -0.00000000000E+00  0.00000000000E+00  0.22122521050E+02  0.22122521050E+02  0.00000000000E+00 0.  1.
          1   -1    0    0  501    0  0.00000000000E+00 -0.00000000000E+00 -0.75812348817E+03  0.75812348817E+03  0.00000000000E+00 0. -1.
         23    2    1    2    0    0  0.56229147855E+02  0.19749197071E+02 -0.21210398807E+03  0.23833543717E+03  0.90906165905E+02 0.  0.
          5    1    1    2  502    0 -0.93459266257E+02  0.14310076848E+01 -0.39840664853E+03  0.40924566244E+03  0.41800000000E+01 0. -1.
         -5    1    1    2    0  502  0.37230118402E+02 -0.21180204756E+02 -0.12549033051E+03  0.13266490961E+03  0.41800000000E+01 0. -1.
        -11    1    3    3    0    0  0.45636473812E+02 -0.17462173050E+02 -0.43731131069E+02  0.65574591530E+02  0.00000000000E+00 0.  1.
         11    1    3    3    0    0  0.10592674043E+02  0.37211370122E+02 -0.16837285700E+03  0.17276084564E+03  0.00000000000E+00 0. -1.
</event>
<event>
 7    1  0.6988825E-006  0.1123697E+03  0.7561462E-02  0.1256243E+00
          1   -1    0    0  501    0  0.00000000000E+00  0.00000000000E+00  0.93880749616E+03  0.93880749616E+03  0.00000000000E+00 0. -1.
         -1   -1    0    0    0  501 -0.00000000000E+00 -0.00000000000E+00 -0.31641869063E+02  0.31641869063E+02  0.00000000000E+00 0.  1.
         23    2    1    2    0    0  0.55524426710E+02  0.66177255161E+02  0.15175492487E+03  0.19668788248E+03  0.90521681541E+02 0.  0.
          5    1    1    2  502    0  0.14633136679E+01 -0.33973161523E+02  0.64075427198E+03  0.64166956173E+03  0.41800000000E+01 0. -1.
         -5    1    1    2    0  502 -0.56987740378E+02 -0.32204093638E+02  0.11465643024E+03  0.13209192101E+03  0.41800000000E+01 0.  1.
        -11    1    3    3    0    0 -0.97608709716E+01 -0.16725398292E+02  0.19330921962E+02  0.27362348110E+02  0.00000000000E+00 0. -1.
         11    1    3    3    0    0  0.65285297682E+02  0.82902653453E+02  0.13242400290E+03  0.16932553437E+03  0.00000000000E+00 0.  1.
</event>
<event>
 7    1  0.6988825E-006  0.1113161E+03  0.7561462E-02  0.1258152E+00
         -2   -1    0    0    0  501 -0.00000000000E+00  0.00000000000E+00  0.32555326940E+03  0.32555326940E+03  0.00000000000E+00 0.  1.
          2   -1    0    0  501    0  0.00000000000E+00 -0.00000000000E+00 -0.44676324941E+02  0.44676324941E+02  0.00000000000E+00 0. -1.
         23    2    1    2    0    0 -0.25468094558E+02  0.51674604963E+02  0.12265445228E+03  0.16046272005E+03  0.85937658936E+02 0.  0.
          5    1    1    2  502    0 -0.28398957356E+02 -0.59089115289E+02  0.13569820852E+03  0.15076306086E+03  0.41800000000E+01 0.  1.
         -5    1    1    2    0  502  0.53867051914E+02  0.74145103267E+01  0.22524283664E+02  0.59003813435E+02  0.41800000000E+01 0.  1.
        -11    1    3    3    0    0 -0.11733572756E+02 -0.23350329950E+02  0.21906206770E+02  0.34099802542E+02  0.00000000000E+00 0. -1.
         11    1    3    3    0    0 -0.13734521802E+02  0.75024934912E+02  0.10074824551E+03  0.12636291751E+03  0.00000000000E+00 0.  1.
</event>
<event>
 7    1  0.6988825E-006  0.1351260E+03  0.7561462E-02  0.1220042E+00
          2   -1    0    0  501    0  0.00000000000E+00  0.00000000000E+00  0.54962801094E+03  0.54962801094E+03  0.00000000000E+00 0.  1.
         -2   -1    0    0    0  501 -0.00000000000E+00 -0.00000000000E+00 -0.36272495121E+02  0.36272495121E+02  0.00000000000E+00 0. -1.
         23    2    1    2    0    0 -0.71283508065E+02 -0.51576094477E+02  0.18646834077E+03  0.22500706934E+03  0.90090549464E+02 0.  0.
          5    1    1    2  502    0  0.83018957979E+02  0.83530175112E+02  0.26765589960E+03  0.29244929566E+03  0.41800000000E+01 0.  1.
         -5    1    1    2    0  502 -0.11735449914E+02 -0.31954080635E+02  0.59231275450E+02  0.68444141059E+02  0.41800000000E+01 0.  1.
        -11    1    3    3    0    0 -0.66592129806E+02 -0.71462725501E+02  0.17768981917E+03  0.20276859896E+03  0.00000000000E+00 0.  1.
         11    1    3    3    0    0 -0.46913782594E+01  0.19886631024E+02  0.87785215926E+01  0.22238470379E+02  0.00000000000E+00 0. -1.
</event>
<event>
 7    1  0.6988825E-006  0.1082565E+03  0.7561462E-02  0.1263833E+00
          3   -1    0    0  501    0  0.00000000000E+00  0.00000000000E+00  0.90967145092E+02  0.90967145092E+02  0.00000000000E+00 0. -1.
         -3   -1    0    0    0  501 -0.00000000000E+00 -0.00000000000E+00 -0.19779832111E+03  0.19779832111E+03  0.00000000000E+00 0.  1.
         23    2    1    2    0    0 -0.97605914584E+01 -0.75280359101E+02 -0.73487458518E+02  0.13869260439E+03  0.89848930655E+02 0.  0.
          5    1    1    2  502    0  0.44966675763E+02 -0.60314483366E+01  0.16338468218E+02  0.48402461114E+02  0.41800000000E+01 0.  1.
         -5    1    1    2    0  502 -0.35206084305E+02  0.81311807438E+02 -0.49682185712E+02  0.10167040070E+03  0.41800000000E+01 0.  1.
        -11    1    3    3    0    0  0.10473478750E+02 -0.42100473649E+02 -0.87269553607E+02  0.97458291722E+02  0.00000000000E+00 0.  1.
         11    1    3    3    0    0 -0.20234070209E+02 -0.33179885453E+02  0.13782095089E+02  0.41234312664E+02  0.00000000000E+00 0. -1.
</event>
<event>
 7    1  0.6988825E-006  0.8114948E+02  0.7561462E-02  0.1325821E+00
         -2   -1    0    0    0  501 -0.00000000000E+00  0.00000000000E+00  0.67900448610E+02  0.67900448610E+02  0.00000000000E+00 0.  1.
          2   -1    0    0  501    0  0.00000000000E+00 -0.00000000000E+00 -0.61536776965E+03  0.61536776965E+03  0.00000000000E+00 0. -1.
         23    2    1    2    0    0  0.18624320393E+01 -0.69597664415E+02 -0.22573939745E+02  0.14053899671E+03  0.11997634473E+03 0.  0.
          5    1    1    2  502    0  0.52801730044E+01  0.35364962257E+02 -0.49564006496E+03  0.49694577891E+03  0.41800000000E+01 0. -1.
         -5    1    1    2    0  502 -0.71426050437E+01  0.34232702157E+02 -0.29253316340E+02  0.45783442648E+02  0.41800000000E+01 0.  1.
        -11    1    3    3    0    0  0.29924784244E+02 -0.28572183676E+02  0.42062468379E+02  0.59000963028E+02  0.00000000000E+00 0.  1.
         11    1    3    3    0    0 -0.28062352205E+02 -0.41025480739E+02 -0.64636408125E+02  0.81538033680E+02  0.00000000000E+00 0. -1.
</event>
<event>
 7    1  0.6988825E-006  0.1387658E+03  0.7561462E-02  0.1214999E+00
          2   -1    0    0  501    0  0.00000000000E+00  0.00000000000E+00  0.11564863635E+03  0.11564863635E+03  0.00000000000E+00 0. -1.
         -2   -1    0    0    0  501 -0.00000000000E+00 -0.00000000000E+00 -0.28827929121E+03  0.28827929121E+03  0.00000000000E+00 0.  1.
         23    2    1    2    0    0 -0.73790121435E+02  0.73281639936E+02 -0.19246764353E+03  0.24004991870E+03  0.98817958349E+02 0.  0.
          5    1    1    2  502    0  0.32057502435E+02 -0.91020500252E+02  0.50482693593E+02  0.10898802540E+03  0.41800000000E+01 0. -1.
         -5    1    1    2    0  502  0.41732619000E+02  0.17738860317E+02 -0.30645704920E+02  0.54889983458E+02  0.41800000000E+01 0. -1.
        -11    1    3    3    0    0 -0.42124403991E+02  0.90162476322E+02 -0.17206373559E+03  0.19877038676E+03  0.00000000000E+00 0.  1.
         11    1    3    3    0    0 -0.31665717444E+02 -0.16880836386E+02 -0.20403907936E+02  0.41279531943E+02  0.00000000000E+00 0. -1.
</event>
<event>
 7    1  0.6988825E-006  0.1172698E+03  0.7561462E-02  0.1247670E+00
          2   -1    0    0  501    0  0.00000000000E+00  0.00000000000E+00  0.54299879995E+03  0.54299879995E+03  0.00000000000E+00 0. -1.
         -2   -1    0    0    0  501 -0.00000000000E+00 -0.00000000000E+00 -0.35102559977E+02  0.35102559977E+02  0.00000000000E+00 0.  1.
         23    2    1    2    0    0 -0.66409278865E+02  0.41711263389E+02  0.14658218045E+03  0.18778533463E+03  0.87332550997E+02 0.  0.
          5    1    1    2  502    0  0.44869736062E+02 -0.86549181936E+02  0.23067149881E+03  0.25046130813E+03  0.41800000000E+01 0. -1.
         -5    1    1    2    0  502  0.21539542803E+02  0.44837918547E+02  0.13064256072E+03  0.13985471717E+03  0.41800000000E+01 0. -1.
        -11    1    3    3    0    0 -0.35821629833E+02  0.43562308689E+02  0.23762660934E+02  0.61200718598E+02  0.00000000000E+00 0.  1.
         11    1    3    3    0    0 -0.30587649031E+02 -0.18510452993E+01  0.12281951951E+03  0.12658461603E+03  0.00000000000E+00 0. -1.
</event>
<event>
 7    1  0.6988825E-006  0.1129109E+03  0.7561462E-02  0.1255272E+00
          1   -1    0    0  501    0  0.00000000000E+00  0.00000000000E+00  0.63103650932E+03  0.63103650932E+03  0.00000000000E+00 0. -1.
         -1   -1    0    0    0  501 -0.00000000000E+00 -0.00000000000E+00 -0.22440263575E+02  0.22440263575E+02  0.00000000000E+00 0.  1.
         23    2    1    2    0    0 -0.23821774998E+02 -0.32947006259E+02  0.18743669626E+03  0.21225574292E+03  0.90923061486E+02 0.  0.
          5    1    1    2  502    0 -0.17072265996E+02  0.72357311112E+02  0.24805903188E+03  0.25899381930E+03  0.41800000000E+01 0.  1.
         -5    1    1    2    0  502  0.40894040994E+02 -0.39410304853E+02  0.17310051760E+03  0.18222721067E+03  0.41800000000E+01 0.  1.
        -11    1    3    3    0    0 -0.56108923430E+02 -0.22861563148E+02  0.15014455355E+03  0.16190815087E+03  0.00000000000E+00 0. -1.
         11    1    3    3    0    0  0.32287148432E+02 -0.10085443111E+02  0.37292142712E+02  0.50347592044E+02  0.00000000000E+00 0.  1.
</event>
<event>
 7    1  0.6988825E-006  0.1196179E+03  0.7561462E-02  0.1243729E+00
          1   -1    0    0  501    0  0.00000000000E+00  0.00000000000E+00  0.71580788711E+03  0.71580788711E+03  0.00000000000E+00 0. -1.
         -1   -1    0    0    0  501 -0.00000000000E+00 -0.00000000000E+00 -0.35759767710E+02  0.35759767710E+02  0.00000000000E+00 0.  1.
         23    2    1    2    0    0 -0.56144741647E+02  0.27264979523E+02  0.86171551662E+02  0.14145868499E+03  0.93217016265E+02 0.  0.
          5    1    1    2  502    0 -0.34116986166E+02 -0.29659156938E+02  0.13544591624E+03  0.14285203171E+03  0.41800000000E+01 0.  1.
         -5    1    1    2    0  502  0.90261727813E+02  0.23941774143E+01  0.45843065149E+03  0.46725693812E+03  0.41800000000E+01 0.  1.
        -11    1    3    3    0    0  0.15835803501E+02  0.27190259569E+02  0.54255669790E+02  0.62719698599E+02  0.00000000000E+00 0.  1.
         11    1    3    3    0    0 -0.71980545148E+02  0.74719953912E-01  0.31915881872E+02  0.78738986395E+02  0.00000000000E+00 0. -1.
</event>
<event>
 7    1  0.6988825E-006  0.8696557E+02  0.7561462E-02  0.1310371E+00
         -1   -1    0    0    0  501 -0.00000000000E+00  0.00000000000E+00  0.68938492082E+02  0.68938492082E+02  0.00000000000E+00 0.  1.
          1   -1    0    0  501    0  0.00000000000E+00 -0.00000000000E+00 -0.22518688750E+03  0.22518688750E+03  0.00000000000E+00 0. -1.
         23    2    1    2    0    0 -0.43362056481E+02  0.44988540074E+02 -0.64306792415E+02  0.12677439666E+03  0.89622248455E+02 0.  0.
          5    1    1    2  502    0 -0.50896027247E+01 -0.41871795491E+02  0.18794496130E+02  0.46366548269E+02  0.41800000000E+01 0.  1.
         -5    1    1    2    0  502  0.48451659206E+02 -0.31167445827E+01 -0.11073609913E+03  0.12098443465E+03  0.41800000000E+01 0.  1.
        -11    1    3    3    0    0 -0.53225910995E+02  0.21622170888E+02  0.21079726965E+00  0.57450503137E+02  0.00000000000E+00 0.  1.
         11    1    3    3    0    0  0.98638545138E+01  0.23366369186E+02 -0.64517589685E+02  0.69323893526E+02  0.00000000000E+00 0. -1.
</event>
<event>
 7    1  0.6988825E-006  0.1357686E+03  0.7561462E-02  0.1219139E+00
         -1   -1    0    0    0  501 -0.00000000000E+00  0.00000000000E+00  0.17437650481E+03  0.17437650481E+03  0.00000000000E+00 0.  1.
          1   -1    0    0  501    0  0.00000000000E+00 -0.00000000000E+00 -0.11603193395E+03  0.11603193395E+03  0.00000000000E+00 0. -1.
         23    2    1    2    0    0  0.80716130889E+02  0.39903608425E+02  0.43054752184E+02  0.13552805359E+03  0.91688330088E+02 0.  0.
          5    1    1    2  502    0  0.29211425133E+02 -0.32122464771E+02  0.59007555531E+00  0.43623166901E+02  0.41800000000E+01 0.  1.
         -5    1    1    2    0  502 -0.10992755602E+03 -0.77811436531E+01  0.14699743124E+02  0.11125721827E+03  0.41800000000E+01 0.  1.
        -11    1    3    3    0    0  0.14728625113E+02 -0.22449106801E+02  0.35384494749E+02  0.44417983549E+02  0.00000000000E+00 0.  1.
         11    1    3    3    0    0  0.65987505776E+02  0.62352715226E+02  0.76702574352E+01  0.91110070045E+02  0.00000000000E+00 0. -1.
</event>
<event>
 7    1  0.6988825E-006  0.1777256E+03  0.7561462E-02  0.1170023E+00
         -2   -1    0    0    0  501 -0.00000000000E+00  0.00000000000E+00  0.31874018824E+02  0.31874018824E+02  0.00000000000E+00 0.  1.
          2   -1    0    0  501    0  0.00000000000E+00 -0.00000000000E+00 -0.15965756253E+04  0.15965756253E+04  0.00000000000E+00 0. -1.
         23    2    1    2    0    0 -0.89824435562E+02 -0.11177438408E+03 -0.26759932376E+03  0.31746399246E+03  0.92801111365E+02 0.  0.
          5    1    1    2  502    0  0.96951265895E+02  0.23097010808E+02 -0.60342787655E+03  0.61161727777E+03  0.41800000000E+01 0.  1.
         -5    1    1    2    0  502 -0.71268303324E+01  0.88677373268E+02 -0.69367440620E+03  0.69936837393E+03  0.41800000000E+01 0.  1.
        -11    1    3    3    0    0 -0.66558606162E+02 -0.16513392568E+02 -0.14558889720E+03  0.16093124985E+03  0.00000000000E+00 0.  1.
         11    1    3    3    0    0 -0.23265829400E+02 -0.95260991508E+02 -0.12201042656E+03  0.15653274261E+03  0.00000000000E+00 0. -1.
</event>
<event>
 7    1  0.6988825E-006  0.1586496E+03  0.7561462E-02  0.1190230E+00
          2   -1    0    0  501    0  0.00000000000E+00  0.00000000000E+00  0.75535016658E+02  0.75535016658E+02  0.00000000000E+00 0. -1.
         -2   -1    0    0    0  501 -0.00000000000E+00 -0.00000000000E+00 -0.42721038274E+03  0.42721038274E+03  0.00000000000E+00 0.  1.
         23    2    1    2    0    0 -0.11004479105E+03 -0.76339944847E+02 -0.20310839649E+03  0.26682352838E+03  0.10956336684E+03 0.  0.
          5    1    1    2  502    0  0.99559291291E+02 -0.59566076481E+01 -0.88578275215E+02  0.13345829647E+03  0.41800000000E+01 0.  1.
         -5    1    1    2    0  502  0.10485499755E+02  0.82296552495E+02 -0.59988694377E+02  0.10246357456E+03  0.41800000000E+01 0.  1.
        -11    1    3    3    0    0 -0.84108854191E+02 -0.52298532046E+02 -0.52456395046E+02  0.11207635428E+03  0.00000000000E+00 0. -1.
         11    1    3    3    0    0 -0.25935936854E+02 -0.24041412801E+02 -0.15065200145E+03  0.15474717409E+03  0.00000000000E+00 0.  1.
</event>
<event>
 7    1  0.6988825E-006  0.1371010E+03  0.7561462E-02  0.1217284E+00
          3   -1    0    0  501    0  0.00000000000E+00  0.00000000000E+00  0.27553455939E+03  0.27553455939E+03  0.00000000000E+00 0. -1.
         -3   -1    0    0    0  501 -0.00000000000E+00 -0.00000000000E+00 -0.11445563103E+03  0.11445563103E+03  0.00000000000E+00 0.  1.
         23    2    1    2    0    0 -0.13634076780E+02  0.91627036077E+02 -0.39638210151E+02  0.13599211942E+03  0.91330537339E+02 0.  0.
          5    1    1    2  502    0  0.12430697681E+02 -0.11758197469E+03  0.11760384468E+03  0.16681780391E+03  0.41800000000E+01 0.  1.
         -5    1    1    2    0  502  0.12033790995E+01  0.25954938616E+02  0.83113293832E+02  0.87180267099E+02  0.41800000000E+01 0.  1.
        -11    1    3    3    0    0 -0.52118996427E+02  0.43048550763E+02 -0.14644673496E+02  0.69166711452E+02  0.00000000000E+00 0.  1.
         11    1    3    3    0    0  0.38484919646E+02  0.48578485315E+02 -0.24993536655E+02  0.66825407969E+02  0.00000000000E+00 0. -1.
</event>
<event>
 7    1  0.6988825E-006  0.9459625E+02  0.7561462E-02  0.1292088E+00
         -4   -1    0    0    0  501 -0.00000000000E+00  0.00000000000E+00  0.21871590746E+03  0.21871590746E+03  0.00000000000E+00 0.  1.
          4   -1    0    0  501    0  0.00000000000E+00 -0.00000000000E+00 -0.66698625399E+02  0.66698625399E+02  0.00000000000E+00 0. -1.
         23    2    1    2    0    0 -0.98264060855E+00  0.16546093048E+02  0.12570295240E+03  0.15672382372E+03  0.92121582178E+02 0.  0.
          5    1    1    2  502    0 -0.57368334942E+02  0.51954387778E+01  0.31991481947E+02  0.66023069871E+02  0.41800000000E+01 0. -1.
         -5    1    1    2    0  502  0.58350975550E+02 -0.21741531826E+02 -0.56771522774E+01  0.62667639271E+02  0.41800000000E+01 0. -1.
        -11    1    3    3    0    0  0.18846123804E+02 -0.19980516491E+02  0.35510343790E+01  0.27694896043E+02  0.00000000000E+00 0. -1.
         11    1    3    3    0    0 -0.19828764412E+02  0.36526609539E+02  0.12215191802E+03  0.12902892768E+03  0.00000000000E+00 0.  1.
</event>
<event>
 7    1  0.6988825E-006  0.2393827E+03  0.7561462E-02  0.1120205E+00
          2   -1    0    0  501    0  0.00000000000E+00  0.00000000000E+00  0.22691585087E+04  0.22691585087E+04  0.00000000000E+00 0.  1.
         -2   -1    0    0    0  501 -0.00000000000E+00 -0.00000000000E+00 -0.43273548613E+02  0.43273548613E+02  0.00000000000E+00 0. -1.
         23    2    1    2    0    0  0.13095760789E+03 -0.17593539315E+03  0.37267320403E+03  0.44209899999E+03  0.91994843148E+02 0.  0.
          5    1    1    2  502    0 -0.10704593910E+03  0.42012747057E+02  0.94482212404E+03  0.95180366803E+03  0.41800000000E+01 0. -1.
         -5    1    1    2    0  502 -0.23911668787E+02  0.13392264609E+03  0.90838963198E+03  0.91852938926E+03  0.41800000000E+01 0. -1.
        -11    1    3    3    0    0  0.48634839485E+02 -0.22767446507E+02  0.15161672714E+03  0.16084569058E+03  0.00000000000E+00 0.  1.
         11    1    3    3    0    0  0.82322768400E+02 -0.15316794664E+03  0.22105647690E+03  0.28125330941E+03  0.00000000000E+00 0. -1.
</event>
<event>
 7    1  0.6988825E-006  0.9731408E+02  0.7561462E-02  0.1286048E+00
          2   -1    0    0  501    0  0.00000000000E+00  0.00000000000E+00  0.55859403370E+03  0.55859403370E+03  0.00000000000E+00 0. -1.
         -2   -1    0    0    0  501 -0.00000000000E+00 -0.00000000000E+00 -0.29446428448E+02  0.29446428448E+02  0.00000000000E+00 0.  1.
         23    2    1    2    0    0  0.36649044469E+02 -0.20522407437E+02  0.18583760485E+03  0.22024613034E+03  0.11049172316E+03 0.  0.
          5    1    1    2  502    0  0.27995452517E+01  0.49680909011E+02  0.29365133082E+03  0.29786675992E+03  0.41800000000E+01 0. -1.
         -5    1    1    2    0  502 -0.39448589720E+02 -0.29158501574E+02  0.49658669577E+02  0.69927571881E+02  0.41800000000E+01 0. -1.
        -11    1    3    3    0    0  0.46359017126E+02  0.22376006594E+02  0.32859035390E+02  0.61070126467E+02  0.00000000000E+00 0.  1.
         11    1    3    3    0    0 -0.97099726568E+01 -0.42898414030E+02  0.15297856946E+03  0.15917600388E+03  0.00000000000E+00 0. -1.
</event>
<event>
 7    1  0.6988825E-006  0.1555971E+03  0.7561462E-02  0.1193759E+00
          1   -1    0    0  501    0  0.00000000000E+00  0.00000000000E+00  0.18648434815E+03  0.18648434815E+03  0.00000000000E+00 0. -1.
         -1   -1    0    0    0  501 -0.00000000000E+00 -0.00000000000E+00 -0.15088623299E+03  0.15088623299E+03  0.00000000000E+00 0.  1.
         23    2    1    2    0    0 -0.95997477916E+02  0.67020358649E+02 -0.34338247634E+02  0.15231468809E+03  0.91177874050E+02 0.  0.
          5    1    1    2  502    0  0.32383551783E+01 -0.77067199473E+02  0.23437772780E+02  0.80725719394E+02  0.41800000000E+01 0. -1.
         -5    1    1    2    0  502  0.92759122738E+02  0.10046840824E+02  0.46498590015E+02  0.10433017366E+03  0.41800000000E+01 0. -1.
        -11    1    3    3    0    0 -0.10966844504E+03  0.62041176972E+02 -0.45512983929E+02  0.13396905308E+03  0.00000000000E+00 0. -1.
         11    1    3    3    0    0  0.13670967126E+02  0.49791816771E+01  0.11174736295E+02  0.18345635001E+02  0.00000000000E+00 0.  1.
</event>
<event>
 7    1  0.6988825E-006  0.1191515E+03  0.7561462E-02  0.1244503E+00
          1   -1    0    0  501    0  0.00000000000E+00  0.00000000000E+00  0.10875041775E+03  0.10875041775E+03  0.00000000000E+00 0. -1.
         -1   -1    0    0    0  501 -0.00000000000E+00 -0.00000000000E+00 -0.16063733714E+03  0.16063733714E+03  0.00000000000E+00 0.  1.
         23    2    1    2    0    0  0.16116023834E+02  0.60623144386E+02 -0.64055543626E+02  0.12892313879E+03  0.92645405643E+02 0.  0.
          5    1    1    2  502    0 -0.58345055908E+02 -0.70797810808E+01  0.34876102009E+02  0.68469582593E+02  0.41800000000E+01 0. -1.
         -5    1    1    2    0  502  0.42229032074E+02 -0.53543363305E+02 -0.22707477770E+02  0.71995033514E+02  0.41800000000E+01 0. -1.
        -11    1    3    3    0    0 -0.36613819355E+02  0.40565491212E+02 -0.23722305477E+02  0.59572465302E+02  0.00000000000E+00 0.  1.
         11    1    3    3    0    0  0.52729843189E+02  0.20057653173E+02 -0.40333238149E+02  0.69350673488E+02  0.00000000000E+00 0. -1.
</event>
<event>
 7    1  0.6988825E-006  0.1555272E+03  0.7561462E-02  0.1193841E+00
         -2   -1    0    0    0  501 -0.00000000000E+00  0.00000000000E+00  0.16527809427E+02  0.16527809427E+02  0.00000000000E+00 0.  1.
          2   -1    0    0  501    0  0.00000000000E+00 -0.00000000000E+00 -0.19239876242E+04  0.19239876242E+04  0.00000000000E+00 0. -1.
         23    2    1    2    0    0  0.10066640597E+03 -0.60118337346E+02 -0.46846574636E+03  0.49134357300E+03  0.90611320752E+02 0.  0.
          5    1    1    2  502    0 -0.12684434299E+03  0.36036230048E+02 -0.12381978769E+04  0.12452066303E+04  0.41800000000E+01 0. -1.
         -5    1    1    2    0  502  0.26177937025E+02  0.24082107298E+02 -0.20079619154E+03  0.20396523041E+03  0.41800000000E+01 0. -1.
        -11    1    3    3    0    0  0.65281923519E+02  0.87663926441E+01 -0.15423965551E+03  0.16771538543E+03  0.00000000000E+00 0. -1.
         11    1    3    3    0    0  0.35384482447E+02 -0.68884729990E+02 -0.31422609085E+03  0.32362818757E+03  0.00000000000E+00 0.  1.
</event>
<event>
 7    1  0.6988825E-006  0.1101488E+03  0.7561462E-02  0.1260295E+00
          4   -1    0    0  501    0  0.00000000000E+00  0.00000000000E+00  0.50616837318E+03  0.50616837318E+03  0.00000000000E+00 0. -1.
         -4   -1    0    0    0  501 -0.00000000000E+00 -0.00000000000E+00 -0.26166893768E+02  0.26166893768E+02  0.00000000000E+00 0.  1.
         23    2    1    2    0    0  0.15397998170E+02  0.34836678173E+02  0.18200620739E+03  0.20691096259E+03  0.90747971978E+02 0.  0.
          5    1    1    2  502    0 -0.14790485637E+02 -0.77963346412E+02  0.24141358282E+03  0.25415552762E+03  0.41800000000E+01 0. -1.
         -5    1    1    2    0  502 -0.60751253338E+00  0.43126668239E+02  0.56581689202E+02  0.71268776738E+02  0.41800000000E+01 0. -1.
        -11    1    3    3    0    0  0.51981444668E+02  0.91021372589E+01  0.84334445247E+02  0.99484763395E+02  0.00000000000E+00 0.  1.
         11    1    3    3    0    0 -0.36583446498E+02  0.25734540914E+02  0.97671762140E+02  0.10742619919E+03  0.00000000000E+00 0. -1.
</event>
<event>
 7    1  0.6988825E-006  0.1834551E+03  0.7561462E-02  0.1164501E+00
         -2   -1    0    0    0  501 -0.00000000000E+00  0.00000000000E+00  0.22356587507E+03  0.22356587507E+03  0.00000000000E+00 0.  1.
          2   -1    0    0  501    0  0.00000000000E+00 -0.00000000000E+00 -0.18111206060E+03  0.18111206060E+03  0.00000000000E+00 0. -1.
         23    2    1    2    0    0  0.12550579667E+03  0.10986428139E+03  0.37267157242E+02  0.19612184045E+03  0.96192878995E+02 0.  0.
          5    1    1    2  502    0 -0.22924896427E+02  0.19575210807E+02  0.28515507033E+02  0.41705470812E+02  0.41800000000E+01 0.  1.
         -5    1    1    2    0  502 -0.10258090025E+03 -0.12943949219E+03 -0.23328849801E+02  0.16685062441E+03  0.41800000000E+01 0.  1.
        -11    1    3    3    0    0  0.40636576275E+02  0.61112002694E+02 -0.27924869629E+02  0.78522649907E+02  0.00000000000E+00 0. -1.
         11    1    3    3    0    0  0.84869220397E+02  0.48752278691E+02  0.65192026871E+02  0.11759919054E+03  0.00000000000E+00 0.  1.
</event>
<event>
 7    1  0.6988825E-006  0.9641972E+02  0.7561462E-02  0.1288010E+00
          1   -1    0    0  501    0  0.00000000000E+00  0.00000000000E+00  0.52999986154E+02  0.52999986154E+02  0.00000000000E+00 0. -1.
         -1   -1    0    0    0  501 -0.00000000000E+00 -0.00000000000E+00 -0.28595057565E+03  0.28595057565E+03  0.00000000000E+00 0.  1.
         23    2    1    2    0    0  0.47658222691E+02 -0.27778172226E+02 -0.12771019266E+03  0.16642235866E+03  0.91343172205E+02 0.  0.
          5    1    1    2  502    0 -0.75363720610E+02 -0.66213487493E+01 -0.23169381923E+02  0.79232728731E+02  0.41800000000E+01 0. -1.
         -5    1    1    2    0  502  0.27705497919E+02  0.34399520976E+02 -0.82071014910E+02  0.93295474417E+02  0.41800000000E+01 0. -1.
        -11    1    3    3    0    0  0.51480821800E+02 -0.74477564841E+01 -0.13485284169E+03  0.14453730660E+03  0.00000000000E+00 0.  1.
         11    1    3    3    0    0 -0.38225991091E+01 -0.20330415742E+02  0.71426490237E+01  0.21885052051E+02  0.00000000000E+00 0. -1.
</event>
<event>
 7    1  0.6988825E-006  0.1059250E+03  0.7561462E-02  0.1268308E+00
          2   -1    0    0  501    0  0.00000000000E+00  0.00000000000E+00  0.20499247518E+04  0.20499247518E+04  0.00000000000E+00 0. -1.
         -2   -1    0    0    0  501 -0.00000000000E+00 -0.00000000000E+00 -0.12202743196E+02  0.12202743196E+02  0.00000000000E+00 0.  1.
         23    2    1    2    0    0 -0.21997954189E+02 -0.43576624265E+02  0.23767460464E+03  0.25766298827E+03  0.86707356453E+02 0.  0.
          5    1    1    2  502    0 -0.33023545444E+02  0.47768644819E+02  0.13117166696E+04  0.13130081842E+04  0.41800000000E+01 0. -1.
         -5    1    1    2    0  502  0.55021499634E+02 -0.41920205536E+01  0.48833073433E+03  0.49145632253E+03  0.41800000000E+01 0.  1.
        -11    1    3    3    0    0 -0.20179499017E+01  0.25908853595E+02  0.46432628540E+02  0.53210241585E+02  0.00000000000E+00 0. -1.
         11    1    3    3    0    0 -0.19980004288E+02 -0.69485477860E+02  0.19124197610E+03  0.20445274669E+03  0.00000000000E+00 0.  1.
</event>
<event>
 7    1  0.6988825E-006  0.7821836E+02  0.7561462E-02  0.1334185E+00
          1   -1    0    0  501    0  0.00000000000E+00  0.00000000000E+00  0.51047043238E+03  0.51047043238E+03  0.00000000000E+00 0. -1.
         -1   -1    0    0    0  501 -0.00000000000E+00 -0.00000000000E+00 -0.31859277734E+02  0.31859277734E+02  0.00000000000E+00 0.  1.
         23    2    1    2    0    0 -0.50481347764E+02 -0.34190762583E+01  0.11643727968E+03  0.15583769077E+03  0.90375268792E+02 0.  0.
          5    1    1    2  502    0  0.28890159088E+02 -0.10847842723E+02  0.35869899851E+03  0.36004827582E+03  0.41800000000E+01 0.  1.
         -5    1    1    2    0  502  0.21591188676E+02  0.14266918981E+02  0.34748764529E+01  0.26443743533E+02  0.41800000000E+01 0.  1.
        -11    1    3    3    0    0 -0.12053220483E+02 -0.42557053990E+02  0.29925457368E+02  0.53403332921E+02  0.00000000000E+00 0.  1.
         11    1    3    3    0    0 -0.38428127281E+02  0.39137977732E+02  0.86511822312E+02  0.10243435784E+03  0.00000000000E+00 0. -1.
</event>
<event>
 7    1  0.6988825E-006  0.1091160E+03  0.7561462E-02  0.1262216E+00
          4   -1    0    0  501    0  0.00000000000E+00  0.00000000000E+00  0.32651807326E+03  0.32651807326E+03  0.00000000000E+00 0. -1.
         -4   -1    0    0    0  501 -0.00000000000E+00 -0.00000000000E+00 -0.45890617420E+02  0.45890617420E+02  0.00000000000E+00 0.  1.
         23    2    1    2    0    0 -0.39423014199E+02  0.16364556689E+02  0.63633648868E+02  0.11832998329E+03  0.90170787470E+02 0.  0.
          5    1    1    2  502    0  0.37149677019E+02 -0.64202377654E+02  0.81358613547E+02  0.11017595108E+03  0.41800000000E+01 0. -1.
         -5    1    1    2    0  502  0.22733371805E+01  0.47837820965E+02  0.13563519343E+03  0.14390275630E+03  0.41800000000E+01 0. -1.
        -11    1    3    3    0    0 -0.35035518819E+02  0.50491763630E+02  0.24340993505E+02  0.66101359579E+02  0.00000000000E+00 0.  1.
         11    1    3    3    0    0 -0.43874953803E+01 -0.34127206941E+02  0.39292655362E+02  0.52228623711E+02  0.00000000000E+00 0. -1.
</event>
<event>
 7    1  0.6988825E-006  0.6818144E+02  0.7561462E-02  0.1366389E+00
         -2   -1    0    0    0  501 -0.00000000000E+00  0.00000000000E+00  0.16790153897E+02  0.16790153897E+02  0.00000000000E+00 0.  1.
          2   -1    0    0  501    0  0.00000000000E+00 -0.00000000000E+00 -0.97232984098E+03  0.97232984098E+03  0.00000000000E+00 0. -1.
         23    2    1    2    0    0 -0.29000512055E+02 -0.16132923767E+02 -0.17411025983E+03  0.19704638295E+03  0.86090612296E+02 0.  0.
          5    1    1    2  502    0  0.26660811999E+02  0.29459474912E+02 -0.77581011224E+03  0.77683811840E+03  0.41800000000E+01 0. -1.
         -5    1    1    2    0  502  0.23397000560E+01 -0.13326551145E+02 -0.56193150205E+01  0.15235493529E+02  0.41800000000E+01 0. -1.
        -11    1    3    3    0    0 -0.38514405415E+02 -0.40621992030E+02 -0.69775002853E+02  0.89454215574E+02  0.00000000000E+00 0.  1.
         11    1    3    3    0    0  0.95138933608E+01  0.24489068262E+02 -0.10433525698E+03  0.10759216737E+03  0.00000000000E+00 0. -1.
</event>
<event>
 6    1  0.6988825E-006  0.1235250E+03  0.7561462E-02  0.1237393E+00
          3   -1    0    0  501    0  0.00000000000E+00  0.00000000000E+00  0.55697023989E+02  0.55697023989E+02  0.00000000000E+00 0. -1.
         -3   -1    0    0    0  501 -0.00000000000E+00 -0.00000000000E+00 -0.29449833281E+03  0.29449833281E+03  0.00000000000E+00 0.  1.
          5    1    1    2  502    0 -0.10533172326E+02 -0.43010959144E+02 -0.45626437643E+02  0.63719185005E+02  0.41800000000E+01 0.  1.
         -5    1    1    2    0  502  0.10168411516E+03  0.42009749063E+02 -0.95765618003E+02  0.14592122629E+03  0.41800000000E+01 0.  1.
        -11    1    1    2    0    0 -0.51727225143E+02  0.82674524808E+01 -0.82618307980E+02  0.97825566213E+02  0.00000000000E+00 0.  1.
         11    1    1    2    0    0 -0.39423717686E+02 -0.72662423998E+01 -0.14790945200E+02  0.42729379293E+02  0.00000000000E+00 0. -1.
</event>
<event>
 7    1  0.6988825E-006  0.1204925E+03  0.7561462E-02  0.1242287E+00
          2   -1    0    0  501    0  0.00000000000E+00  0.00000000000E+00  0.40637018437E+03  0.40637018437E+03  0.00000000000E+00 0. -1.
         -2   -1    0    0    0  501 -0.00000000000E+00 -0.00000000000E+00 -0.45713009221E+02  0.45713009221E+02  0.00000000000E+00 0.  1.
         23    2    1    2    0    0 -0.61502214281E+02  0.31695351515E+02  0.87245564381E+02  0.14357174270E+03  0.90630784667E+02 0.  0.
          5    1    1    2  502    0  0.95792520287E+02 -0.42958185923E+02  0.18210357384E+03  0.21023985513E+03  0.41800000000E+01 0.  1.
         -5    1    1    2    0  502 -0.34290306007E+02  0.11262834408E+02  0.91308036934E+02  0.98271595762E+02  0.41800000000E+01 0.  1.
        -11    1    3    3    0    0 -0.34350524728E+02 -0.21031118782E+02  0.27915485871E+01  0.40373992246E+02  0.00000000000E+00 0.  1.
         11    1    3    3    0    0 -0.27151689552E+02  0.52726470298E+02  0.84454015794E+02  0.10319775046E+03  0.00000000000E+00 0. -1.
</event>
<event>
 7    1  0.6988825E-006  0.1049264E+03  0.7561462E-02  0.1270265E+00
         -2   -1    0    0    0  501 -0.00000000000E+00  0.00000000000E+00  0.13100800374E+02  0.13100800374E+02  0.00000000000E+00 0.  1.
          2   -1    0    0  501    0  0.00000000000E+00 -0.00000000000E+00 -0.12118201338E+04  0.12118201338E+04  0.00000000000E+00 0. -1.
         23    2    1    2    0    0  0.14971664980E+02  0.48608918417E+02 -0.33271945195E+03  0.34845610302E+03  0.90180066120E+02 0.  0.
          5    1    1    2  502    0  0.11237819750E+02 -0.71278394353E+02 -0.27198431807E+03  0.28142466091E+03  0.41800000000E+01 0.  1.
         -5    1    1    2    0  502 -0.26209484731E+02  0.22669475936E+02 -0.59401556336E+03  0.59504017019E+03  0.41800000000E+01 0.  1.
        -11    1    3    3    0    0  0.21369629850E+01  0.74098900836E+02 -0.25919262896E+03  0.26958492655E+03  0.00000000000E+00 0.  1.
         11    1    3    3    0    0  0.12834701995E+02 -0.25489982419E+02 -0.73526822989E+02  0.78871176471E+02  0.00000000000E+00 0. -1.
</event>
<event>
 7    1  0.6988825E-006  0.1229826E+03  0.7561462E-02  0.1238256E+00
         -1   -1    0    0    0  501 -0.00000000000E+00  0.00000000000E+00  0.18769652269E+02  0.18769652269E+02  0.00000000000E+00 0.  1.
          1   -1    0    0  501    0  0.00000000000E+00 -0.00000000000E+00 -0.10032217423E+04  0.10032217423E+04  0.00000000000E+00 0. -1.
         23    2    1    2    0    0 -0.80359698509E+02  0.19991696181E+02 -0.38974064832E+03  0.40865207452E+03  0.90782134792E+02 0.  0.
          5    1    1    2  502    0  0.67401427591E+02  0.28934818211E+02 -0.50444497909E+03  0.50976699135E+03  0.41800000000E+01 0. -1.
         -5    1    1    2    0  502  0.12958270918E+02 -0.48926514392E+02 -0.90266462589E+02  0.10357232866E+03  0.41800000000E+01 0. -1.
        -11    1    3    3    0    0 -0.24900730665E+01  0.40985299878E+02 -0.15926783474E+03  0.16447564699E+03  0.00000000000E+00 0. -1.
         11    1    3    3    0    0 -0.77869625443E+02 -0.20993603697E+02 -0.23047281359E+03  0.24417642754E+03  0.00000000000E+00 0.  1.
</event>
<event>
 7    1  0.6988825E-006  0.7336539E+02  0.7561462E-02  0.1349009E+00
          2   -1    0    0  501    0  0.00000000000E+00  0.00000000000E+00  0.80892083498E+03  0.80892083498E+03  0.00000000000E+00 0. -1.
         -2   -1    0    0    0  501 -0.00000000000E+00 -0.00000000000E+00 -0.20301774162E+02  0.20301774162E+02  0.00000000000E+00 0.  1.
         23    2    1    2    0    0 -0.45936371730E+01  0.27293100442E+02  0.14624956452E+03  0.17420206913E+03  0.90506413768E+02 0.  0.
          5    1    1    2  502    0  0.45741098546E+02 -0.30360929917E+02  0.13273546325E+03  0.14370180850E+03  0.41800000000E+01 0.  1.
         -5    1    1    2    0  502 -0.41147461373E+02  0.30678294751E+01  0.50963403305E+03  0.51131873151E+03  0.41800000000E+01 0.  1.
        -11    1    3    3    0    0  0.18191178129E+02  0.18000975187E+02  0.14736437471E+03  0.14957009394E+03  0.00000000000E+00 0. -1.
         11    1    3    3    0    0 -0.22784815302E+02  0.92921252550E+01 -0.11148101834E+01  0.24631975192E+02  0.00000000000E+00 0.  1.
</event>
<event>
 7    1  0.6988825E-006  0.7536696E+02  0.7561462E-02  0.1342738E+00
          1   -1    0    0  501    0  0.00000000000E+00  0.00000000000E+00  0.42489127880E+03  0.42489127880E+03  0.00000000000E+00 0. -1.
         -1   -1    0    0    0  501 -0.00000000000E+00 -0.00000000000E+00 -0.30028566541E+02  0.30028566541E+02  0.00000000000E+00 0.  1.
         23    2    1    2    0    0  0.54404208027E+01 -0.14246067045E+02  0.95238835806E+02  0.12987295012E+03  0.86971252278E+02 0.  0.
          5    1    1    2  502    0  0.13077305339E+02  0.65460152517E+02  0.12095511777E+03  0.13821599183E+03  0.41800000000E+01 0.  1.
         -5    1    1    2    0  502 -0.18517726141E+02 -0.51214085472E+02  0.17866875868E+03  0.18683090339E+03  0.41800000000E+01 0.  1.
        -11    1    3    3    0    0 -0.97273861601E+01 -0.24927962932E+01 -0.14959041767E+02  0.18016908876E+02  0.00000000000E+00 0.  1.
         11    1    3    3    0    0  0.15167806963E+02 -0.11753270751E+02  0.11019787757E+03  0.11185604125E+03  0.00000000000E+00 0. -1.
</event>
<event>
 7    1  0.6988825E-006  0.1460560E+03  0.7561462E-02  0.1205405E+00
         -1   -1    0    0    0  501 -0.00000000000E+00  0.00000000000E+00  0.28198851468E+03  0.28198851468E+03  0.00000000000E+00 0.  1.
          1   -1    0    0  501    0  0.00000000000E+00 -0.00000000000E+00 -0.87141276965E+02  0.87141276965E+02  0.00000000000E+00 0. -1.
         23    2    1    2    0    0 -0.96508531878E+02  0.23526117873E+02  0.15199570410E+03  0.20378945312E+03  0.92520658189E+02 0.  0.
          5    1    1    2  502    0  0.12688015320E+03 -0.20863271224E+02  0.30770576489E+02  0.13228057356E+03  0.41800000000E+01 0. -1.
         -5    1    1    2    0  502 -0.30371621326E+02 -0.26628466484E+01  0.12080957121E+02  0.33059764960E+02  0.41800000000E+01 0. -1.
        -11    1    3    3    0    0  0.22502787170E+01  0.33363351080E+02  0.58805169869E+02  0.67647800799E+02  0.00000000000E+00 0. -1.
         11    1    3    3    0    0 -0.98758810595E+02 -0.98372332068E+01  0.93190534233E+02  0.13614165233E+03  0.00000000000E+00 0.  1.
</event>
<event>
 7    1  0.6988825E-006  0.9430005E+02  0.7561462E-02  0.1292760E+00
          2   -1    0    0  501    0  0.00000000000E+00  0.00000000000E+00  0.22677762698E+04  0.22677762698E+04  0.00000000000E+00 0. -1.
         -2   -1    0    0    0  501 -0.00000000000E+00 -0.00000000000E+00 -0.92173694117E+01  0.92173694117E+01  0.00000000000E+00 0.  1.
         23    2    1    2    0    0  0.32513856292E+01 -0.19359136700E+02  0.29016547730E+03  0.30453203729E+03  0.90323916177E+02 0.  0.
          5    1    1    2  502    0  0.30905984370E+02  0.50178901450E+02  0.52237256291E+03  0.52570302349E+03  0.41800000000E+01 0. -1.
         -5    1    1    2    0  502 -0.34157369999E+02 -0.30819764750E+02  0.14460208602E+04  0.14467585784E+04  0.41800000000E+01 0. -1.
        -11    1    3    3    0    0  0.13310499961E+02 -0.49651316763E+02  0.10822137347E+03  0.11980938336E+03  0.00000000000E+00 0.  1.
         11    1    3    3    0    0 -0.10059114332E+02  0.30292180063E+02  0.18194410383E+03  0.18472265393E+03  0.00000000000E+00 0. -1.
</event>
<event>
 7    1  0.6988825E-006  0.1539673E+03  0.7561462E-02  0.1195681E+00
          1   -1    0    0  501    0  0.00000000000E+00  0.00000000000E+00  0.16469972333E+04  0.16469972333E+04  0.00000000000E+00 0. -1.
         -1   -1    0    0    0  501 -0.00000000000E+00 -0.00000000000E+00 -0.18558687873E+02  0.18558687873E+02  0.00000000000E+00 0.  1.
         23    2    1    2    0    0 -0.11516706145E+03  0.40426620990E+02  0.46654884805E+03  0.49059300487E+03  0.90088318195E+02 0.  0.
          5    1    1    2  502    0 -0.15257573556E+02 -0.31331462453E+02  0.12430510484E+03  0.12916534203E+03  0.41800000000E+01 0. -1.
         -5    1    1    2    0  502  0.13042463500E+03 -0.90951585375E+01  0.10375845926E+04  0.10457975743E+04  0.41800000000E+01 0. -1.
        -11    1    3    3    0    0 -0.11186162541E+02  0.36278501357E+02  0.60529070604E+02  0.71449480623E+02  0.00000000000E+00 0. -1.
         11    1    3    3    0    0 -0.10398089891E+03  0.41481196333E+01  0.40601977745E+03  0.41914352424E+03  0.00000000000E+00 0.  1.
</event>
<event>
 7    1  0.6988825E-006  0.1754333E+03  0.7561462E-02  0.1172297E+00
         -2   -1    0    0    0  501 -0.00000000000E+00  0.00000000000E+00  0.40550523677E+02  0.40550523677E+02  0.00000000000E+00 0.  1.
          2   -1    0    0  501    0  0.00000000000E+00 -0.00000000000E+00 -0.15016103255E+04  0.15016103255E+04  0.00000000000E+00 0. -1.
         23    2    1    2    0    0 -0.64234542219E+01 -0.16676002306E+02 -0.42692654606E+03  0.44529576990E+03  0.12531040316E+03 0.  0.
          5    1    1    2  502    0  0.12012741603E+03  0.65473109322E+01 -0.94322476040E+03  0.95087532536E+03  0.41800000000E+01 0. -1.
         -5    1    1    2    0  502 -0.11370396181E+03  0.10128691373E+02 -0.90908495376E+02  0.14598975393E+03  0.41800000000E+01 0.  1.
        -11    1    3    3    0    0  0.54138966108E+02 -0.33247230663E+01 -0.28931117264E+03  0.29435189154E+03  0.00000000000E+00 0.  1.
         11    1    3    3    0    0 -0.60562420330E+02 -0.13351279239E+02 -0.13761537342E+03  0.15094387836E+03  0.00000000000E+00 0. -1.
</event>
<event>
 7    1  0.6988825E-006  0.6849305E+02  0.7561462E-02  0.1365294E+00
         -1   -1    0    0    0  501 -0.00000000000E+00  0.00000000000E+00  0.13744949644E+03  0.13744949644E+03  0.00000000000E+00 0.  1.
          1   -1    0    0  501    0  0.00000000000E+00 -0.00000000000E+00 -0.19829181179E+03  0.19829181179E+03  0.00000000000E+00 0. -1.
         23    2    1    2    0    0 -0.17204776106E+02  0.11012973740E+02  0.99892185854E+02  0.13789607590E+03  0.92841741917E+02 0.  0.
          5    1    1    2  502    0  0.14138989973E+02 -0.25828025848E+02 -0.17447090429E+03  0.17698747639E+03  0.41800000000E+01 0. -1.
         -5    1    1    2    0  502  0.30657861329E+01  0.14815052108E+02  0.13736403082E+02  0.20857755948E+02  0.41800000000E+01 0.  1.
        -11    1    3    3    0    0 -0.37821512694E+02  0.40600940728E+02  0.77951780733E+02  0.95683767327E+02  0.00000000000E+00 0.  1.
         11    1    3    3    0    0  0.20616736588E+02 -0.29587966988E+02  0.21940405121E+02  0.42212308572E+02  0.00000000000E+00 0. -1.
</event>
<event>
 7    1  0.6988825E-006  0.1899969E+03  0.7561462E-02  0.1158464E+00
          2   -1    0    0  501    0  0.00000000000E+00  0.00000000000E+00  0.61264854641E+03  0.61264854641E+03  0.00000000000E+00 0.  1.
         -2   -1    0    0    0  501 -0.00000000000E+00 -0.00000000000E+00 -0.11004207382E+03  0.11004207382E+03  0.00000000000E+00 0. -1.
         23    2    1    2    0    0  0.12245755363E+03  0.14306728082E+03  0.48235883472E+02  0.21518358604E+03  0.92266873592E+02 0.  0.
          5    1    1    2  502    0 -0.80701397216E+02 -0.89139968929E+02  0.40687141654E+03  0.42428819401E+03  0.41800000000E+01 0.  1.
         -5    1    1    2    0  502 -0.41756156418E+02 -0.53927311895E+02  0.47499172571E+02  0.83218840186E+02  0.41800000000E+01 0.  1.
        -11    1    3    3    0    0  0.55034420891E+02  0.90213267977E+02 -0.17609826046E+02  0.10713228820E+03  0.00000000000E+00 0. -1.
         11    1    3    3    0    0  0.67423132743E+02  0.52854012848E+02  0.65845709517E+02  0.10805129784E+03  0.00000000000E+00 0.  1.
</event>
<event>
 7    1  0.6988825E-006  0.9902462E+02  0.7561462E-02  0.1282361E+00
          2   -1    0    0  501    0  0.00000000000E+00  0.00000000000E+00  0.15500730454E+03  0.15500730454E+03  0.00000000000E+00 0. -1.
         -2   -1    0    0    0  501 -0.00000000000E+00 -0.00000000000E+00 -0.12217878393E+03  0.12217878393E+03  0.00000000000E+00 0.  1.
         23    2    1    2    0    0  0.30414128233E+02  0.15416863636E+02 -0.62823459090E+02  0.11606645490E+03  0.91443622308E+02 0.  0.
          5    1    1    2  502    0 -0.46698645842E+02  0.33033531346E+02  0.57794625487E+01  0.57644187079E+02  0.41800000000E+01 0.  1.
         -5    1    1    2    0  502  0.16284517609E+02 -0.48450394982E+02  0.89872517149E+02  0.10347544649E+03  0.41800000000E+01 0.  1.
        -11    1    3    3    0    0  0.55008880104E+02  0.28065087715E+02 -0.63262054270E+02  0.88406524359E+02  0.00000000000E+00 0.  1.
         11    1    3    3    0    0 -0.24594751871E+02 -0.12648224079E+02  0.43859517915E+00  0.27659930543E+02  0.00000000000E+00 0. -1.
</event>
<event>
 7    1  0.6988825E-006  0.1595242E+03  0.7561462E-02  0.1189235E+00
          1   -1    0    0  501    0  0.00000000000E+00  0.00000000000E+00  0.26748829395E+03  0.26748829395E+03  0.00000000000E+00 0. -1.
         -1   -1    0    0    0  501 -0.00000000000E+00 -0.00000000000E+00 -0.99615697957E+02  0.99615697957E+02  0.00000000000E+00 0.  1.
         23    2    1    2    0    0 -0.92694481995E+01  0.12101231655E+03  0.66425031846E+02  0.16537527060E+03  0.90591345302E+02 0.  0.
          5    1    1    2  502    0 -0.56857044752E+01 -0.14498545284E+03  0.78075835181E+02  0.16482238079E+03  0.41800000000E+01 0. -1.
         -5    1    1    2    0  502  0.14955152675E+02  0.23973136297E+02  0.23371728968E+02  0.36906340517E+02  0.41800000000E+01 0. -1.
        -11    1    3    3    0    0  0.22323855219E+02  0.10942214550E+03  0.29688215242E+02  0.11555496771E+03  0.00000000000E+00 0.  1.
         11    1    3    3    0    0 -0.31593303419E+02  0.11590171046E+02  0.36736816604E+02  0.49820302889E+02  0.00000000000E+00 0. -1.
</event>
<event>
 7    1  0.6988825E-006  0.1030757E+03  0.7561462E-02  0.1273958E+00
          1   -1    0    0  501    0  0.00000000000E+00  0.00000000000E+00  0.27629974347E+02  0.27629974347E+02  0.00000000000E+00 0. -1.
         -1   -1    0    0    0  501 -0.00000000000E+00 -0.00000000000E+00 -0.42629477191E+03  0.42629477191E+03  0.00000000000E+00 0.  1.
         23    2    1    2    0    0 -0.82697738974E+00 -0.97035123649E+01 -0.18367715094E+03  0.20500033304E+03  0.90515185056E+02 0.  0.
          5    1    1    2  502    0 -0.55142842234E+02  0.32460293913E+02 -0.12442996971E+03  0.13998104691E+03  0.41800000000E+01 0.  1.
         -5    1    1    2    0  502  0.55969819624E+02 -0.22756781548E+02 -0.90557676915E+02  0.10894336631E+03  0.41800000000E+01 0.  1.
        -11    1    3    3    0    0 -0.64082776731E+01 -0.45138888102E+02 -0.55118265549E+02  0.71530472100E+02  0.00000000000E+00 0. -1.
         11    1    3    3    0    0  0.55813002834E+01  0.35435375737E+02 -0.12855888539E+03  0.13346986094E+03  0.00000000000E+00 0.  1.
</event>
<event>
 7    1  0.6988825E-006  0.9814486E+02  0.7561462E-02  0.1284246E+00
         -2   -1    0    0    0  501 -0.00000000000E+00  0.00000000000E+00  0.67185219701E+02  0.67185219701E+02  0.00000000000E+00 0.  1.
          2   -1    0    0  501    0  0.00000000000E+00 -0.00000000000E+00 -0.48716250739E+03  0.48716250739E+03  0.00000000000E+00 0. -1.
         23    2    1    2    0    0  0.53493754493E+02  0.28572462197E+02  0.46001893966E+01  0.11112219431E+03  0.93000069680E+02 0.  0.
          5    1    1    2  502    0 -0.44002508122E+02 -0.67739464755E+02 -0.21378808877E+03  0.22857750350E+03  0.41800000000E+01 0. -1.
         -5    1    1    2    0  502 -0.94912463708E+01  0.39167002558E+02 -0.21078938831E+03  0.21464802928E+03  0.41800000000E+01 0.  1.
        -11    1    3    3    0    0  0.45545843221E+02  0.40236790586E+02 -0.34269025303E+02  0.69769543832E+02  0.00000000000E+00 0.  1.
         11    1    3    3    0    0  0.79479112716E+01 -0.11664328389E+02  0.38869214700E+02  0.41352650480E+02  0.00000000000E+00 0. -1.
</event>
<event>
 7    1  0.6988825E-006  0.1344149E+03  0.7561462E-02  0.1221048E+00
         -2   -1    0    0    0  501 -0.00000000000E+00  0.00000000000E+00  0.11147685080E+03  0.11147685080E+03  0.00000000000E+00 0. -1.
          2   -1    0    0  501    0  0.00000000000E+00 -0.00000000000E+00 -0.25811831124E+03  0.25811831124E+03  0.00000000000E+00 0.  1.
         23    2    1    2    0    0 -0.11274936843E+03  0.51212357062E+02 -0.35871884125E+02  0.16162126811E+03  0.97465463819E+02 0.  0.
          5    1    1    2  502    0  0.11932639986E+03 -0.36793048543E+02 -0.13160392140E+03  0.18146510037E+03  0.41800000000E+01 0.  1.
         -5    1    1    2    0  502 -0.65770314263E+01 -0.14419308518E+02  0.20834345090E+02  0.26508793558E+02  0.41800000000E+01 0.  1.
        -11    1    3    3    0    0 -0.35920667885E+02  0.32462074646E+02  0.31474862812E+02  0.57747274054E+02  0.00000000000E+00 0.  1.
         11    1    3    3    0    0 -0.76828700545E+02  0.18750282416E+02 -0.67346746937E+02  0.10387399406E+03  0.00000000000E+00 0. -1.
</event>
<event>
 7    1  0.6988825E-006  0.1736083E+03  0.7561462E-02  0.1174136E+00
          2   -1    0    0  501    0  0.00000000000E+00  0.00000000000E+00  0.37880897842E+03  0.37880897842E+03  0.00000000000E+00 0. -1.
         -2   -1    0    0    0  501 -0.00000000000E+00 -0.00000000000E+00 -0.11056843815E+03  0.11056843815E+03  0.00000000000E+00 0.  1.
         23    2    1    2    0    0  0.12959467938E+03  0.82217565056E+02  0.33618459214E+02  0.18236671042E+03  0.92589995915E+02 0.  0.
          5    1    1    2  502    0 -0.26932321034E+01 -0.50936104873E+02  0.12944447248E+03  0.13919441129E+03  0.41800000000E+01 0. -1.
         -5    1    1    2    0  502 -0.12690144728E+03 -0.31281460183E+02  0.10517760858E+03  0.16781629486E+03  0.41800000000E+01 0. -1.
        -11    1    3    3    0    0  0.20882228200E+02  0.46279901428E+02  0.44284846164E+02  0.67372430048E+02  0.00000000000E+00 0. -1.
         11    1    3    3    0    0  0.10871245118E+03  0.35937663628E+02 -0.10666386950E+02  0.11499428038E+03  0.00000000000E+00 0.  1.
</event>
<event>
 7    1  0.6988825E-006  0.1044008E+03  0.7561462E-02  0.1271305E+00
         -1   -1    0    0    0  501 -0.00000000000E+00  0.00000000000E+00  0.58366418431E+02  0.58366418431E+02  0.00000000000E+00 0.  1.
          1   -1    0    0  501    0  0.00000000000E+00 -0.00000000000E+00 -0.24092627267E+03  0.24092627267E+03  0.00000000000E+00 0. -1.
         23    2    1    2    0    0 -0.16286710466E+02 -0.17775359840E+02 -0.24830195820E+02  0.96548226237E+02  0.90132130840E+02 0.  0.
          5    1    1    2  502    0  0.46291606031E+02 -0.39682723047E+02 -0.91023406610E+02  0.10963742175E+03  0.41800000000E+01 0.  1.
         -5    1    1    2    0  502 -0.30004895566E+02  0.57458082887E+02 -0.66706251812E+02  0.93107043116E+02  0.41800000000E+01 0.  1.
        -11    1    3    3    0    0  0.39626427551E+01 -0.47005230454E+02 -0.35930161964E+02  0.59297308256E+02  0.00000000000E+00 0. -1.
         11    1    3    3    0    0 -0.20249353221E+02  0.29229870614E+02  0.11099966145E+02  0.37250917981E+02  0.00000000000E+00 0.  1.
</event>
<event>
 7    1  0.6988825E-006  0.9963002E+02  0.7561462E-02  0.1281076E+00
          1   -1    0    0  501    0  0.00000000000E+00  0.00000000000E+00  0.15356827022E+03  0.15356827022E+03  0.00000000000E+00 0. -1.
         -1   -1    0    0    0  501 -0.00000000000E+00 -0.00000000000E+00 -0.15591648659E+03  0.15591648659E+03  0.00000000000E+00 0.  1.
         23    2    1    2    0    0 -0.18528054935E+02  0.38372879864E+00 -0.11030421187E+03  0.14321500576E+03  0.89443181133E+02 0.  0.
          5    1    1    2  502    0 -0.53293763011E+02  0.25301126526E+01  0.56136201420E+02  0.77558830289E+02  0.41800000000E+01 0. -1.
         -5    1    1    2    0  502  0.71821817946E+02 -0.29138414512E+01  0.51819794078E+02  0.88710920767E+02  0.41800000000E+01 0. -1.
        -11    1    3    3    0    0 -0.20821346106E+02  0.34095707357E+02 -0.15992008001E+02  0.43032430024E+02  0.00000000000E+00 0. -1.
         11    1    3    3    0    0  0.22932911706E+01 -0.33711978558E+02 -0.94312203868E+02  0.10018257574E+03  0.00000000000E+00 0.  1.
</event>
<event>
 7    1  0.6988825E-006  0.1972010E+03  0.7561462E-02  0.1152122E+00
          1   -1    0    0  501    0  0.00000000000E+00  0.00000000000E+00  0.10255104086E+03  0.10255104086E+03  0.00000000000E+00 0. -1.
         -1   -1    0    0    0  501 -0.00000000000E+00 -0.00000000000E+00 -0.58816887990E+03  0.58816887990E+03  0.00000000000E+00 0.  1.
         23    2    1    2    0    0  0.91170064290E+02 -0.16397866408E+03 -0.40611154813E+03  0.45163134771E+03  0.61994369227E+02 0.  0.
          5    1    1    2  502    0 -0.94233774339E+02  0.83271268309E+02 -0.20704192740E+00  0.12582378002E+03  0.41800000000E+01 0.  1.
         -5    1    1    2    0  502  0.30637100491E+01  0.80707395774E+02 -0.79299248985E+02  0.11326479304E+03  0.41800000000E+01 0.  1.
        -11    1    3    3    0    0  0.81525154661E+02 -0.14278916153E+03 -0.29146217283E+03  0.33464203813E+03  0.00000000000E+00 0. -1.
         11    1    3    3    0    0  0.96449096288E+01 -0.21189502554E+02 -0.11464937530E+03  0.11698930958E+03  0.00000000000E+00 0.  1.
</event>
<event>
 7    1  0.6988825E-006  0.1171717E+03  0.7561462E-02  0.1247837E+00
         -1   -1    0    0    0  501 -0.00000000000E+00  0.00000000000E+00  0.36414326002E+03  0.36414326002E+03  0.00000000000E+00 0.  1.
          1   -1    0    0  501    0  0.00000000000E+00 -0.00000000000E+00 -0.52650388200E+02  0.52650388200E+02  0.00000000000E+00 0. -1.
         23    2    1    2    0    0  0.29902574112E+02  0.73659012312E+02  0.19273462880E+03  0.22686888531E+03  0.89459711316E+02 0.  0.
          5    1    1    2  502    0 -0.49912097716E+02 -0.98467741361E+01  0.11137171418E+03  0.12251247928E+03  0.41800000000E+01 0.  1.
         -5    1    1    2    0  502  0.20009523604E+02 -0.63812238176E+02  0.73865288330E+01  0.67412283629E+02  0.41800000000E+01 0.  1.
        -11    1    3    3    0    0 -0.29641197509E+02  0.17385717191E+02  0.83739341860E+02  0.90515971669E+02  0.00000000000E+00 0.  1.
         11    1    3    3    0    0  0.59543771621E+02  0.56273295121E+02  0.10899528694E+03  0.13635291364E+03  0.00000000000E+00 0. -1.
</event>
<event>
 7    1  0.6988825E-006  0.7498913E+02  0.7561462E-02  0.1343905E+00
          1   -1    0    0  501    0  0.00000000000E+00  0.00000000000E+00  0.22739185946E+03  0.22739185946E+03  0.00000000000E+00 0. -1.
         -1   -1    0    0    0  501 -0.00000000000E+00 -0.00000000000E+00 -0.51485693767E+02  0.51485693767E+02  0.00000000000E+00 0.  1.
         23    2    1    2    0    0  0.51431438582E+01  0.19642805022E+00  0.70152707248E+02  0.11499292697E+03  0.90969667505E+02 0.  0.
          5    1    1    2  502    0  0.96523460156E+01 -0.53554110998E+02  0.13521985986E+02  0.56227458536E+02  0.41800000000E+01 0.  1.
         -5    1    1    2    0  502 -0.14795489874E+02  0.53357682948E+02  0.92231472460E+02  0.10765716772E+03  0.41800000000E+01 0.  1.
        -11    1    3    3    0    0  0.17470927314E+02  0.13242979884E+02 -0.15904083198E+02  0.27084122282E+02  0.00000000000E+00 0.  1.
         11    1    3    3    0    0 -0.12327783456E+02 -0.13046551834E+02  0.86056790445E+02  0.87908804687E+02  0.00000000000E+00 0. -1.
</event>
<event>
 7    1  0.6988825E-006  0.1269775E+03  0.7561462E-02  0.1232011E+00
         -2   -1    0    0    0  501 -0.00000000000E+00  0.00000000000E+00  0.15004616795E+03  0.15004616795E+03  0.00000000000E+00 0.  1.
          2   -1    0    0  501    0  0.00000000000E+00 -0.00000000000E+00 -0.12180337923E+03  0.12180337923E+03  0.00000000000E+00 0. -1.
         23    2    1    2    0    0 -0.64523491483E+02 -0.45592848126E+02  0.96002346573E+00  0.12140296195E+03  0.92172494655E+02 0.  0.
          5    1    1    2  502    0  0.98006457707E+02  0.12825172796E+02  0.68568343951E+01  0.99167733600E+02  0.41800000000E+01 0.  1.
         -5    1    1    2    0  502 -0.33482966224E+02  0.32767675330E+02  0.20425930858E+02  0.51278851636E+02  0.41800000000E+01 0.  1.
        -11    1    3    3    0    0 -0.79832204424E+02 -0.46960060992E+02  0.22144519062E+02  0.95230288858E+02  0.00000000000E+00 0.  1.
         11    1    3    3    0    0  0.15308712941E+02  0.13672128654E+01 -0.21184495596E+02  0.26172673089E+02  0.00000000000E+00 0. -1.
</event>
<event>
 7    1  0.6988825E-006  0.1599228E+03  0.7561462E-02  0.1188784E+00
          3   -1    0    0  501    0  0.00000000000E+00  0.00000000000E+00  0.96853643247E+03  0.96853643247E+03  0.00000000000E+00 0. -1.
         -3   -1    0    0    0  501 -0.00000000000E+00 -0.00000000000E+00 -0.30625220792E+02  0.30625220792E+02  0.00000000000E+00 0.  1.
         23    2    1    2    0    0 -0.12343754100E+03  0.14263319899E+02  0.29651240585E+03  0.33397017077E+03  0.90422338591E+02 0.  0.
          5    1    1    2  502    0 -0.54149038839E+00  0.34362734960E+02  0.23428232016E+03  0.23682645271E+03  0.41800000000E+01 0.  1.
         -5    1    1    2    0  502  0.12397903139E+03 -0.48626054859E+02  0.40711648567E+03  0.42836502978E+03  0.41800000000E+01 0.  1.
        -11    1    3    3    0    0 -0.79970980605E+02 -0.34119728717E+02  0.19360461695E+03  0.21223162189E+03  0.00000000000E+00 0.  1.
         11    1    3    3    0    0 -0.43466560398E+02  0.48383048616E+02  0.10290778891E+03  0.12173854888E+03  0.00000000000E+00 0. -1.
</event>
<event>
 7    1  0.6988825E-006  0.2247023E+03  0.7561462E-02  0.1130425E+00
          2   -1    0    0  501    0  0.00000000000E+00  0.00000000000E+00  0.81591970371E+03  0.81591970371E+03  0.00000000000E+00 0. -1.
         -2   -1    0    0    0  501 -0.00000000000E+00 -0.00000000000E+00 -0.71753891300E+02  0.71753891300E+02  0.00000000000E+00 0.  1.
         23    2    1    2    0    0  0.19493682355E+03  0.29256496143E+02  0.19892077389E+03  0.29454954877E+03  0.91288852856E+02 0.  0.
          5    1    1    2  502    0 -0.20166904296E+03  0.14815341148E+01  0.47101801444E+03  0.51239441855E+03  0.41800000000E+01 0. -1.
         -5    1    1    2    0  502  0.67322194143E+01 -0.30738030257E+02  0.74227024077E+02  0.80729627682E+02  0.41800000000E+01 0. -1.
        -11    1    3    3    0    0  0.30723045202E+02  0.41088085311E+02  0.34212182791E+02  0.61665303959E+02  0.00000000000E+00 0.  1.
         11    1    3    3    0    0  0.16421377835E+03 -0.11831589168E+02  0.16470859110E+03  0.23288424481E+03  0.00000000000E+00 0. -1.
</event>
<event>
 7    1  0.6988825E-006  0.8154561E+02  0.7561462E-02  0.1324722E+00
          2   -1    0    0  501    0  0.00000000000E+00  0.00000000000E+00  0.32588372202E+03  0.32588372202E+03  0.00000000000E+00 0. -1.
         -2   -1    0    0    0  501 -0.00000000000E+00 -0.00000000000E+00 -0.47387165572E+02  0.47387165572E+02  0.00000000000E+00 0.  1.
         23    2    1    2    0    0 -0.36588409000E+02  0.26398966907E+01  0.43522064372E+02  0.10773245399E+03  0.91468195715E+02 0.  0.
          5    1    1    2  502    0  0.51329314782E+02 -0.17122097026E+02  0.23811609640E+03  0.24422246524E+03  0.41800000000E+01 0. -1.
         -5    1    1    2    0  502 -0.14740905782E+02  0.14482200335E+02 -0.31416043197E+01  0.21315968370E+02  0.41800000000E+01 0.  1.
        -11    1    3    3    0    0 -0.59096190135E+02  0.16433927617E+02  0.56918517907E+01  0.61602198355E+02  0.00000000000E+00 0.  1.
         11    1    3    3    0    0  0.22507781135E+02 -0.13794030926E+02  0.37830212581E+02  0.46130255633E+02  0.00000000000E+00 0. -1.
</event>
<event>
 7    1  0.6988825E-006  0.5844605E+02  0.7561462E-02  0.1404471E+00
          2   -1    0    0  501    0  0.00000000000E+00  0.00000000000E+00  0.68946291357E+03  0.68946291357E+03  0.00000000000E+00 0. -1.
         -2   -1    0    0    0  501 -0.00000000000E+00 -0.00000000000E+00 -0.19181888279E+02  0.19181888279E+02  0.00000000000E+00 0.  1.
         23    2    1    2    0    0  0.12418678013E+02 -0.43427915689E+02  0.26938405148E+03  0.28626317253E+03  0.85665800247E+02 0.  0.
          5    1    1    2  502    0 -0.14871579167E+02  0.25305785637E+02  0.40246650448E+03  0.40355706695E+03  0.41800000000E+01 0. -1.
         -5    1    1    2    0  502  0.24529011544E+01  0.18122130051E+02 -0.15695306752E+01  0.18824562364E+02  0.41800000000E+01 0. -1.
        -11    1    3    3    0    0  0.20232733714E+02  0.38242007017E+01  0.10742740915E+02  0.23224868286E+02  0.00000000000E+00 0.  1.
         11    1    3    3    0    0 -0.78140557013E+01 -0.47252116390E+02  0.25864131056E+03  0.26303830424E+03  0.00000000000E+00 0. -1.
</event>
<event>
 7    1  0.6988825E-006  0.2048487E+03  0.7561462E-02  0.1145711E+00
         -2   -1    0    0    0  501 -0.00000000000E+00  0.00000000000E+00  0.34959212793E+02  0.34959212793E+02  0.00000000000E+00 0.  1.
          2   -1    0    0  501    0  0.00000000000E+00 -0.00000000000E+00 -0.15866952802E+04  0.15866952802E+04  0.00000000000E+00 0. -1.
         23    2    1    2    0    0 -0.86445115679E+02  0.17051866976E+03 -0.46152500819E+03  0.50776187081E+03  0.90925296292E+02 0.  0.
          5    1    1    2  502    0  0.13623348359E+02  0.60458814051E+01 -0.14044767375E+02  0.20901583507E+02  0.41800000000E+01 0. -1.
         -5    1    1    2    0  502  0.72821767320E+02 -0.17656455116E+03 -0.10761662918E+04  0.10929910386E+04  0.41800000000E+01 0. -1.
        -11    1    3    3    0    0 -0.90667541575E+02  0.11016138952E+03 -0.38243718534E+03  0.40818419318E+03  0.00000000000E+00 0. -1.
         11    1    3    3    0    0  0.42224258957E+01  0.60357280242E+02 -0.79087822852E+02  0.99577677630E+02  0.00000000000E+00 0.  1.
</event>
<event>
 7    1  0.6988825E-006  0.1006180E+03  0.7561462E-02  0.1279002E+00
         -2   -1    0    0    0  501 -0.00000000000E+00  0.00000000000E+00  0.16599500099E+03  0.16599500099E+03  0.00000000000E+00 0.  1.
          2   -1    0    0  501    0  0.00000000000E+00 -0.00000000000E+00 -0.53508587055E+03  0.53508587055E+03  0.00000000000E+00 0. -1.
         23    2    1    2    0    0 -0.43971012528E+01 -0.30352662400E+02  0.14437116064E+03  0.17350393058E+03  0.91213832759E+02 0.  0.
          5    1    1    2  502    0  0.52540565404E+02  0.24474055564E+02 -0.39875948325E+03  0.40297157256E+03  0.41800000000E+01 0. -1.
         -5    1    1    2    0  502 -0.48143464151E+02  0.58786068352E+01 -0.11470254695E+03  0.12460536841E+03  0.41800000000E+01 0.  1.
        -11    1    3    3    0    0 -0.46496976192E+02 -0.22350481611E+02  0.95195538593E+02  0.10827605179E+03  0.00000000000E+00 0.  1.
         11    1    3    3    0    0  0.42099874939E+02 -0.80021807891E+01  0.49175622050E+02  0.65227878788E+02  0.00000000000E+00 0. -1.
</event>
<event>
 7    1  0.6988825E-006  0.1007101E+03  0.7561462E-02  0.1278810E+00
         -1   -1    0    0    0  501 -0.00000000000E+00  0.00000000000E+00  0.24930315833E+02  0.24930315833E+02  0.00000000000E+00 0.  1.
          1   -1    0    0  501    0  0.00000000000E+00 -0.00000000000E+00 -0.59953357828E+03  0.59953357828E+03  0.00000000000E+00 0. -1.
         23    2    1    2    0    0  0.30599886571E+01  0.49347913947E+02 -0.20109753151E+03  0.22747774684E+03  0.94134626926E+02 0.  0.
          5    1    1    2  502    0  0.20961383099E+02  0.38068362225E+02 -0.11448953216E+03  0.12253124156E+03  0.41800000000E+01 0.  1.
         -5    1    1    2    0  502 -0.24021371756E+02 -0.87416276173E+02 -0.25901619878E+03  0.27445490572E+03  0.41800000000E+01 0.  1.
        -11    1    3    3    0    0 -0.61564560959E+01  0.55556328621E+02 -0.20733283329E+03  0.21473544505E+03  0.00000000000E+00 0. -1.
         11    1    3    3    0    0  0.92164447529E+01 -0.62084146735E+01  0.62353017784E+01  0.12742301790E+02  0.00000000000E+00 0.  1.
</event>
<event>
 7    1  0.6988825E-006  0.9962937E+02  0.7561462E-02  0.1281077E+00
          1   -1    0    0  501    0  0.00000000000E+00  0.00000000000E+00  0.15736286936E+03  0.15736286936E+03  0.00000000000E+00 0. -1.
         -1   -1    0    0    0  501 -0.00000000000E+00 -0.00000000000E+00 -0.18572971701E+03  0.18572971701E+03  0.00000000000E+00 0.  1.
         23    2    1    2    0    0  0.12382655136E+02  0.17460987139E+02 -0.14382709530E+03  0.17152177622E+03  0.90968511897E+02 0.  0.
          5    1    1    2  502    0 -0.64253135601E+02 -0.28115474698E+01  0.31562569572E+02  0.71763768238E+02  0.41800000000E+01 0. -1.
         -5    1    1    2    0  502  0.51870480465E+02 -0.14649439669E+02  0.83897678078E+02  0.99807041902E+02  0.41800000000E+01 0. -1.
        -11    1    3    3    0    0 -0.34048634970E+01 -0.30276198744E+02 -0.10093281790E+03  0.10543090171E+03  0.00000000000E+00 0.  1.
         11    1    3    3    0    0  0.15787518633E+02  0.47737185883E+02 -0.42894277400E+02  0.66090874516E+02  0.00000000000E+00 0. -1.
</event>
<event>
 7    1  0.6988825E-006  0.1178316E+03  0.7561462E-02  0.1246718E+00
          1   -1    0    0  501    0  0.00000000000E+00  0.00000000000E+00  0.12057009151E+03  0.12057009151E+03  0.00000000000E+00 0. -1.
         -1   -1    0    0    0  501 -0.00000000000E+00 -0.00000000000E+00 -0.16158176925E+03  0.16158176925E+03  0.00000000000E+00 0.  1.
         23    2    1    2    0    0  0.51983054323E+02 -0.43900838432E+02 -0.74624586390E+02  0.13584302936E+03  0.90856910473E+02 0.  0.
          5    1    1    2  502    0 -0.36264159562E+02  0.85845853041E+02  0.59028693338E+01  0.93471471688E+02  0.41800000000E+01 0. -1.
         -5    1    1    2    0  502 -0.15718894761E+02 -0.41945014609E+02  0.27710039317E+02  0.52837359719E+02  0.41800000000E+01 0. -1.
        -11    1    3    3    0    0  0.69406476863E+02 -0.36970312072E+02 -0.83840825973E+02  0.11494932407E+03  0.00000000000E+00 0.  1.
         11    1    3    3    0    0 -0.17423422540E+02 -0.69305263599E+01  0.92162395829E+01  0.20893705288E+02  0.00000000000E+00 0. -1.
</event>
<event>
 7    1  0.6988825E-006  0.1377757E+03  0.7561462E-02  0.1216354E+00
          1   -1    0    0  501    0  0.00000000000E+00  0.00000000000E+00  0.24386067087E+03  0.24386067087E+03  0.00000000000E+00 0. -1.
         -1   -1    0    0    0  501 -0.00000000000E+00 -0.00000000000E+00 -0.94940558194E+02  0.94940558194E+02  0.00000000000E+00 0.  1.
         23    2    1    2    0    0 -0.33238713727E+02  0.10037144026E+03  0.53032149993E+02  0.14901186486E+03  0.90624990074E+02 0.  0.
          5    1    1    2  502    0 -0.23826440375E+02 -0.67248185895E+02 -0.21996974302E+01  0.71500551298E+02  0.41800000000E+01 0.  1.
         -5    1    1    2    0  502  0.57065154102E+02 -0.33123254366E+02  0.98087660112E+02  0.11828881291E+03  0.41800000000E+01 0.  1.
        -11    1    3    3    0    0 -0.57645561390E+02  0.33245371418E+02  0.35687029667E+02  0.75510459906E+02  0.00000000000E+00 0.  1.
         11    1    3    3    0    0  0.24406847663E+02  0.67126068843E+02  0.17345120326E+02  0.73501404954E+02  0.00000000000E+00 0. -1.
</event>
<event>
 7    1  0.6988825E-006  0.9791112E+02  0.7561462E-02  0.1284751E+00
         -1   -1    0    0    0  501 -0.00000000000E+00  0.00000000000E+00  0.14403776592E+03  0.14403776592E+03  0.00000000000E+00 0.  1.
          1   -1    0    0  501    0  0.00000000000E+00 -0.00000000000E+00 -0.11137111070E+03  0.11137111070E+03  0.00000000000E+00 0. -1.
         23    2    1    2    0    0 -0.14178712290E+02  0.12259693673E+02  0.65521693691E+02  0.12472877146E+03  0.10446453041E+03 0.  0.
          5    1    1    2  502    0 -0.16226337014E+02 -0.46623846759E+02  0.25987401233E+02  0.55945460248E+02  0.41800000000E+01 0.  1.
         -5    1    1    2    0  502  0.30405049305E+02  0.34364153086E+02 -0.58842439703E+02  0.74734644916E+02  0.41800000000E+01 0.  1.
        -11    1    3    3    0    0 -0.28609917756E+02 -0.38197659564E+02  0.51905236138E+02  0.70510581679E+02  0.00000000000E+00 0.  1.
         11    1    3    3    0    0  0.14431205465E+02  0.50457353237E+02  0.13616457553E+02  0.54218189781E+02  0.00000000000E+00 0. -1.
</event>
<event>
 7    1  0.6988825E-006  0.7708273E+02  0.7561462E-02  0.1337540E+00
          2   -1    0    0  501    0  0.00000000000E+00  0.00000000000E+00  0.10063607265E+03  0.10063607265E+03  0.00000000000E+00 0.  1.
         -2   -1    0    0    0  501 -0.00000000000E+00 -0.00000000000E+00 -0.15022739748E+03  0.15022739748E+03  0.00000000000E+00 0. -1.
         23    2    1    2    0    0 -0.74610222041E+01  0.58923727154E+02 -0.41056817128E+02  0.11212912075E+03  0.85788140280E+02 0.  0.
          5    1    1    2  502    0 -0.54546164174E+01 -0.36258197333E+02  0.57096897680E+02  0.67984835359E+02  0.41800000000E+01 0. -1.
         -5    1    1    2    0  502  0.12915638621E+02 -0.22665529821E+02 -0.65631405383E+02  0.70749514031E+02  0.41800000000E+01 0. -1.
        -11    1    3    3    0    0 -0.33248005036E+02  0.55680471294E+02 -0.15874673235E+01  0.64871139769E+02  0.00000000000E+00 0.  1.
         11    1    3    3    0    0  0.25786982832E+02  0.32432558604E+01 -0.39469349804E+02  0.47257980978E+02  0.00000000000E+00 0. -1.
</event>
<event>
 7    1  0.6988825E-006  0.1106451E+03  0.7561462E-02  0.1259380E+00
         -1   -1    0    0    0  501 -0.00000000000E+00  0.00000000000E+00  0.31766825114E+02  0.31766825114E+02  0.00000000000E+00 0.  1.
          1   -1    0    0  501    0  0.00000000000E+00 -0.00000000000E+00 -0.68555964482E+03  0.68555964482E+03  0.00000000000E+00 0. -1.
         23    2    1    2    0    0 -0.61016666766E+02 -0.57732148524E+02 -0.12777937639E+03  0.17309722143E+03  0.81111308961E+02 0.  0.
          5    1    1    2  502    0  0.65019740738E+02  0.22111226229E+02 -0.13469631360E+03  0.15125158613E+03  0.41800000000E+01 0. -1.
         -5    1    1    2    0  502 -0.40030739724E+01  0.35620922295E+02 -0.39131712973E+03  0.39297766238E+03  0.41800000000E+01 0.  1.
        -11    1    3    3    0    0  0.13144696756E+02 -0.37190154812E+02 -0.36905427121E+02  0.54017601008E+02  0.00000000000E+00 0.  1.
         11    1    3    3    0    0 -0.74161363522E+02 -0.20541993712E+02 -0.90873949264E+02  0.11907962042E+03  0.00000000000E+00 0. -1.
</event>
<event>
 7    1  0.6988825E-006  0.1068882E+03  0.7561462E-02  0.1266443E+00
         -4   -1    0    0    0  501 -0.00000000000E+00  0.00000000000E+00  0.33343510848E+02  0.33343510848E+02  0.00000000000E+00 0.  1.
          4   -1    0    0  501    0  0.00000000000E+00 -0.00000000000E+00 -0.49608164265E+03  0.49608164265E+03  0.00000000000E+00 0. -1.
         23    2    1    2    0    0 -0.50907007729E+02  0.33969571049E+02 -0.14361504921E+03  0.18124080391E+03  0.92073293892E+02 0.  0.
          5    1    1    2  502    0 -0.21194748135E+02  0.14780033414E+02 -0.11736366183E+02  0.28685909911E+02  0.41800000000E+01 0.  1.
         -5    1    1    2    0  502  0.72101755864E+02 -0.48749604463E+02 -0.30738671641E+03  0.31949843968E+03  0.41800000000E+01 0.  1.
        -11    1    3    3    0    0  0.57313349279E+01  0.42765634721E+02 -0.25930150944E+02  0.50340048084E+02  0.00000000000E+00 0.  1.
         11    1    3    3    0    0 -0.56638342657E+02 -0.87960636722E+01 -0.11768489826E+03  0.13090075582E+03  0.00000000000E+00 0. -1.
</event>
<event>
 7    1  0.6988825E-006  0.1935850E+03  0.7561462E-02  0.1155267E+00
         -1   -1    0    0    0  501 -0.00000000000E+00  0.00000000000E+00  0.66055744993E+02  0.66055744993E+02  0.00000000000E+00 0.  1.
          1   -1    0    0  501    0  0.00000000000E+00 -0.00000000000E+00 -0.77876795585E+03  0.77876795585E+03  0.00000000000E+00 0. -1.
         23    2    1    2    0    0  0.11887237325E+03  0.12335308970E+03 -0.15729656930E+03  0.25028142273E+03  0.92476775412E+02 0.  0.
          5    1    1    2  502    0 -0.90413420931E+01 -0.71183590093E+02 -0.99974124159E+02  0.12313061060E+03  0.41800000000E+01 0. -1.
         -5    1    1    2    0  502 -0.10983103115E+03 -0.52169499611E+02 -0.45544151740E+03  0.47141166751E+03  0.41800000000E+01 0. -1.
        -11    1    3    3    0    0 -0.46037940388E+01  0.49579912031E+02 -0.52203679348E+02  0.72142821778E+02  0.00000000000E+00 0. -1.
         11    1    3    3    0    0  0.12347616729E+03  0.73773177673E+02 -0.10509288995E+03  0.17813860095E+03  0.00000000000E+00 0.  1.
</event>
<event>
 7    1  0.6988825E-006  0.1028411E+03  0.7561462E-02  0.1274433E+00
          1   -1    0    0  501    0  0.00000000000E+00  0.00000000000E+00  0.60346974766E+03  0.60346974766E+03  0.00000000000E+00 0. -1.
         -1   -1    0    0    0  501 -0.00000000000E+00 -0.00000000000E+00 -0.21551799101E+02  0.21551799101E+02  0.00000000000E+00 0.  1.
         23    2    1    2    0    0  0.30383439495E+02  0.75305793419E+01  0.21721368029E+03  0.23819204827E+03  0.92594848304E+02 0.  0.
          5    1    1    2  502    0 -0.17656940952E+02 -0.60042081776E+02  0.27469266132E+03  0.28176293179E+03  0.41800000000E+01 0.  1.
         -5    1    1    2    0  502 -0.12726498542E+02  0.52511502434E+02  0.90011606947E+02  0.10506656670E+03  0.41800000000E+01 0.  1.
        -11    1    3    3    0    0  0.46495016830E+02  0.34122805898E+02  0.18340914760E+03  0.19226301750E+03  0.00000000000E+00 0. -1.
         11    1    3    3    0    0 -0.16111577335E+02 -0.26592226556E+02  0.33804532683E+02  0.45929030768E+02  0.00000000000E+00 0.  1.
</event>
<event>
 7    1  0.6988825E-006  0.2193680E+03  0.7561462E-02  0.1134355E+00
         -2   -1    0    0    0  501 -0.00000000000E+00  0.00000000000E+00  0.42419656989E+03  0.42419656989E+03  0.00000000000E+00 0.  1.
          2   -1    0    0  501    0  0.00000000000E+00 -0.00000000000E+00 -0.30666770368E+03  0.30666770368E+03  0.00000000000E+00 0. -1.
         23    2    1    2    0    0  0.46682730751E+02  0.15044807749E+03  0.30953349347E+03  0.35931015150E+03  0.92080942743E+02 0.  0.
          5    1    1    2  502    0 -0.42358274417E+02  0.47953327870E+02 -0.15754436920E+03  0.17009246230E+03  0.41800000000E+01 0. -1.
         -5    1    1    2    0  502 -0.43244563342E+01 -0.19840140536E+03 -0.34460258054E+02  0.20146165977E+03  0.41800000000E+01 0.  1.
        -11    1    3    3    0    0  0.67324543774E+02  0.91016465970E+02  0.24106916879E+03  0.26632862297E+03  0.00000000000E+00 0. -1.
         11    1    3    3    0    0 -0.20641813023E+02  0.59431611523E+02  0.68464324680E+02  0.92981528526E+02  0.00000000000E+00 0.  1.
</event>
<event>
 7    1  0.6988825E-006  0.2227734E+03  0.7561462E-02  0.1131832E+00
          3   -1    0    0  501    0  0.00000000000E+00  0.00000000000E+00  0.11183558944E+04  0.11183558944E+04  0.00000000000E+00 0. -1.
         -3   -1    0    0    0  501 -0.00000000000E+00 -0.00000000000E+00 -0.48547954717E+02  0.48547954717E+02  0.00000000000E+00 0.  1.
         23    2    1    2    0    0 -0.18392005497E+03  0.78530808509E+02  0.39407760143E+03  0.45118535988E+03  0.90980209480E+02 0.  0.
          5    1    1    2  502    0 -0.62184391293E+01  0.19963280747E+02  0.50308352628E+02  0.54640683630E+02  0.41800000000E+01 0. -1.
         -5    1    1    2    0  502  0.19013849410E+03 -0.98494089256E+02  0.62542198559E+03  0.66107780557E+03  0.41800000000E+01 0. -1.
        -11    1    3    3    0    0 -0.32361974132E+02  0.43976899587E+02  0.16934591297E+03  0.17793061374E+03  0.00000000000E+00 0. -1.
         11    1    3    3    0    0 -0.15155808084E+03  0.34553908922E+02  0.22473168846E+03  0.27325474614E+03  0.00000000000E+00 0.  1.
</event>
<event>
 7    1  0.6988825E-006  0.1031980E+03  0.7561462E-02  0.1273711E+00
          1   -1    0    0  501    0  0.00000000000E+00  0.00000000000E+00  0.11365834073E+03  0.11365834073E+03  0.00000000000E+00 0. -1.
         -1   -1    0    0    0  501 -0.00000000000E+00 -0.00000000000E+00 -0.12686860523E+03  0.12686860523E+03  0.00000000000E+00 0.  1.
         23    2    1    2    0    0 -0.13309550702E+02 -0.50215576289E+02 -0.12822275756E+02  0.10508396891E+03  0.90440486096E+02 0.  0.
          5    1    1    2  502    0 -0.15713902933E+02 -0.21554054401E+02 -0.40094443318E+02  0.48337778098E+02  0.41800000000E+01 0.  1.
         -5    1    1    2    0  502  0.29023453634E+02  0.71769630689E+02  0.39706454574E+02  0.87105198955E+02  0.41800000000E+01 0.  1.
        -11    1    3    3    0    0  0.11717032939E+02  0.22280357780E+02  0.64881730037E+01  0.25996145727E+02  0.00000000000E+00 0. -1.
         11    1    3    3    0    0 -0.25026583641E+02 -0.72495934069E+02 -0.19310448760E+02  0.79087823188E+02  0.00000000000E+00 0.  1.
</event>
<event>
 7    1  0.6988825E-006  0.1239335E+03  0.7561462E-02  0.1236745E+00
         -1   -1    0    0    0  501 -0.00000000000E+00  0.00000000000E+00  0.88126358153E+02  0.88126358153E+02  0.00000000000E+00 0.  1.
          1   -1    0    0  501    0  0.00000000000E+00 -0.00000000000E+00 -0.27321844894E+03  0.27321844894E+03  0.00000000000E+00 0. -1.
         23    2    1    2    0    0  0.75370996409E+02  0.71708703290E+02 -0.44161608569E+02  0.14609558354E+03  0.92578327011E+02 0.  0.
          5    1    1    2  502    0  0.11637168004E+02 -0.11734214831E+02  0.17714538136E+02  0.24584400303E+02  0.41800000000E+01 0. -1.
         -5    1    1    2    0  502 -0.87008164413E+02 -0.59974488459E+02 -0.15864502035E+03  0.19066482324E+03  0.41800000000E+01 0. -1.
        -11    1    3    3    0    0  0.77037588465E+02  0.28991289519E+02 -0.58524883352E+02  0.10099726172E+03  0.00000000000E+00 0. -1.
         11    1    3    3    0    0 -0.16665920563E+01  0.42717413771E+02  0.14363274783E+02  0.45098321818E+02  0.00000000000E+00 0.  1.
</event>
<event>
 7    1  0.6988825E-006  0.1360952E+03  0.7561462E-02  0.1218682E+00
         -1   -1    0    0    0  501 -0.00000000000E+00  0.00000000000E+00  0.53427768460E+02  0.53427768460E+02  0.00000000000E+00 0.  1.
          1   -1    0    0  501    0  0.00000000000E+00 -0.00000000000E+00 -0.60406164942E+03  0.60406164942E+03  0.00000000000E+00 0. -1.
         23    2    1    2    0    0 -0.10190942799E+03  0.25046128037E+02 -0.79701203792E+02  0.15905352728E+03  0.89066843503E+02 0.  0.
          5    1    1    2  502    0  0.12475562122E+03 -0.14311542655E+02 -0.29484939444E+03  0.32050339012E+03  0.41800000000E+01 0. -1.
         -5    1    1    2    0  502 -0.22846193230E+02 -0.10734585381E+02 -0.17608328273E+03  0.17793250048E+03  0.41800000000E+01 0. -1.
        -11    1    3    3    0    0 -0.79885999998E+02 -0.90221755876E+01 -0.13657377879E+02  0.81545671979E+02  0.00000000000E+00 0.  1.
         11    1    3    3    0    0 -0.22023427994E+02  0.34068303624E+02 -0.66043825912E+02  0.77507855302E+02  0.00000000000E+00 0. -1.
</event>
<event>
 7    1  0.6988825E-006  0.1126956E+03  0.7561462E-02  0.1255658E+00
         -1   -1    0    0    0  501 -0.00000000000E+00  0.00000000000E+00  0.38249470712E+03  0.38249470712E+03  0.00000000000E+00 0.  1.
          1   -1    0    0  501    0  0.00000000000E+00 -0.00000000000E+00 -0.74484172571E+02  0.74484172571E+02  0.00000000000E+00 0. -1.
         23    2    1    2    0    0  0.37898903332E+02 -0.68646831507E+02  0.28209966534E+03  0.30708674419E+03  0.92592294076E+02 0.  0.
          5    1    1    2  502    0 -0.45662217192E+02  0.32441856297E+00 -0.35197567767E+02  0.57805575017E+02  0.41800000000E+01 0.  1.
         -5    1    1    2    0  502  0.77633138605E+01  0.68322412944E+02  0.61108436981E+02  0.92086560489E+02  0.41800000000E+01 0.  1.
        -11    1    3    3    0    0  0.21235726812E+02  0.14586685538E+02  0.23352881074E+02  0.34771892998E+02  0.00000000000E+00 0. -1.
         11    1    3    3    0    0  0.16663176519E+02 -0.83233517044E+02  0.25874678426E+03  0.27231485119E+03  0.00000000000E+00 0.  1.
</event>
<event>
 7    1  0.6988825E-006  0.2351615E+03  0.7561462E-02  0.1123059E+00
          1   -1    0    0  501    0  0.00000000000E+00  0.00000000000E+00  0.78642128588E+03  0.78642128588E+03  0.00000000000E+00 0. -1.
         -1   -1    0    0    0  501 -0.00000000000E+00 -0.00000000000E+00 -0.84327213256E+02  0.84327213256E+02  0.00000000000E+00 0.  1.
         23    2    1    2    0    0  0.22284558566E+03 -0.33513943333E+02  0.24448882570E+03  0.34554973039E+03  0.94055785762E+02 0.  0.
          5    1    1    2  502    0 -0.11457135808E+03  0.52275436071E+02  0.34726301314E+03  0.36941628281E+03  0.41800000000E+01 0.  1.
         -5    1    1    2    0  502 -0.10827422758E+03 -0.18761492738E+02  0.11034223378E+03  0.15578248594E+03  0.41800000000E+01 0.  1.
        -11    1    3    3    0    0  0.16616222703E+03  0.42930457689E+01  0.21382927978E+03  0.27083440849E+03  0.00000000000E+00 0. -1.
         11    1    3    3    0    0  0.56683358626E+02 -0.37806989102E+02  0.30659545928E+02  0.74715321900E+02  0.00000000000E+00 0.  1.
</event>
<event>
 7    1  0.6988825E-006  0.8157536E+02  0.7561462E-02  0.1324639E+00
         -2   -1    0    0    0  501 -0.00000000000E+00  0.00000000000E+00  0.33232213903E+02  0.33232213903E+02  0.00000000000E+00 0.  1.
          2   -1    0    0  501    0  0.00000000000E+00 -0.00000000000E+00 -0.39378850638E+03  0.39378850638E+03  0.00000000000E+00 0. -1.
         23    2    1    2    0    0 -0.24189064687E+02  0.24476766270E+01 -0.99141402614E+02  0.13620012856E+03  0.90168483050E+02 0.  0.
          5    1    1    2  502    0  0.46865887239E+02 -0.50056278520E+01 -0.26332432880E+03  0.26754185137E+03  0.41800000000E+01 0.  1.
         -5    1    1    2    0  502 -0.22676822552E+02  0.25579512251E+01  0.19094389360E+01  0.23278740356E+02  0.41800000000E+01 0.  1.
        -11    1    3    3    0    0  0.29250972130E+02 -0.19184230713E+02 -0.29246469654E+02  0.45596162841E+02  0.00000000000E+00 0. -1.
         11    1    3    3    0    0 -0.53440036817E+02  0.21631907340E+02 -0.69894932960E+02  0.90603965716E+02  0.00000000000E+00 0.  1.
</event>
<event>
 7    1  0.6988825E-006  0.1557480E+03  0.7561462E-02  0.1193583E+00
          2   -1    0    0  501    0  0.00000000000E+00  0.00000000000E+00  0.89362158812E+02  0.89362158812E+02  0.00000000000E+00 0. -1.
         -2   -1    0    0    0  501 -0.00000000000E+00 -0.00000000000E+00 -0.56983241648E+03  0.56983241648E+03  0.00000000000E+00 0.  1.
         23    2    1    2    0    0  0.30737503302E+02  0.45550786420E+02 -0.39952827557E+03  0.41654010914E+03  0.10422644236E+03 0.  0.
          5    1    1    2  502    0 -0.82729815973E+01  0.78470296030E+02  0.19555439043E+02  0.81399736975E+02  0.41800000000E+01 0. -1.
         -5    1    1    2    0  502 -0.22464521705E+02 -0.12402108245E+03 -0.10049742115E+03  0.16125472918E+03  0.41800000000E+01 0.  1.
        -11    1    3    3    0    0  0.11616443011E+02  0.72446384475E+02 -0.34570878244E+03  0.35340908679E+03  0.00000000000E+00 0. -1.
         11    1    3    3    0    0  0.19121060291E+02 -0.26895598055E+02 -0.53819493129E+02  0.63131022343E+02  0.00000000000E+00 0.  1.
</event>
<event>
 7    1  0.6988825E-006  0.3097819E+03  0.7561462E-02  0.1080450E+00
          1   -1    0    0  501    0  0.00000000000E+00  0.00000000000E+00  0.24638767244E+04  0.24638767244E+04  0.00000000000E+00 0. -1.
         -1   -1    0    0    0  501 -0.00000000000E+00 -0.00000000000E+00 -0.12742921194E+03  0.12742921194E+03  0.00000000000E+00 0.  1.
         23    2    1    2    0    0 -0.20192766432E+03  0.20123413008E+03  0.78502943140E+02  0.30885266867E+03  0.89203711433E+02 0.  0.
          5    1    1    2  502    0  0.22673164866E+03 -0.20573340898E+03  0.21382828656E+04  0.21600936466E+04  0.41800000000E+01 0. -1.
         -5    1    1    2    0  502 -0.24803984338E+02  0.44992789025E+01  0.11966170371E+03  0.12235962114E+03  0.41800000000E+01 0.  1.
        -11    1    3    3    0    0 -0.27010931295E+02  0.10374962826E+02  0.36502560077E+02  0.46579686080E+02  0.00000000000E+00 0. -1.
         11    1    3    3    0    0 -0.17491673303E+03  0.19085916726E+03  0.42000383063E+02  0.26227298259E+03  0.00000000000E+00 0.  1.
</event>
<event>
 7    1  0.6988825E-006  0.6836319E+02  0.7561462E-02  0.1365749E+00
         -2   -1    0    0    0  501 -0.00000000000E+00  0.00000000000E+00  0.81815688369E+02  0.81815688369E+02  0.00000000000E+00 0.  1.
          2   -1    0    0  501    0  0.00000000000E+00 -0.00000000000E+00 -0.16887867771E+03  0.16887867771E+03  0.00000000000E+00 0. -1.
         23    2    1    2    0    0 -0.54328776511E+01  0.32827851329E+02 -0.43823973554E+01  0.97100281263E+02  0.91115724397E+02 0.  0.
          5    1    1    2  502    0 -0.21897666769E+02 -0.59468019897E+00  0.27562503694E+02  0.35454554917E+02  0.41800000000E+01 0. -1.
         -5    1    1    2    0  502  0.27330544420E+02 -0.32233171130E+02 -0.11024309568E+03  0.11813952990E+03  0.41800000000E+01 0. -1.
        -11    1    3    3    0    0  0.27199771427E+02  0.23401413825E+01  0.30131106865E+02  0.40659407623E+02  0.00000000000E+00 0.  1.
         11    1    3    3    0    0 -0.32632649078E+02  0.30487709946E+02 -0.34513504220E+02  0.56440873640E+02  0.00000000000E+00 0. -1.
</event>
<event>
 7    1  0.6988825E-006  0.1097009E+03  0.7561462E-02  0.1261125E+00
         -2   -1    0    0    0  501 -0.00000000000E+00  0.00000000000E+00  0.39734261328E+02  0.39734261328E+02  0.00000000000E+00 0.  1.
          2   -1    0    0  501    0  0.00000000000E+00 -0.00000000000E+00 -0.46007619337E+03  0.46007619337E+03  0.00000000000E+00 0. -1.
         23    2    1    2    0    0  0.18957265165E+02  0.62675844525E+02 -0.75301055108E+02  0.12699889257E+03  0.78554633369E+02 0.  0.
          5    1    1    2  502    0 -0.59132305120E+02 -0.61691194684E+02 -0.14194414677E+03  0.16573486722E+03  0.41800000000E+01 0.  1.
         -5    1    1    2    0  502  0.40175039955E+02 -0.98464984109E+00 -0.20309673016E+03  0.20707669491E+03  0.41800000000E+01 0.  1.
        -11    1    3    3    0    0  0.42780534366E+02  0.51997753702E+02 -0.27903952496E+02  0.72887386259E+02  0.00000000000E+00 0.  1.
         11    1    3    3    0    0 -0.23823269202E+02  0.10678090823E+02 -0.47397102612E+02  0.54111506310E+02  0.00000000000E+00 0. -1.
</event>
<event>
 7    1  0.6988825E-006  0.1161385E+03  0.7561462E-02  0.1249607E+00
         -1   -1    0    0    0  501 -0.00000000000E+00  0.00000000000E+00  0.12367402094E+02  0.12367402094E+02  0.00000000000E+00 0.  1.
          1   -1    0    0  501    0  0.00000000000E+00 -0.00000000000E+00 -0.13370381087E+04  0.13370381087E+04  0.00000000000E+00 0. -1.
         23    2    1    2    0    0 -0.11835593052E+02 -0.56621440136E+02 -0.38049680180E+03  0.39522639139E+03  0.89888906548E+02 0.  0.
          5    1    1    2  502    0  0.41359564154E+02  0.86235459110E+02 -0.64310162671E+03  0.65018792871E+03  0.41800000000E+01 0. -1.
         -5    1    1    2    0  502 -0.29523971102E+02 -0.29614018974E+02 -0.30107227807E+03  0.30399119068E+03  0.41800000000E+01 0. -1.
        -11    1    3    3    0    0 -0.14275689125E+02  0.16237052963E+02 -0.28569620196E+02  0.35828206585E+02  0.00000000000E+00 0.  1.
         11    1    3    3    0    0  0.24400960730E+01 -0.72858493099E+02 -0.35192718161E+03  0.35939818480E+03  0.00000000000E+00 0. -1.
</event>
<event>
 7    1  0.6988825E-006  0.1314898E+03  0.7561462E-02  0.1225262E+00
          1   -1    0    0  501    0  0.00000000000E+00  0.00000000000E+00  0.79681863936E+02  0.79681863936E+02  0.00000000000E+00 0. -1.
         -1   -1    0    0    0  501 -0.00000000000E+00 -0.00000000000E+00 -0.32025878036E+03  0.32025878036E+03  0.00000000000E+00 0.  1.
         23    2    1    2    0    0 -0.78235289571E+02 -0.87974024185E+02 -0.11140011155E+03  0.18501062087E+03  0.89211857479E+02 0.  0.
          5    1    1    2  502    0  0.36468646504E+02  0.60480077815E+02 -0.14580965429E+03  0.16206705302E+03  0.41800000000E+01 0. -1.
         -5    1    1    2    0  502  0.41766643067E+02  0.27493946370E+02  0.16632849422E+02  0.52862970404E+02  0.41800000000E+01 0. -1.
        -11    1    3    3    0    0  0.89926407764E+01 -0.42968620552E+02 -0.12438481321E+02  0.45627686308E+02  0.00000000000E+00 0. -1.
         11    1    3    3    0    0 -0.87227930347E+02 -0.45005403633E+02 -0.98961630227E+02  0.13938293456E+03  0.00000000000E+00 0.  1.
</event>
<event>
 7    1  0.6988825E-006  0.2480249E+03  0.7561462E-02  0.1114559E+00
          2   -1    0    0  501    0  0.00000000000E+00  0.00000000000E+00  0.17142156631E+04  0.17142156631E+04  0.00000000000E+00 0. -1.
         -2   -1    0    0    0  501 -0.00000000000E+00 -0.00000000000E+00 -0.45980717208E+02  0.45980717208E+02  0.00000000000E+00 0.  1.
         23    2    1    2    0    0  0.23982104043E+03 -0.57886655648E+02  0.58968282095E+03  0.64673881320E+03  0.98388347096E+02 0.  0.
          5    1    1    2  502    0 -0.15625738684E+03  0.47311982738E+02  0.91481097783E+03  0.92927465919E+03  0.41800000000E+01 0.  1.
         -5    1    1    2    0  502 -0.83563653593E+02  0.10574672909E+02  0.16374114708E+03  0.18418290788E+03  0.41800000000E+01 0.  1.
        -11    1    3    3    0    0  0.37493601216E+02 -0.20211227146E+02  0.21572241018E+03  0.21988729406E+03  0.00000000000E+00 0. -1.
         11    1    3    3    0    0  0.20232743922E+03 -0.37675428501E+02  0.37396041077E+03  0.42685151915E+03  0.00000000000E+00 0.  1.
</event>
<event>
 7    1  0.6988825E-006  0.1945440E+03  0.7561462E-02  0.1154426E+00
         -2   -1    0    0    0  501 -0.00000000000E+00  0.00000000000E+00  0.67164302424E+02  0.67164302424E+02  0.00000000000E+00 0.  1.
          2   -1    0    0  501    0  0.00000000000E+00 -0.00000000000E+00 -0.64087629643E+03  0.64087629643E+03  0.00000000000E+00 0. -1.
         23    2    1    2    0    0 -0.12531985955E+03  0.10641442168E+03 -0.16545620569E+03  0.25049351849E+03  0.91335373567E+02 0.  0.
          5    1    1    2  502    0  0.67462077759E+02  0.13989690809E+02 -0.18355319410E+03  0.19610224590E+03  0.41800000000E+01 0.  1.
         -5    1    1    2    0  502  0.57857781790E+02 -0.12040411249E+03 -0.22470259422E+03  0.26144483446E+03  0.41800000000E+01 0.  1.
        -11    1    3    3    0    0 -0.84224729854E+02  0.14140654452E+02 -0.92458739702E+02  0.12586652365E+03  0.00000000000E+00 0. -1.
         11    1    3    3    0    0 -0.41095129696E+02  0.92273767227E+02 -0.72997465983E+02  0.12462699484E+03  0.00000000000E+00 0.  1.
</event>
<event>
 7    1  0.6988825E-006  0.1041800E+03  0.7561462E-02  0.1271744E+00
         -2   -1    0    0    0  501 -0.00000000000E+00  0.00000000000E+00  0.23336656916E+02  0.23336656916E+02  0.00000000000E+00 0.  1.
          2   -1    0    0  501    0  0.00000000000E+00 -0.00000000000E+00 -0.94960682960E+03  0.94960682960E+03  0.00000000000E+00 0. -1.
         23    2    1    2    0    0 -0.39647090074E+02  0.30651944348E+02 -0.14569992893E+03  0.18082437212E+03  0.94644338543E+02 0.  0.
          5    1    1    2  502    0 -0.39836821704E+02 -0.37505342311E+02 -0.31369469340E+03  0.31845793464E+03  0.41800000000E+01 0.  1.
         -5    1    1    2    0  502  0.79483911778E+02  0.68533979638E+01 -0.46687555035E+03  0.47366117976E+03  0.41800000000E+01 0.  1.
        -11    1    3    3    0    0 -0.24894156312E+01 -0.14733433902E+02  0.75437563951E+01  0.16738564015E+02  0.00000000000E+00 0.  1.
         11    1    3    3    0    0 -0.37157674443E+02  0.45385378250E+02 -0.15324368532E+03  0.16408580810E+03  0.00000000000E+00 0. -1.
</event>
<event>
 7    1  0.6988825E-006  0.1442700E+03  0.7561462E-02  0.1207696E+00
          2   -1    0    0  501    0  0.00000000000E+00  0.00000000000E+00  0.73614211696E+02  0.73614211696E+02  0.00000000000E+00 0. -1.
         -2   -1    0    0    0  501 -0.00000000000E+00 -0.00000000000E+00 -0.37360498107E+03  0.37360498107E+03  0.00000000000E+00 0.  1.
         23    2    1    2    0    0  0.81793233548E+02  0.80412519445E+02 -0.20739226499E+03  0.25388268321E+03  0.91041523061E+02 0.  0.
          5    1    1    2  502    0 -0.13635861428E+02 -0.97658787929E+02 -0.61954737042E+02  0.11652912691E+03  0.41800000000E+01 0.  1.
         -5    1    1    2    0  502 -0.68157372120E+02  0.17246268483E+02 -0.30643767342E+02  0.76807382639E+02  0.41800000000E+01 0.  1.
        -11    1    3    3    0    0  0.53515863594E+02  0.29323788232E+02 -0.17867988692E+03  0.18881296089E+03  0.00000000000E+00 0.  1.
         11    1    3    3    0    0  0.28277369954E+02  0.51088731213E+02 -0.28712378071E+02  0.65069722321E+02  0.00000000000E+00 0. -1.
</event>
<event>
 7    1  0.6988825E-006  0.1269181E+03  0.7561462E-02  0.1232102E+00
          1   -1    0    0  501    0  0.00000000000E+00  0.00000000000E+00  0.60483720216E+03  0.60483720216E+03  0.00000000000E+00 0. -1.
         -1   -1    0    0    0  501 -0.00000000000E+00 -0.00000000000E+00 -0.43911110755E+02  0.43911110755E+02  0.00000000000E+00 0.  1.
         23    2    1    2    0    0 -0.64505961305E+02 -0.76260732023E+02  0.12700386447E+03  0.18624112941E+03  0.92623206612E+02 0.  0.
          5    1    1    2  502    0  0.73069724754E+02  0.39629041450E+02  0.40854454640E+03  0.41693616346E+03  0.41800000000E+01 0. -1.
         -5    1    1    2    0  502 -0.85637634482E+01  0.36631690573E+02  0.25377680536E+02  0.45571020046E+02  0.41800000000E+01 0. -1.
        -11    1    3    3    0    0 -0.38490730898E+02  0.12335577413E+02  0.59205184155E+02  0.71686516626E+02  0.00000000000E+00 0. -1.
         11    1    3    3    0    0 -0.26015230408E+02 -0.88596309436E+02  0.67798680313E+02  0.11455461279E+03  0.00000000000E+00 0.  1.
</event>
<event>
 7    1  0.6988825E-006  0.1097316E+03  0.7561462E-02  0.1261068E+00
         -2   -1    0    0    0  501 -0.00000000000E+00  0.00000000000E+00  0.22310205284E+02  0.22310205284E+02  0.00000000000E+00 0.  1.
          2   -1    0    0  501    0  0.00000000000E+00 -0.00000000000E+00 -0.69533691459E+03  0.69533691459E+03  0.00000000000E+00 0. -1.
         23    2    1    2    0    0 -0.10918684918E+02  0.49273720157E+02 -0.20845655096E+03  0.23389086667E+03  0.93293551209E+02 0.  0.
          5    1    1    2  502    0  0.89597210804E+00  0.34598870642E+02 -0.51984874923E+02  0.62592205876E+02  0.41800000000E+01 0. -1.
         -5    1    1    2    0  502  0.10022712810E+02 -0.83872590799E+02 -0.41258528343E+03  0.42116404733E+03  0.41800000000E+01 0. -1.
        -11    1    3    3    0    0  0.21552427962E+02 -0.16188713147E+02 -0.96526395148E+02  0.10021939206E+03  0.00000000000E+00 0.  1.
         11    1    3    3    0    0 -0.32471112880E+02  0.65462433304E+02 -0.11193015581E+03  0.13367147461E+03  0.00000000000E+00 0. -1.
</event>
<event>
 7    1  0.6988825E-006  0.1013262E+03  0.7561462E-02  0.1277532E+00
          2   -1    0    0  501    0  0.00000000000E+00  0.00000000000E+00  0.33430900339E+03  0.33430900339E+03  0.00000000000E+00 0. -1.
         -2   -1    0    0    0  501 -0.00000000000E+00 -0.00000000000E+00 -0.52907758160E+02  0.52907758160E+02  0.00000000000E+00 0.  1.
         23    2    1    2    0    0 -0.30285618837E+02 -0.69923744903E+02  0.13082119679E+03  0.17715117770E+03  0.91988072172E+02 0.  0.
          5    1    1    2  502    0  0.78351479399E+01  0.55554165133E+02 -0.83473645879E+00  0.56265655527E+02  0.41800000000E+01 0. -1.
         -5    1    1    2    0  502  0.22450470897E+02  0.14369579770E+02  0.15141478489E+03  0.15379992832E+03  0.41800000000E+01 0. -1.
        -11    1    3    3    0    0 -0.36531640115E+02  0.11074343584E+02  0.39742472471E+02  0.55105951888E+02  0.00000000000E+00 0.  1.
         11    1    3    3    0    0  0.62460212779E+01 -0.80998088487E+02  0.91078724321E+02  0.12204522582E+03  0.00000000000E+00 0. -1.
</event>
<event>
 7    1  0.6988825E-006  0.1654430E+03  0.7561462E-02  0.1182685E+00
          2   -1    0    0  501    0  0.00000000000E+00  0.00000000000E+00  0.82810100224E+03  0.82810100224E+03  0.00000000000E+00 0. -1.
         -2   -1    0    0    0  501 -0.00000000000E+00 -0.00000000000E+00 -0.41644270356E+02  0.41644270356E+02  0.00000000000E+00 0.  1.
         23    2    1    2    0    0 -0.16932612678E+02  0.13675237379E+03  0.22964534434E+03  0.28265826005E+03  0.90392381788E+02 0.  0.
          5    1    1    2  502    0  0.43502897846E+02 -0.83930313744E+01  0.70237541359E+02  0.83148840718E+02  0.41800000000E+01 0.  1.
         -5    1    1    2    0  502 -0.26570285168E+02 -0.12835934242E+03  0.48657384619E+03  0.50393817184E+03  0.41800000000E+01 0.  1.
        -11    1    3    3    0    0  0.28255466230E+02  0.54498811548E+02  0.47006630224E+02  0.77318271560E+02  0.00000000000E+00 0.  1.
         11    1    3    3    0    0 -0.45188078908E+02  0.82253562242E+02  0.18263871412E+03  0.20533998848E+03  0.00000000000E+00 0. -1.
</event>
<event>
 7    1  0.6988825E-006  0.1578769E+03  0.7561462E-02  0.1191115E+00
          3   -1    0    0  501    0  0.00000000000E+00  0.00000000000E+00  0.25549262191E+03  0.25549262191E+03  0.00000000000E+00 0.  1.
         -3   -1    0    0    0  501 -0.00000000000E+00 -0.00000000000E+00 -0.17295583668E+03  0.17295583668E+03  0.00000000000E+00 0. -1.
         23    2    1    2    0    0  0.57774142417E+02 -0.12806570974E+03 -0.75896572437E+02  0.18250727871E+03  0.88373862264E+02 0.  0.
          5    1    1    2  502    0  0.69037768523E+01  0.47178046562E+02  0.12989579315E+03  0.13843344859E+03  0.41800000000E+01 0. -1.
         -5    1    1    2    0  502 -0.64677919270E+02  0.80887663179E+02  0.28537564521E+02  0.10750773128E+03  0.41800000000E+01 0. -1.
        -11    1    3    3    0    0 -0.18719747934E+02 -0.56376220026E+02 -0.40338623749E+02  0.71804677516E+02  0.00000000000E+00 0. -1.
         11    1    3    3    0    0  0.76493890351E+02 -0.71689489714E+02 -0.35557948688E+02  0.11070260120E+03  0.00000000000E+00 0.  1.
</event>
<event>
 7    1  0.6988825E-006  0.1384197E+03  0.7561462E-02  0.1215471E+00
         -1   -1    0    0    0  501 -0.00000000000E+00  0.00000000000E+00  0.55782128211E+02  0.55782128211E+02  0.00000000000E+00 0.  1.
          1   -1    0    0  501    0  0.00000000000E+00 -0.00000000000E+00 -0.40872632265E+03  0.40872632265E+03  0.00000000000E+00 0. -1.
         23    2    1    2    0    0  0.98844138860E+02  0.38221594537E+02 -0.15133079004E+03  0.20465091728E+03  0.88033719982E+02 0.  0.
          5    1    1    2  502    0  0.20718600887E+02 -0.73362084863E+01  0.11621659616E+01  0.22403200829E+02  0.41800000000E+01 0. -1.
         -5    1    1    2    0  502 -0.11956273975E+03 -0.30885386051E+02 -0.20277557036E+03  0.23745433275E+03  0.41800000000E+01 0. -1.
        -11    1    3    3    0    0  0.50265411518E+02  0.59485905451E+02 -0.57262688324E+02  0.96665402376E+02  0.00000000000E+00 0.  1.
         11    1    3    3    0    0  0.48578727343E+02 -0.21264310914E+02 -0.94068101720E+02  0.10798551491E+03  0.00000000000E+00 0. -1.
</event>
<event>
 7    1  0.6988825E-006  0.1046869E+03  0.7561462E-02  0.1270738E+00
         -3   -1    0    0    0  501 -0.00000000000E+00  0.00000000000E+00  0.21891350134E+02  0.21891350134E+02  0.00000000000E+00 0.  1.
          3   -1    0    0  501    0  0.00000000000E+00 -0.00000000000E+00 -0.67802591293E+03  0.67802591293E+03  0.00000000000E+00 0. -1.
         23    2    1    2    0    0  0.13805698340E+01  0.34198608161E+02 -0.18513134855E+03  0.21138447052E+03  0.96116218130E+02 0.  0.
          5    1    1    2  502    0  0.31739710746E+02  0.38154592295E+02 -0.16802154431E+03  0.17524809244E+03  0.41800000000E+01 0.  1.
         -5    1    1    2    0  502 -0.33120280580E+02 -0.72353200456E+02 -0.30298166994E+03  0.31328470011E+03  0.41800000000E+01 0.  1.
        -11    1    3    3    0    0  0.33317981090E+02  0.34477591069E+02 -0.39002605957E+02  0.61806111520E+02  0.00000000000E+00 0.  1.
         11    1    3    3    0    0 -0.31937411256E+02 -0.27898290811E+00 -0.14612874259E+03  0.14957835900E+03  0.00000000000E+00 0. -1.
</event>
<event>
 7    1  0.6988825E-006  0.1615750E+03  0.7561462E-02  0.1186930E+00
         -1   -1    0    0    0  501 -0.00000000000E+00  0.00000000000E+00  0.86907595925E+02  0.86907595925E+02  0.00000000000E+00 0.  1.
          1   -1    0    0  501    0  0.00000000000E+00 -0.00000000000E+00 -0.32737735850E+03  0.32737735850E+03  0.00000000000E+00 0. -1.
         23    2    1    2    0    0 -0.72835048310E+02  0.93517007788E+02 -0.78602818826E+02  0.17785612428E+03  0.10678961939E+03 0.  0.
          5    1    1    2  502    0  0.62268002437E+02 -0.12449700924E+03 -0.12819847955E+03  0.18928584732E+03  0.41800000000E+01 0. -1.
         -5    1    1    2    0  502  0.10567045873E+02  0.30980001448E+02 -0.33668464205E+02  0.47142982830E+02  0.41800000000E+01 0. -1.
        -11    1    3    3    0    0 -0.26247831046E+01 -0.18500682623E+02  0.74476006087E+01  0.20115454225E+02  0.00000000000E+00 0.  1.
         11    1    3    3    0    0 -0.70210265206E+02  0.11201769041E+03 -0.86050419435E+02  0.15774067006E+03  0.00000000000E+00 0. -1.
</event>
<event>
 7    1  0.6988825E-006  0.1401761E+03  0.7561462E-02  0.1213092E+00
          2   -1    0    0  501    0  0.00000000000E+00  0.00000000000E+00  0.19488325917E+04  0.19488325917E+04  0.00000000000E+00 0. -1.
         -2   -1    0    0    0  501 -0.00000000000E+00 -0.00000000000E+00 -0.12723820084E+02  0.12723820084E+02  0.00000000000E+00 0.  1.
         23    2    1    2    0    0 -0.75201563517E+02  0.48560035276E+02  0.59561436195E+03  0.61226572871E+03  0.10999773729E+03 0.  0.
          5    1    1    2  502    0  0.21088931380E+02  0.35236571692E+02  0.18790286738E+03  0.19238326066E+03  0.41800000000E+01 0.  1.
         -5    1    1    2    0  502  0.54112632137E+02 -0.83796606968E+02  0.11525915422E+04  0.11569074224E+04  0.41800000000E+01 0.  1.
        -11    1    3    3    0    0 -0.25076318212E+02  0.77432193392E+02  0.28900169153E+03  0.30024414068E+03  0.00000000000E+00 0.  1.
         11    1    3    3    0    0 -0.50125245305E+02 -0.28872158115E+02  0.30661267042E+03  0.31202158803E+03  0.00000000000E+00 0. -1.
</event>
<event>
 7    1  0.6988825E-006  0.1029307E+03  0.7561462E-02  0.1274251E+00
          2   -1    0    0  501    0  0.00000000000E+00  0.00000000000E+00  0.14296596411E+04  0.14296596411E+04  0.00000000000E+00 0. -1.
         -2   -1    0    0    0  501 -0.00000000000E+00 -0.00000000000E+00 -0.11014092551E+02  0.11014092551E+02  0.00000000000E+00 0.  1.
         23    2    1    2    0    0 -0.45248195050E+02 -0.21712474568E+02  0.41349289543E+03  0.42652497374E+03  0.91806034366E+02 0.  0.
          5    1    1    2  502    0  0.74319568906E+02  0.14620632000E+02  0.93087652052E+03  0.93396238150E+03  0.41800000000E+01 0.  1.
         -5    1    1    2    0  502 -0.29071373855E+02  0.70918425681E+01  0.74276132608E+02  0.80186378419E+02  0.41800000000E+01 0.  1.
        -11    1    3    3    0    0 -0.36256611316E+01  0.31793089524E+02  0.79046674645E+02  0.85277914682E+02  0.00000000000E+00 0.  1.
         11    1    3    3    0    0 -0.41622533919E+02 -0.53505564091E+02  0.33444622078E+03  0.34124705905E+03  0.00000000000E+00 0. -1.
</event>
<event>
 7    1  0.6988825E-006  0.1046496E+03  0.7561462E-02  0.1270811E+00
         -3   -1    0    0    0  501 -0.00000000000E+00  0.00000000000E+00  0.16249020158E+02  0.16249020158E+02  0.00000000000E+00 0.  1.
          3   -1    0    0  501    0  0.00000000000E+00 -0.00000000000E+00 -0.10124254382E+04  0.10124254382E+04  0.00000000000E+00 0. -1.
         23    2    1    2    0    0 -0.45042797106E+02 -0.34937962949E+01 -0.20243192692E+03  0.22550325668E+03  0.88498438121E+02 0.  0.
          5    1    1    2  502    0  0.37062320424E+02 -0.46392209911E+02 -0.59850849743E+03  0.60146134259E+03  0.41800000000E+01 0. -1.
         -5    1    1    2    0  502  0.79804766819E+01  0.49886006206E+02 -0.19523599373E+03  0.20170985913E+03  0.41800000000E+01 0.  1.
        -11    1    3    3    0    0 -0.60986087016E+02  0.25412566293E+02 -0.14280782390E+03  0.15735048745E+03  0.00000000000E+00 0.  1.
         11    1    3    3    0    0  0.15943289910E+02 -0.28906362588E+02 -0.59624103027E+02  0.68152769225E+02  0.00000000000E+00 0. -1.
</event>
<event>
 7    1  0.6988825E-006  0.8041886E+02  0.7561462E-02  0.1327867E+00
          2   -1    0    0  501    0  0.00000000000E+00  0.00000000000E+00  0.16109860165E+03  0.16109860165E+03  0.00000000000E+00 0. -1.
         -2   -1    0    0    0  501 -0.00000000000E+00 -0.00000000000E+00 -0.10928493692E+03  0.10928493692E+03  0.00000000000E+00 0.  1.
         23    2    1    2    0    0  0.29101959660E+02  0.54254293573E+02 -0.21248807341E+02  0.11296735354E+03  0.92301997406E+02 0.  0.
          5    1    1    2  502    0 -0.46410238908E+02 -0.51158237018E+01  0.90829922649E+02  0.10221364476E+03  0.41800000000E+01 0.  1.
         -5    1    1    2    0  502  0.17308279248E+02 -0.49138469871E+02 -0.17767450576E+02  0.55202540265E+02  0.41800000000E+01 0.  1.
        -11    1    3    3    0    0  0.13044678092E+02  0.20221893619E+02 -0.56496052573E+02  0.61407593703E+02  0.00000000000E+00 0.  1.
         11    1    3    3    0    0  0.16057281568E+02  0.34032399954E+02  0.35247245232E+02  0.51559759837E+02  0.00000000000E+00 0. -1.
</event>
<event>
 7    1  0.6988825E-006  0.1112385E+03  0.7561462E-02  0.1258293E+00
          2   -1    0    0  501    0  0.00000000000E+00  0.00000000000E+00  0.61266251870E+03  0.61266251870E+03  0.00000000000E+00 0. -1.
         -2   -1    0    0    0  501 -0.00000000000E+00 -0.00000000000E+00 -0.21255851187E+02  0.21255851187E+02  0.00000000000E+00 0.  1.
         23    2    1    2    0    0  0.22168867969E+02  0.26506075766E+02  0.22151602888E+03  0.24192309722E+03  0.90903262632E+02 0.  0.
          5    1    1    2  502    0  0.29979486050E+02 -0.60293770020E+02  0.19657694847E+03  0.20783184876E+03  0.41800000000E+01 0. -1.
         -5    1    1    2    0  502 -0.52148354019E+02  0.33787694253E+02  0.17331369016E+03  0.18416342391E+03  0.41800000000E+01 0. -1.
        -11    1    3    3    0    0 -0.46659431590E+01  0.54066302653E+02  0.91970887291E+02  0.10678754711E+03  0.00000000000E+00 0.  1.
         11    1    3    3    0    0  0.26834811128E+02 -0.27560226886E+02  0.12954514159E+03  0.13513555011E+03  0.00000000000E+00 0. -1.
</event>
<event>
 7    1  0.6988825E-006  0.1434123E+03  0.7561462E-02  0.1208810E+00
         -2   -1    0    0    0  501 -0.00000000000E+00  0.00000000000E+00  0.24873220321E+02  0.24873220321E+02  0.00000000000E+00 0. -1.
          2   -1    0    0  501    0  0.00000000000E+00 -0.00000000000E+00 -0.15437152052E+04  0.15437152052E+04  0.00000000000E+00 0.  1.
         23    2    1    2    0    0  0.16542581053E+02  0.13369999058E+03 -0.34588134155E+03  0.38130802535E+03  0.87250004541E+02 0.  0.
          5    1    1    2  502    0 -0.10371578585E+02 -0.79448025309E+02 -0.10452435333E+04  0.10483182125E+04  0.41800000000E+01 0. -1.
         -5    1    1    2    0  502 -0.61710024689E+01 -0.54251965275E+02 -0.12771711006E+03  0.13896218769E+03  0.41800000000E+01 0. -1.
        -11    1    3    3    0    0  0.44014297149E+02  0.90523245994E+02 -0.28218763660E+03  0.29960236760E+03  0.00000000000E+00 0.  1.
         11    1    3    3    0    0 -0.27471716095E+02  0.43176744590E+02 -0.63693704951E+02  0.81705657754E+02  0.00000000000E+00 0. -1.
</event>
<event>
 7    1  0.6988825E-006  0.2492443E+03  0.7561462E-02  0.1113783E+00
         -1   -1    0    0    0  501 -0.00000000000E+00  0.00000000000E+00  0.69986081647E+02  0.69986081647E+02  0.00000000000E+00 0.  1.
          1   -1    0    0  501    0  0.00000000000E+00 -0.00000000000E+00 -0.95747440671E+03  0.95747440671E+03  0.00000000000E+00 0. -1.
         23    2    1    2    0    0  0.23052323493E+03 -0.35255647702E+02 -0.37829042335E+03  0.45360248711E+03  0.90926615362E+02 0.  0.
          5    1    1    2  502    0 -0.21156639298E+03  0.70378015231E+02 -0.45158320002E+03  0.50364497675E+03  0.41800000000E+01 0. -1.
         -5    1    1    2    0  502 -0.18956841949E+02 -0.35122367529E+02 -0.57614701690E+02  0.70213024492E+02  0.41800000000E+01 0. -1.
        -11    1    3    3    0    0  0.19792931418E+03 -0.41332494586E+02 -0.25231861814E+03  0.32334049171E+03  0.00000000000E+00 0.  1.
         11    1    3    3    0    0  0.32593920745E+02  0.60768468842E+01 -0.12597180522E+03  0.13026199540E+03  0.00000000000E+00 0. -1.
</event>
<event>
 7    1  0.6988825E-006  0.1967987E+03  0.7561462E-02  0.1152468E+00
         -1   -1    0    0    0  501 -0.00000000000E+00  0.00000000000E+00  0.11124698313E+03  0.11124698313E+03  0.00000000000E+00 0.  1.
          1   -1    0    0  501    0  0.00000000000E+00 -0.00000000000E+00 -0.39100517732E+03  0.39100517732E+03  0.00000000000E+00 0. -1.
         23    2    1    2    0    0  0.10665419170E+03  0.13842277478E+03 -0.89635775382E+02  0.21532348400E+03  0.88281647860E+02 0.  0.
          5    1    1    2  502    0 -0.50744662621E+02  0.13309301079E+02 -0.55432859844E+02  0.76435807252E+02  0.41800000000E+01 0. -1.
         -5    1    1    2    0  502 -0.55909529082E+02 -0.15173207586E+03 -0.13468955897E+03  0.21049286919E+03  0.41800000000E+01 0. -1.
        -11    1    3    3    0    0  0.90622652128E+02  0.88069150867E+02 -0.10039732932E+03  0.16139474634E+03  0.00000000000E+00 0. -1.
         11    1    3    3    0    0  0.16031539576E+02  0.50353623913E+02  0.10761553936E+02  0.53928737659E+02  0.00000000000E+00 0.  1.
</event>
<event>
 7    1  0.6988825E-006  0.1690883E+03  0.7561462E-02  0.1178802E+00
         -2   -1    0    0    0  501 -0.00000000000E+00  0.00000000000E+00  0.65519212817E+02  0.65519212817E+02  0.00000000000E+00 0.  1.
          2   -1    0    0  501    0  0.00000000000E+00 -0.00000000000E+00 -0.52288518810E+03  0.52288518810E+03  0.00000000000E+00 0. -1.
         23    2    1    2    0    0  0.11092688491E+03 -0.95636669855E+02 -0.16934598069E+03  0.24191754219E+03  0.91623630286E+02 0.  0.
          5    1    1    2  502    0 -0.78260229722E+02  0.11789425740E+03 -0.16606327041E+03  0.21821595190E+03  0.41800000000E+01 0.  1.
         -5    1    1    2    0  502 -0.32666655185E+02 -0.22257587548E+02 -0.12195672419E+03  0.12827090683E+03  0.41800000000E+01 0.  1.
        -11    1    3    3    0    0  0.89561059953E+02 -0.41595053764E+02 -0.15202104971E+03  0.18127805028E+03  0.00000000000E+00 0. -1.
         11    1    3    3    0    0  0.21365824954E+02 -0.54041616091E+02 -0.17324930979E+02  0.60639491910E+02  0.00000000000E+00 0.  1.
</event>
<event>
 7    1  0.6988825E-006  0.1528488E+03  0.7561462E-02  0.1197015E+00
          1   -1    0    0  501    0  0.00000000000E+00  0.00000000000E+00  0.55853511002E+02  0.55853511002E+02  0.00000000000E+00 0. -1.
         -1   -1    0    0    0  501 -0.00000000000E+00 -0.00000000000E+00 -0.47463141438E+03  0.47463141438E+03  0.00000000000E+00 0.  1.
         23    2    1    2    0    0  0.84276775718E+02  0.79485084785E+02 -0.26541175992E+03  0.30368119961E+03  0.91424367980E+02 0.  0.
          5    1    1    2  502    0 -0.11110798850E+03 -0.47641943463E+02 -0.13451454901E+03  0.18090432881E+03  0.41800000000E+01 0. -1.
         -5    1    1    2    0  502  0.26831212785E+02 -0.31843141322E+02 -0.18851594442E+02  0.45899396965E+02  0.41800000000E+01 0.  1.
        -11    1    3    3    0    0  0.10147644490E+03  0.66345314836E+02 -0.24744756415E+03  0.27555301971E+03  0.00000000000E+00 0.  1.
         11    1    3    3    0    0 -0.17199669183E+02  0.13139769949E+02 -0.17964195777E+02  0.28128179895E+02  0.00000000000E+00 0. -1.
</event>
<event>
 7    1  0.6988825E-006  0.1105676E+03  0.7561462E-02  0.1259522E+00
         -1   -1    0    0    0  501 -0.00000000000E+00  0.00000000000E+00  0.46278855312E+02  0.46278855312E+02  0.00000000000E+00 0.  1.
          1   -1    0    0  501    0  0.00000000000E+00 -0.00000000000E+00 -0.57675331159E+03  0.57675331159E+03  0.00000000000E+00 0. -1.
         23    2    1    2    0    0  0.62737091682E+02 -0.68591064327E+02 -0.94986553454E+02  0.16049817145E+03  0.89980780864E+02 0.  0.
          5    1    1    2  502    0 -0.58282073818E+02  0.61063982181E+02 -0.44254501115E+03  0.45054319365E+03  0.41800000000E+01 0.  1.
         -5    1    1    2    0  502 -0.44550178635E+01  0.75270821455E+01  0.70571083289E+01  0.11990801798E+02  0.41800000000E+01 0.  1.
        -11    1    3    3    0    0  0.66987356241E+02 -0.94732548616E+01 -0.35007653801E+02  0.76174695788E+02  0.00000000000E+00 0.  1.
         11    1    3    3    0    0 -0.42502645588E+01 -0.59117809465E+02 -0.59978899653E+02  0.84323475666E+02  0.00000000000E+00 0. -1.
</event>
<event>
 7    1  0.8584912E-006  0.2465103E+03  0.7561462E-02  0.1115530E+00
         -2   -1    0    0    0  501 -0.00000000000E+00  0.00000000000E+00  0.23016690429E+03  0.23016690429E+03  0.00000000000E+00 0.  1.
          2   -1    0    0  501    0  0.00000000000E+00 -0.00000000000E+00 -0.32106468303E+03  0.32106468303E+03  0.00000000000E+00 0. -1.
         23    2    1    2    0    0  0.22759871995E+03 -0.58411479336E+02  0.36627354623E+02  0.25606476354E+03  0.94944835460E+02 0.  0.
          5    1    1    2  502    0 -0.15620508214E+03 -0.10748202876E+02 -0.37641418868E+02  0.16108972769E+03  0.41800000000E+01 0.  1.
         -5    1    1    2    0  502 -0.71393637804E+02  0.69159682211E+02 -0.89883714504E+02  0.13407709609E+03  0.41800000000E+01 0.  1.
        -11    1    3    3    0    0  0.16988145696E+03 -0.29767914768E+02 -0.15528432503E+02  0.17316746341E+03  0.00000000000E+00 0. -1.
         11    1    3    3    0    0  0.57717262990E+02 -0.28643564568E+02  0.52155787127E+02  0.82897300131E+02  0.00000000000E+00 0.  1.
</event>
<event>
 7    1  0.6988825E-006  0.1053135E+03  0.7561462E-02  0.1269503E+00
         -3   -1    0    0    0  501 -0.00000000000E+00  0.00000000000E+00  0.48439131992E+02  0.48439131992E+02  0.00000000000E+00 0.  1.
          3   -1    0    0  501    0  0.00000000000E+00 -0.00000000000E+00 -0.26185757989E+03  0.26185757989E+03  0.00000000000E+00 0. -1.
         23    2    1    2    0    0 -0.11722375731E+02  0.27476486116E+02 -0.90164763051E+02  0.13213467716E+03  0.91855958059E+02 0.  0.
          5    1    1    2  502    0 -0.20312607127E+02 -0.66893480131E+02 -0.10014217096E+03  0.12220174507E+03  0.41800000000E+01 0.  1.
         -5    1    1    2    0  502  0.32034982859E+02  0.39416994015E+02 -0.23111513886E+02  0.55960289653E+02  0.41800000000E+01 0.  1.
        -11    1    3    3    0    0  0.31153794466E+02 -0.99610180539E+01 -0.58440184621E+02  0.66970411144E+02  0.00000000000E+00 0.  1.
         11    1    3    3    0    0 -0.42876170197E+02  0.37437504170E+02 -0.31724578429E+02  0.65164266018E+02  0.00000000000E+00 0. -1.
</event>
<event>
 7    1  0.6988825E-006  0.8624929E+02  0.7561462E-02  0.1312197E+00
         -3   -1    0    0    0  501 -0.00000000000E+00  0.00000000000E+00  0.10477257264E+03  0.10477257264E+03  0.00000000000E+00 0.  1.
          3   -1    0    0  501    0  0.00000000000E+00 -0.00000000000E+00 -0.12290982824E+03  0.12290982824E+03  0.00000000000E+00 0. -1.
         23    2    1    2    0    0  0.79953678041E+01  0.33122805400E+02 -0.10031203628E+02  0.97781463113E+02  0.91101829501E+02 0.  0.
          5    1    1    2  502    0  0.24665796596E+02 -0.39297818403E+02  0.46510138448E+02  0.65828454572E+02  0.41800000000E+01 0.  1.
         -5    1    1    2    0  502 -0.32661164400E+02  0.61750130026E+01 -0.54616190422E+02  0.64072483187E+02  0.41800000000E+01 0.  1.
        -11    1    3    3    0    0 -0.37505860527E+02  0.27620968767E+02 -0.20303442421E+02  0.50811782725E+02  0.00000000000E+00 0. -1.
         11    1    3    3    0    0  0.45501228331E+02  0.55018366328E+01  0.10272238793E+02  0.46969680388E+02  0.00000000000E+00 0.  1.
</event>
<event>
 7    1  0.6988825E-006  0.1078992E+03  0.7561462E-02  0.1264510E+00
         -1   -1    0    0    0  501 -0.00000000000E+00  0.00000000000E+00  0.55678400126E+02  0.55678400126E+02  0.00000000000E+00 0.  1.
          1   -1    0    0  501    0  0.00000000000E+00 -0.00000000000E+00 -0.22968619103E+03  0.22968619103E+03  0.00000000000E+00 0. -1.
         23    2    1    2    0    0 -0.28942963369E+02 -0.16406315946E+02 -0.62309350095E+02  0.11439375660E+03  0.89981187521E+02 0.  0.
          5    1    1    2  502    0  0.24675648430E+02 -0.52995757203E+02 -0.39687022642E+02  0.70781142073E+02  0.41800000000E+01 0.  1.
         -5    1    1    2    0  502  0.42673149395E+01  0.69402073149E+02 -0.72011418169E+02  0.10018969249E+03  0.41800000000E+01 0.  1.
        -11    1    3    3    0    0 -0.35959895568E+02  0.26110554148E+02 -0.81465522265E+01  0.45180100048E+02  0.00000000000E+00 0.  1.
         11    1    3    3    0    0  0.70169321984E+01 -0.42516870093E+02 -0.54162797869E+02  0.69213656550E+02  0.00000000000E+00 0. -1.
</event>
<event>
 7    1  0.6988825E-006  0.1100779E+03  0.7561462E-02  0.1260426E+00
          1   -1    0    0  501    0  0.00000000000E+00  0.00000000000E+00  0.39499961695E+03  0.39499961695E+03  0.00000000000E+00 0. -1.
         -1   -1    0    0    0  501 -0.00000000000E+00 -0.00000000000E+00 -0.51898099214E+02  0.51898099214E+02  0.00000000000E+00 0.  1.
         23    2    1    2    0    0  0.74336710837E+02  0.32799303536E+02  0.83211349117E+02  0.14724231614E+03  0.90301883426E+02 0.  0.
          5    1    1    2  502    0 -0.67785941443E+02  0.14518715216E+02  0.23614653899E+03  0.24614708453E+03  0.41800000000E+01 0.  1.
         -5    1    1    2    0  502 -0.65507693932E+01 -0.47318018752E+02  0.23743629632E+02  0.53508315488E+02  0.41800000000E+01 0.  1.
        -11    1    3    3    0    0  0.33117968915E+00  0.28629917419E+02 -0.79828646074E+01  0.29723862110E+02  0.00000000000E+00 0.  1.
         11    1    3    3    0    0  0.74005531148E+02  0.41693861174E+01  0.91194213724E+02  0.11751845403E+03  0.00000000000E+00 0. -1.
</event>
<event>
 7    1  0.6988825E-006  0.1545384E+03  0.7561462E-02  0.1195005E+00
         -2   -1    0    0    0  501 -0.00000000000E+00  0.00000000000E+00  0.19165866937E+03  0.19165866937E+03  0.00000000000E+00 0.  1.
          2   -1    0    0  501    0  0.00000000000E+00 -0.00000000000E+00 -0.18877693233E+03  0.18877693233E+03  0.00000000000E+00 0. -1.
         23    2    1    2    0    0 -0.23187140164E+02 -0.12579993001E+03  0.79665956405E+02  0.17226679001E+03  0.83462066046E+02 0.  0.
          5    1    1    2  502    0 -0.23838465886E+02  0.12801500138E+03 -0.90880499683E+02  0.15884851481E+03  0.41800000000E+01 0. -1.
         -5    1    1    2    0  502  0.47025606049E+02 -0.22150713718E+01  0.14096280323E+02  0.49320296881E+02  0.41800000000E+01 0.  1.
        -11    1    3    3    0    0 -0.27327943955E+02 -0.63971520373E+02  0.85271022563E+02  0.11004689559E+03  0.00000000000E+00 0.  1.
         11    1    3    3    0    0  0.41408037913E+01 -0.61828409640E+02 -0.56050661580E+01  0.62219894417E+02  0.00000000000E+00 0. -1.
</event>
<event>
 7    1  0.6988825E-006  0.1167383E+03  0.7561462E-02  0.1248577E+00
          2   -1    0    0  501    0  0.00000000000E+00  0.00000000000E+00  0.86330082801E+03  0.86330082801E+03  0.00000000000E+00 0. -1.
         -2   -1    0    0    0  501 -0.00000000000E+00 -0.00000000000E+00 -0.19574923057E+02  0.19574923057E+02  0.00000000000E+00 0.  1.
         23    2    1    2    0    0  0.18754749399E+02 -0.61821001146E+02  0.27500920921E+03  0.29699218685E+03  0.91655425877E+02 0.  0.
          5    1    1    2  502    0 -0.58800539472E+02 -0.86646303512E+01  0.24667269976E+03  0.25376657082E+03  0.41800000000E+01 0.  1.
         -5    1    1    2    0  502  0.40045790073E+02  0.70485631497E+02  0.32204399599E+03  0.33211699339E+03  0.41800000000E+01 0.  1.
        -11    1    3    3    0    0 -0.24996776340E+02 -0.27071939981E+02  0.35909234045E+02  0.51450965505E+02  0.00000000000E+00 0.  1.
         11    1    3    3    0    0  0.43751525739E+02 -0.34749061164E+02  0.23909997516E+03  0.24554122134E+03  0.00000000000E+00 0. -1.
</event>
<event>
 7    1  0.6988825E-006  0.1712932E+03  0.7561462E-02  0.1176506E+00
         -3   -1    0    0    0  501 -0.00000000000E+00  0.00000000000E+00  0.24191610084E+03  0.24191610084E+03  0.00000000000E+00 0.  1.
          3   -1    0    0  501    0  0.00000000000E+00 -0.00000000000E+00 -0.14409895679E+03  0.14409895679E+03  0.00000000000E+00 0. -1.
         23    2    1    2    0    0 -0.37275300661E+02  0.66481400467E+02  0.57871769152E+02  0.13268683122E+03  0.91909895372E+02 0.  0.
          5    1    1    2  502    0 -0.81700094570E+02 -0.97038476801E+02  0.26801055907E+02  0.12971946820E+03  0.41800000000E+01 0. -1.
         -5    1    1    2    0  502  0.11897539523E+03  0.30557076335E+02  0.13144318988E+02  0.12360875821E+03  0.41800000000E+01 0.  1.
        -11    1    3    3    0    0  0.13253109574E+02  0.20669608302E+02  0.59601005281E+02  0.64460510789E+02  0.00000000000E+00 0.  1.
         11    1    3    3    0    0 -0.50528410234E+02  0.45811792165E+02 -0.17292361283E+01  0.68226320432E+02  0.00000000000E+00 0. -1.
</event>
<event>
 7    1  0.6988825E-006  0.1938908E+03  0.7561462E-02  0.1154998E+00
          1   -1    0    0  501    0  0.00000000000E+00  0.00000000000E+00  0.24684790097E+03  0.24684790097E+03  0.00000000000E+00 0. -1.
         -1   -1    0    0    0  501 -0.00000000000E+00 -0.00000000000E+00 -0.16944817092E+03  0.16944817092E+03  0.00000000000E+00 0.  1.
         23    2    1    2    0    0 -0.44022151337E+02  0.16532694283E+03  0.10546586138E+02  0.19406168091E+03  0.90982183331E+02 0.  0.
          5    1    1    2  502    0  0.83658328120E+02 -0.89016680712E+02  0.18881605736E+02  0.12367971840E+03  0.41800000000E+01 0. -1.
         -5    1    1    2    0  502 -0.39636176783E+02 -0.76310262115E+02  0.47971538174E+02  0.98554672587E+02  0.41800000000E+01 0. -1.
        -11    1    3    3    0    0 -0.14362588604E+02  0.32947220251E+01 -0.21680699631E+02  0.26214344949E+02  0.00000000000E+00 0.  1.
         11    1    3    3    0    0 -0.29659562734E+02  0.16203222080E+03  0.32227285769E+02  0.16784733596E+03  0.00000000000E+00 0. -1.
</event>
<event>
 7    1  0.6988825E-006  0.1399793E+03  0.7561462E-02  0.1213357E+00
         -2   -1    0    0    0  501 -0.00000000000E+00  0.00000000000E+00  0.66438407194E+02  0.66438407194E+02  0.00000000000E+00 0.  1.
          2   -1    0    0  501    0  0.00000000000E+00 -0.00000000000E+00 -0.45366844546E+03  0.45366844546E+03  0.00000000000E+00 0. -1.
         23    2    1    2    0    0 -0.11092214899E+03  0.17176209857E+02 -0.69816793614E+02  0.16094619396E+03  0.91818012174E+02 0.  0.
          5    1    1    2  502    0  0.11324528929E+03 -0.56728153878E+02 -0.21957103606E+03  0.25351822670E+03  0.41800000000E+01 0. -1.
         -5    1    1    2    0  502 -0.23231403012E+01  0.39551944020E+02 -0.97842208586E+02  0.10564243199E+03  0.41800000000E+01 0. -1.
        -11    1    3    3    0    0 -0.49771439674E+02 -0.36739210146E+00 -0.82238302287E+02  0.96127361075E+02  0.00000000000E+00 0. -1.
         11    1    3    3    0    0 -0.61150709313E+02  0.17543601959E+02  0.12421508673E+02  0.64818832887E+02  0.00000000000E+00 0.  1.
</event>
<event>
 7    1  0.6988825E-006  0.8743236E+02  0.7561462E-02  0.1309191E+00
          1   -1    0    0  501    0  0.00000000000E+00  0.00000000000E+00  0.83641994387E+02  0.83641994387E+02  0.00000000000E+00 0. -1.
         -1   -1    0    0    0  501 -0.00000000000E+00 -0.00000000000E+00 -0.25815639833E+03  0.25815639833E+03  0.00000000000E+00 0.  1.
         23    2    1    2    0    0  0.25588889965E+01 -0.79647977294E+02 -0.16421949128E+03  0.20485823249E+03  0.92997343539E+02 0.  0.
          5    1    1    2  502    0  0.16043433324E+00  0.78506379144E+02  0.38736335493E+02  0.87642760071E+02  0.41800000000E+01 0. -1.
         -5    1    1    2    0  502 -0.27193233298E+01  0.11415981503E+01 -0.49031248160E+02  0.49297400153E+02  0.41800000000E+01 0.  1.
        -11    1    3    3    0    0  0.18435876721E+02 -0.70364103233E+02 -0.17054463376E+03  0.18540890129E+03  0.00000000000E+00 0.  1.
         11    1    3    3    0    0 -0.15876987724E+02 -0.92838740608E+01  0.63251424823E+01  0.19449331202E+02  0.00000000000E+00 0. -1.
</event>
<event>
 7    1  0.6988825E-006  0.1405281E+03  0.7561462E-02  0.1212620E+00
          2   -1    0    0  501    0  0.00000000000E+00  0.00000000000E+00  0.56232294270E+03  0.56232294270E+03  0.00000000000E+00 0. -1.
         -2   -1    0    0    0  501 -0.00000000000E+00 -0.00000000000E+00 -0.37723954643E+02  0.37723954643E+02  0.00000000000E+00 0.  1.
         23    2    1    2    0    0  0.80429535741E+02 -0.57106772012E+02  0.22861803947E+03  0.26391818609E+03  0.87501470564E+02 0.  0.
          5    1    1    2  502    0 -0.11104181031E+03  0.25762188498E+02  0.23124756672E+03  0.25785050613E+03  0.41800000000E+01 0.  1.
         -5    1    1    2    0  502  0.30612274571E+02  0.31344583514E+02  0.64733381868E+02  0.78278205128E+02  0.41800000000E+01 0.  1.
        -11    1    3    3    0    0 -0.29224543209E+01 -0.37154939059E+02  0.11943014860E+03  0.12511031385E+03  0.00000000000E+00 0. -1.
         11    1    3    3    0    0  0.83351990062E+02 -0.19951832953E+02  0.10918789086E+03  0.13880787224E+03  0.00000000000E+00 0.  1.
</event>
<event>
 7    1  0.6988825E-006  0.1324787E+03  0.7561462E-02  0.1223823E+00
          1   -1    0    0  501    0  0.00000000000E+00  0.00000000000E+00  0.14813328678E+03  0.14813328678E+03  0.00000000000E+00 0.  1.
         -1   -1    0    0    0  501 -0.00000000000E+00 -0.00000000000E+00 -0.15366793523E+03  0.15366793523E+03  0.00000000000E+00 0. -1.
         23    2    1    2    0    0  0.10041469571E+03 -0.31372551176E+02 -0.47148885799E+00  0.13827609353E+03  0.89736880157E+02 0.  0.
          5    1    1    2  502    0 -0.11939086925E+03  0.49704505565E+02 -0.22901844233E+02  0.13140275645E+03  0.41800000000E+01 0.  1.
         -5    1    1    2    0  502  0.18976173547E+02 -0.18331954389E+02  0.17838684641E+02  0.32122372016E+02  0.41800000000E+01 0.  1.
        -11    1    3    3    0    0  0.28352085900E+02 -0.22599793689E+02 -0.41324689095E+02  0.54975643502E+02  0.00000000000E+00 0. -1.
         11    1    3    3    0    0  0.72062609806E+02 -0.87727574869E+01  0.40853200237E+02  0.83300450032E+02  0.00000000000E+00 0.  1.
</event>
<event>
 7    1  0.6988825E-006  0.1188192E+03  0.7561462E-02  0.1245058E+00
         -1   -1    0    0    0  501 -0.00000000000E+00  0.00000000000E+00  0.42300493332E+02  0.42300493332E+02  0.00000000000E+00 0.  1.
          1   -1    0    0  501    0  0.00000000000E+00 -0.00000000000E+00 -0.39923795739E+03  0.39923795739E+03  0.00000000000E+00 0. -1.
         23    2    1    2    0    0 -0.12426684502E+02 -0.47970887798E+02 -0.73538515373E+02  0.12782178426E+03  0.92059039347E+02 0.  0.
          5    1    1    2  502    0  0.36124915926E+02 -0.33586101748E+02 -0.10222991032E+03  0.11358460611E+03  0.41800000000E+01 0. -1.
         -5    1    1    2    0  502 -0.23698231424E+02  0.81556989546E+02 -0.18116903837E+03  0.20013206035E+03  0.41800000000E+01 0. -1.
        -11    1    3    3    0    0  0.17502384996E+02 -0.65920082873E+02 -0.58362112645E+02  0.89765956793E+02  0.00000000000E+00 0. -1.
         11    1    3    3    0    0 -0.29929069497E+02  0.17949195075E+02 -0.15176402728E+02  0.38055827472E+02  0.00000000000E+00 0.  1.
</event>
<event>
 7    1  0.6988825E-006  0.1395085E+03  0.7561462E-02  0.1213992E+00
         -1   -1    0    0    0  501 -0.00000000000E+00  0.00000000000E+00  0.32583799099E+02  0.32583799099E+02  0.00000000000E+00 0.  1.
          1   -1    0    0  501    0  0.00000000000E+00 -0.00000000000E+00 -0.73927809026E+03  0.73927809026E+03  0.00000000000E+00 0. -1.
         23    2    1    2    0    0 -0.48401847575E+02 -0.84010857683E+02 -0.21060266335E+03  0.25113658328E+03  0.96517037842E+02 0.  0.
          5    1    1    2  502    0 -0.46366811086E+01 -0.30639476657E+02 -0.11767770776E+03  0.12176120747E+03  0.41800000000E+01 0.  1.
         -5    1    1    2    0  502  0.53038528683E+02  0.11465033434E+03 -0.37841392005E+03  0.39896409861E+03  0.41800000000E+01 0.  1.
        -11    1    3    3    0    0 -0.42450352570E+01 -0.76434960142E+02 -0.18336804167E+03  0.19870622075E+03  0.00000000000E+00 0. -1.
         11    1    3    3    0    0 -0.44156812318E+02 -0.75758975412E+01 -0.27234621681E+02  0.52430362537E+02  0.00000000000E+00 0.  1.
</event>
<event>
 7    1  0.6988825E-006  0.1084398E+03  0.7561462E-02  0.1263487E+00
          1   -1    0    0  501    0  0.00000000000E+00  0.00000000000E+00  0.28991654748E+03  0.28991654748E+03  0.00000000000E+00 0. -1.
         -1   -1    0    0    0  501 -0.00000000000E+00 -0.00000000000E+00 -0.84541721433E+02  0.84541721433E+02  0.00000000000E+00 0.  1.
         23    2    1    2    0    0  0.26625280067E+02  0.62436055046E+02 -0.11985447088E+02  0.11464994274E+03  0.91617639790E+02 0.  0.
          5    1    1    2  502    0 -0.33060287824E+02 -0.80378469697E+02  0.22309971634E+03  0.23946740248E+03  0.41800000000E+01 0.  1.
         -5    1    1    2    0  502  0.64350077573E+01  0.17942414651E+02 -0.57394431991E+01  0.20340923690E+02  0.41800000000E+01 0.  1.
        -11    1    3    3    0    0  0.48486078593E+02  0.71745102192E+02 -0.21225918277E+02  0.89156038005E+02  0.00000000000E+00 0.  1.
         11    1    3    3    0    0 -0.21860798526E+02 -0.93090471462E+01  0.92404711895E+01  0.25493904738E+02  0.00000000000E+00 0. -1.
</event>
<event>
 7    1  0.6988825E-006  0.1336329E+03  0.7561462E-02  0.1222163E+00
          2   -1    0    0  501    0  0.00000000000E+00  0.00000000000E+00  0.57453865362E+02  0.57453865362E+02  0.00000000000E+00 0. -1.
         -2   -1    0    0    0  501 -0.00000000000E+00 -0.00000000000E+00 -0.31581519159E+03  0.31581519159E+03  0.00000000000E+00 0.  1.
         23    2    1    2    0    0  0.78943155753E+02 -0.18293596800E+02 -0.11563023633E+03  0.16690428481E+03  0.88994444833E+02 0.  0.
          5    1    1    2  502    0  0.33770723698E+01 -0.44709410251E+02 -0.37636428804E+02  0.58688236946E+02  0.41800000000E+01 0.  1.
         -5    1    1    2    0  502 -0.82320228123E+02  0.63003007050E+02 -0.10509466109E+03  0.14767653519E+03  0.41800000000E+01 0.  1.
        -11    1    3    3    0    0  0.35358870966E+02  0.34925155544E+02 -0.34308490538E+02  0.60391131541E+02  0.00000000000E+00 0.  1.
         11    1    3    3    0    0  0.43584284787E+02 -0.53218752344E+02 -0.81321745788E+02  0.10651315327E+03  0.00000000000E+00 0. -1.
</event>
<event>
 7    1  0.6988825E-006  0.1217162E+03  0.7561462E-02  0.1240292E+00
         -2   -1    0    0    0  501 -0.00000000000E+00  0.00000000000E+00  0.69894874133E+03  0.69894874133E+03  0.00000000000E+00 0.  1.
          2   -1    0    0  501    0  0.00000000000E+00 -0.00000000000E+00 -0.38107366772E+02  0.38107366772E+02  0.00000000000E+00 0. -1.
         23    2    1    2    0    0 -0.23071261349E+02 -0.96610966107E+02  0.46762391434E+03  0.48636424202E+03  0.89510271945E+02 0.  0.
          5    1    1    2  502    0 -0.40427498853E+01  0.10772963580E+03  0.81750151296E+02  0.13536091716E+03  0.41800000000E+01 0.  1.
         -5    1    1    2    0  502  0.27114011234E+02 -0.11118669694E+02  0.11146730892E+03  0.11533094892E+03  0.41800000000E+01 0.  1.
        -11    1    3    3    0    0  0.29340506646E+00 -0.72030059909E+02  0.42882653496E+03  0.43483400592E+03  0.00000000000E+00 0.  1.
         11    1    3    3    0    0 -0.23364666416E+02 -0.24580906198E+02  0.38797379377E+02  0.51530236102E+02  0.00000000000E+00 0. -1.
</event>
<event>
 7    1  0.6988825E-006  0.1439433E+03  0.7561462E-02  0.1208119E+00
          1   -1    0    0  501    0  0.00000000000E+00  0.00000000000E+00  0.65234600671E+02  0.65234600671E+02  0.00000000000E+00 0. -1.
         -1   -1    0    0    0  501 -0.00000000000E+00 -0.00000000000E+00 -0.42936428287E+03  0.42936428287E+03  0.00000000000E+00 0.  1.
         23    2    1    2    0    0 -0.11141634601E+03  0.92462506193E+01 -0.26072339740E+03  0.29750784136E+03  0.89638888952E+02 0.  0.
          5    1    1    2  502    0 -0.16247394141E+02  0.15404431757E+02 -0.52804424926E+02  0.57506991104E+02  0.41800000000E+01 0. -1.
         -5    1    1    2    0  502  0.12766374015E+03 -0.24650682376E+02 -0.50601859873E+02  0.13958405107E+03  0.41800000000E+01 0. -1.
        -11    1    3    3    0    0 -0.11613861600E+03  0.24808342543E+02 -0.18340188688E+03  0.21849458597E+03  0.00000000000E+00 0. -1.
         11    1    3    3    0    0  0.47222699922E+01 -0.15562091924E+02 -0.77321510522E+02  0.79013255396E+02  0.00000000000E+00 0.  1.
</event>
<event>
 7    1  0.6988825E-006  0.8531663E+02  0.7561462E-02  0.1314607E+00
          3   -1    0    0  501    0  0.00000000000E+00  0.00000000000E+00  0.13036598207E+03  0.13036598207E+03  0.00000000000E+00 0. -1.
         -3   -1    0    0    0  501 -0.00000000000E+00 -0.00000000000E+00 -0.12711482357E+03  0.12711482357E+03  0.00000000000E+00 0.  1.
         23    2    1    2    0    0 -0.61535743787E+02  0.92243895046E+01 -0.29796237377E+02  0.11391636960E+03  0.90649800744E+02 0.  0.
          5    1    1    2  502    0  0.14475300573E+02  0.20861994575E+00 -0.47431163323E+02  0.49767112666E+02  0.41800000000E+01 0. -1.
         -5    1    1    2    0  502  0.47060443214E+02 -0.94330094503E+01  0.80478559195E+02  0.93797323378E+02  0.41800000000E+01 0. -1.
        -11    1    3    3    0    0 -0.18344263039E+02  0.46718845672E+02 -0.26174393839E+02  0.56606195952E+02  0.00000000000E+00 0.  1.
         11    1    3    3    0    0 -0.43191480748E+02 -0.37494456167E+02 -0.36218435381E+01  0.57310173644E+02  0.00000000000E+00 0. -1.
</event>
<event>
 7    1  0.6988825E-006  0.9421946E+02  0.7561462E-02  0.1292944E+00
          2   -1    0    0  501    0  0.00000000000E+00  0.00000000000E+00  0.41726903256E+03  0.41726903256E+03  0.00000000000E+00 0. -1.
         -2   -1    0    0    0  501 -0.00000000000E+00 -0.00000000000E+00 -0.77517698357E+02  0.77517698357E+02  0.00000000000E+00 0.  1.
         23    2    1    2    0    0 -0.19007160809E+02  0.30981957139E+02 -0.14870456001E+02  0.11699782373E+03  0.11020982926E+03 0.  0.
          5    1    1    2  502    0  0.21487342617E+02  0.41220413777E+02  0.70153842227E+02  0.84260681127E+02  0.41800000000E+01 0.  1.
         -5    1    1    2    0  502 -0.24801818078E+01 -0.72202370916E+02  0.28446794798E+03  0.29352822606E+03  0.41800000000E+01 0.  1.
        -11    1    3    3    0    0 -0.32598645300E+02 -0.30639036377E+01  0.39573421602E+02  0.51362582472E+02  0.00000000000E+00 0. -1.
         11    1    3    3    0    0  0.13591484491E+02  0.34045860777E+02 -0.54443877602E+02  0.65635241259E+02  0.00000000000E+00 0.  1.
</event>
<event>
 7    1  0.6988825E-006  0.1590214E+03  0.7561462E-02  0.1189806E+00
         -2   -1    0    0    0  501 -0.00000000000E+00  0.00000000000E+00  0.31499056647E+02  0.31499056647E+02  0.00000000000E+00 0.  1.
          2   -1    0    0  501    0  0.00000000000E+00 -0.00000000000E+00 -0.21482619138E+04  0.21482619138E+04  0.00000000000E+00 0. -1.
         23    2    1    2    0    0 -0.11505218997E+03  0.92324120428E+02 -0.25711114647E+03  0.31007829563E+03  0.91003616151E+02 0.  0.
          5    1    1    2  502    0  0.40666869327E+02 -0.45162791226E+02 -0.14183824775E+04  0.14196900355E+04  0.41800000000E+01 0.  1.
         -5    1    1    2    0  502  0.74385320644E+02 -0.47161329202E+02 -0.44126923313E+03  0.44999263928E+03  0.41800000000E+01 0.  1.
        -11    1    3    3    0    0 -0.82783248449E+02  0.13631013806E+02 -0.93099066153E+02  0.12532480552E+03  0.00000000000E+00 0.  1.
         11    1    3    3    0    0 -0.32268941522E+02  0.78693106622E+02 -0.16401208032E+03  0.18475349011E+03  0.00000000000E+00 0. -1.
</event>
<event>
 7    1  0.6988825E-006  0.1855982E+03  0.7561462E-02  0.1162492E+00
         -3   -1    0    0    0  501 -0.00000000000E+00  0.00000000000E+00  0.24188391706E+03  0.24188391706E+03  0.00000000000E+00 0.  1.
          3   -1    0    0  501    0  0.00000000000E+00 -0.00000000000E+00 -0.14342883972E+03  0.14342883972E+03  0.00000000000E+00 0. -1.
         23    2    1    2    0    0  0.63616659095E+01 -0.26324472745E+02  0.25710531574E+02  0.96712682500E+02  0.89212459131E+02 0.  0.
          5    1    1    2  502    0  0.71045596123E+02 -0.10482480119E+03  0.38914149851E+02  0.13254244276E+03  0.41800000000E+01 0. -1.
         -5    1    1    2    0  502 -0.77407262032E+02  0.13114927394E+03  0.33830395908E+02  0.15605763152E+03  0.41800000000E+01 0.  1.
        -11    1    3    3    0    0 -0.18576551196E+02 -0.52683194427E+02  0.83350294150E+01  0.56480792706E+02  0.00000000000E+00 0.  1.
         11    1    3    3    0    0  0.24938217106E+02  0.26358721682E+02  0.17375502159E+02  0.40231889794E+02  0.00000000000E+00 0. -1.
</event>
<event>
 7    1  0.6988825E-006  0.1076343E+03  0.7561462E-02  0.1265015E+00
         -2   -1    0    0    0  501 -0.00000000000E+00  0.00000000000E+00  0.42946860603E+03  0.42946860603E+03  0.00000000000E+00 0.  1.
          2   -1    0    0  501    0  0.00000000000E+00 -0.00000000000E+00 -0.35452144776E+02  0.35452144776E+02  0.00000000000E+00 0. -1.
         23    2    1    2    0    0 -0.36481126526E+02 -0.16363611795E+02  0.25433036924E+03  0.27319755092E+03  0.91401995210E+02 0.  0.
          5    1    1    2  502    0 -0.28283655915E+02  0.44471534495E+02  0.93004851879E+02  0.10698157526E+03  0.41800000000E+01 0.  1.
         -5    1    1    2    0  502  0.64764782441E+02 -0.28107922699E+02  0.46681240133E+02  0.84741624621E+02  0.41800000000E+01 0.  1.
        -11    1    3    3    0    0 -0.56582391332E+02 -0.33069417528E+02  0.22281847031E+03  0.23225680635E+03  0.00000000000E+00 0.  1.
         11    1    3    3    0    0  0.20101264806E+02  0.16705805733E+02  0.31511898932E+02  0.40940744574E+02  0.00000000000E+00 0. -1.
</event>
<event>
 7    1  0.6988825E-006  0.1017049E+03  0.7561462E-02  0.1276751E+00
          2   -1    0    0  501    0  0.00000000000E+00  0.00000000000E+00  0.25458848178E+04  0.25458848178E+04  0.00000000000E+00 0. -1.
         -2   -1    0    0    0  501 -0.00000000000E+00 -0.00000000000E+00 -0.14004191887E+02  0.14004191887E+02  0.00000000000E+00 0.  1.
         23    2    1    2    0    0 -0.89913706293E+02 -0.33379668351E+02  0.37756670253E+03  0.39977737497E+03  0.89814574734E+02 0.  0.
          5    1    1    2  502    0  0.65657517685E+02  0.38766278667E+01  0.20000261200E+04  0.20011116638E+04  0.41800000000E+01 0. -1.
         -5    1    1    2    0  502  0.24256188608E+02  0.29503040484E+02  0.15428780333E+03  0.15899997088E+03  0.41800000000E+01 0.  1.
        -11    1    3    3    0    0 -0.78778719848E+02 -0.19256125856E+02  0.37230950424E+03  0.38103969876E+03  0.00000000000E+00 0.  1.
         11    1    3    3    0    0 -0.11134986445E+02 -0.14123542494E+02  0.52571982938E+01  0.18737676207E+02  0.00000000000E+00 0. -1.
</event>
<event>
 7    1  0.6988825E-006  0.1315287E+03  0.7561462E-02  0.1225205E+00
          4   -1    0    0  501    0  0.00000000000E+00  0.00000000000E+00  0.23685963319E+03  0.23685963319E+03  0.00000000000E+00 0. -1.
         -4   -1    0    0    0  501 -0.00000000000E+00 -0.00000000000E+00 -0.74505406494E+02  0.74505406494E+02  0.00000000000E+00 0.  1.
         23    2    1    2    0    0  0.57882814099E+01 -0.75496788708E+02  0.81434198585E+02  0.14424660265E+03  0.91881904483E+02 0.  0.
          5    1    1    2  502    0  0.57215808991E+02  0.49288762575E+02  0.56932046183E+02  0.94666579094E+02  0.41800000000E+01 0.  1.
         -5    1    1    2    0  502 -0.63004090401E+02  0.26208026133E+02  0.23987981926E+02  0.72451857933E+02  0.41800000000E+01 0.  1.
        -11    1    3    3    0    0  0.57289795432E+01 -0.97192900782E+02  0.66175628202E+02  0.11772210896E+03  0.00000000000E+00 0.  1.
         11    1    3    3    0    0  0.59301866721E-01  0.21696112074E+02  0.15258570383E+02  0.26524493699E+02  0.00000000000E+00 0. -1.
</event>
<event>
 7    1  0.6988825E-006  0.8849016E+02  0.7561462E-02  0.1306550E+00
          2   -1    0    0  501    0  0.00000000000E+00  0.00000000000E+00  0.10123013789E+03  0.10123013789E+03  0.00000000000E+00 0. -1.
         -2   -1    0    0    0  501 -0.00000000000E+00 -0.00000000000E+00 -0.17475202026E+03  0.17475202026E+03  0.00000000000E+00 0.  1.
         23    2    1    2    0    0  0.67456416748E+02  0.23117675965E+02 -0.59216985619E+02  0.13128359574E+03  0.92972770324E+02 0.  0.
          5    1    1    2  502    0 -0.27147644710E+02 -0.85490113180E+00  0.54943325913E+02  0.61432621071E+02  0.41800000000E+01 0. -1.
         -5    1    1    2    0  502 -0.40308772038E+02 -0.22262774833E+02 -0.69248222656E+02  0.83265941342E+02  0.41800000000E+01 0. -1.
        -11    1    3    3    0    0  0.76489438246E+02 -0.20556785407E+01 -0.68774282618E+02  0.10288227217E+03  0.00000000000E+00 0.  1.
         11    1    3    3    0    0 -0.90330214976E+01  0.25173354506E+02  0.95572969989E+01  0.28401323567E+02  0.00000000000E+00 0. -1.
</event>
<event>
 7    1  0.6988825E-006  0.1488861E+03  0.7561462E-02  0.1201848E+00
          2   -1    0    0  501    0  0.00000000000E+00  0.00000000000E+00  0.61822940182E+03  0.61822940182E+03  0.00000000000E+00 0.  1.
         -2   -1    0    0    0  501 -0.00000000000E+00 -0.00000000000E+00 -0.59248043990E+02  0.59248043990E+02  0.00000000000E+00 0. -1.
         23    2    1    2    0    0 -0.99375968366E+02 -0.73271564829E+02  0.63126629971E+02  0.15139438161E+03  0.60753453159E+02 0.  0.
          5    1    1    2  502    0  0.29376752807E+02  0.84171299713E+02  0.37900690009E+03  0.38937321944E+03  0.41800000000E+01 0.  1.
         -5    1    1    2    0  502  0.69999215558E+02 -0.10899734884E+02  0.11684782777E+03  0.13670984475E+03  0.41800000000E+01 0.  1.
        -11    1    3    3    0    0 -0.72671450974E+02 -0.16065972216E+02  0.32167263040E+02  0.81080133580E+02  0.00000000000E+00 0. -1.
         11    1    3    3    0    0 -0.26704517392E+02 -0.57205592613E+02  0.30959366931E+02  0.70314248031E+02  0.00000000000E+00 0.  1.
</event>
<event>
 7    1  0.6988825E-006  0.1063300E+03  0.7561462E-02  0.1267521E+00
         -2   -1    0    0    0  501 -0.00000000000E+00  0.00000000000E+00  0.13501768219E+02  0.13501768219E+02  0.00000000000E+00 0.  1.
          2   -1    0    0  501    0  0.00000000000E+00 -0.00000000000E+00 -0.88916816372E+03  0.88916816372E+03  0.00000000000E+00 0. -1.
         23    2    1    2    0    0 -0.14723251940E+01  0.74143728551E+01 -0.29285685410E+03  0.30653883179E+03  0.90242881904E+02 0.  0.
          5    1    1    2  502    0  0.16376428583E+02  0.55213239015E+02 -0.21061001667E+03  0.21838209793E+03  0.41800000000E+01 0.  1.
         -5    1    1    2    0  502 -0.14904103389E+02 -0.62627611870E+02 -0.37219952473E+03  0.37774900222E+03  0.41800000000E+01 0.  1.
        -11    1    3    3    0    0  0.43183572674E+02  0.13710836063E+02 -0.15568477593E+03  0.16214363210E+03  0.00000000000E+00 0.  1.
         11    1    3    3    0    0 -0.44655897868E+02 -0.62964632079E+01 -0.13717207817E+03  0.14439519969E+03  0.00000000000E+00 0. -1.
</event>
<event>
 7    1  0.6988825E-006  0.1681654E+03  0.7561462E-02  0.1179775E+00
          2   -1    0    0  501    0  0.00000000000E+00  0.00000000000E+00  0.62027830707E+02  0.62027830707E+02  0.00000000000E+00 0. -1.
         -2   -1    0    0    0  501 -0.00000000000E+00 -0.00000000000E+00 -0.46997829584E+03  0.46997829584E+03  0.00000000000E+00 0.  1.
         23    2    1    2    0    0  0.47316348589E+02  0.12072110997E+03 -0.22538446928E+03  0.27550896139E+03  0.91074725236E+02 0.  0.
          5    1    1    2  502    0 -0.86691776557E+02 -0.10686133060E+03 -0.13115942057E+03  0.19014487662E+03  0.41800000000E+01 0. -1.
         -5    1    1    2    0  502  0.39375427968E+02 -0.13859779376E+02 -0.51406575274E+02  0.66352288532E+02  0.41800000000E+01 0. -1.
        -11    1    3    3    0    0  0.35909854070E+02  0.46232567579E+00 -0.35790172299E+02  0.50701753397E+02  0.00000000000E+00 0. -1.
         11    1    3    3    0    0  0.11406494519E+02  0.12025878430E+03 -0.18959429698E+03  0.22480720799E+03  0.00000000000E+00 0.  1.
</event>
<event>
 7    1  0.6988825E-006  0.1096528E+03  0.7561462E-02  0.1261214E+00
          1   -1    0    0  501    0  0.00000000000E+00  0.00000000000E+00  0.96885266886E+02  0.96885266886E+02  0.00000000000E+00 0. -1.
         -1   -1    0    0    0  501 -0.00000000000E+00 -0.00000000000E+00 -0.16344271860E+03  0.16344271860E+03  0.00000000000E+00 0.  1.
         23    2    1    2    0    0  0.41684063396E+02 -0.14744772394E+02 -0.93671640306E+02  0.13816097911E+03  0.91428171249E+02 0.  0.
          5    1    1    2  502    0 -0.17348935393E+02 -0.47753310672E+02  0.41283583497E+01  0.51145674128E+02  0.41800000000E+01 0. -1.
         -5    1    1    2    0  502 -0.24335128004E+02  0.62498083066E+02  0.22985830241E+02  0.71021332244E+02  0.41800000000E+01 0.  1.
        -11    1    3    3    0    0  0.32265508448E+02 -0.52825450730E+02 -0.51055226094E+02  0.80238565489E+02  0.00000000000E+00 0. -1.
         11    1    3    3    0    0  0.94185549483E+01  0.38080678336E+02 -0.42616414212E+02  0.57922413625E+02  0.00000000000E+00 0.  1.
</event>
<event>
 7    1  0.6988825E-006  0.8089796E+02  0.7561462E-02  0.1326522E+00
          2   -1    0    0  501    0  0.00000000000E+00  0.00000000000E+00  0.21043716470E+03  0.21043716470E+03  0.00000000000E+00 0. -1.
         -2   -1    0    0    0  501 -0.00000000000E+00 -0.00000000000E+00 -0.60825368960E+02  0.60825368960E+02  0.00000000000E+00 0.  1.
         23    2    1    2    0    0 -0.21642300514E+01 -0.12032389371E+02  0.24775348288E+02  0.94116029771E+02  0.89969699851E+02 0.  0.
          5    1    1    2  502    0 -0.32945224112E+02  0.26426318383E+02 -0.41370952428E+01  0.42641834530E+02  0.41800000000E+01 0.  1.
         -5    1    1    2    0  502  0.35109454163E+02 -0.14393929012E+02  0.12897354270E+03  0.13450466936E+03  0.41800000000E+01 0.  1.
        -11    1    3    3    0    0 -0.19716379464E+02  0.29847117082E+02  0.32169694698E+02  0.48108993694E+02  0.00000000000E+00 0. -1.
         11    1    3    3    0    0  0.17552149413E+02 -0.41879506453E+02 -0.73943464095E+01  0.46007036077E+02  0.00000000000E+00 0.  1.
</event>
<event>
 7    1  0.6988825E-006  0.7516971E+02  0.7561462E-02  0.1343346E+00
         -2   -1    0    0    0  501 -0.00000000000E+00  0.00000000000E+00  0.97035205547E+02  0.97035205547E+02  0.00000000000E+00 0.  1.
          2   -1    0    0  501    0  0.00000000000E+00 -0.00000000000E+00 -0.15681846196E+03  0.15681846196E+03  0.00000000000E+00 0. -1.
         23    2    1    2    0    0  0.40357897380E+02 -0.20913697790E+02  0.99817807834E+01  0.10358409083E+03  0.92541262634E+02 0.  0.
          5    1    1    2  502    0 -0.29222331736E+02  0.61216780308E+01 -0.10554522211E+03  0.10976650638E+03  0.41800000000E+01 0. -1.
         -5    1    1    2    0  502 -0.11135565643E+02  0.14792019759E+02  0.35780184911E+02  0.40503070291E+02  0.41800000000E+01 0. -1.
        -11    1    3    3    0    0  0.58830205318E+01 -0.53470208531E+02 -0.45622265442E+01  0.53985989312E+02  0.00000000000E+00 0. -1.
         11    1    3    3    0    0  0.34474876848E+02  0.32556510742E+02  0.14544007328E+02  0.49598101521E+02  0.00000000000E+00 0.  1.
</event>
<event>
 7    1  0.6988825E-006  0.1290326E+03  0.7561462E-02  0.1228898E+00
         -1   -1    0    0    0  501 -0.00000000000E+00  0.00000000000E+00  0.67523713970E+02  0.67523713970E+02  0.00000000000E+00 0.  1.
          1   -1    0    0  501    0  0.00000000000E+00 -0.00000000000E+00 -0.33367452449E+03  0.33367452449E+03  0.00000000000E+00 0. -1.
         23    2    1    2    0    0 -0.93082771512E+02  0.28289944800E+01 -0.60438583359E+02  0.14305314482E+03  0.90216264179E+02 0.  0.
          5    1    1    2  502    0  0.11740272194E+03 -0.16859574660E+02 -0.12399904509E+03  0.17164171976E+03  0.41800000000E+01 0.  1.
         -5    1    1    2    0  502 -0.24319950433E+02  0.14030580180E+02 -0.81713182072E+02  0.86503373886E+02  0.41800000000E+01 0.  1.
        -11    1    3    3    0    0 -0.43838886701E+02 -0.28817282555E+02  0.79201383938E+01  0.53056689995E+02  0.00000000000E+00 0.  1.
         11    1    3    3    0    0 -0.49243884811E+02  0.31646277035E+02 -0.68358721752E+02  0.89996454825E+02  0.00000000000E+00 0. -1.
</event>
<event>
 7    1  0.6988825E-006  0.1281926E+03  0.7561462E-02  0.1230162E+00
         -2   -1    0    0    0  501 -0.00000000000E+00  0.00000000000E+00  0.38947927251E+02  0.38947927251E+02  0.00000000000E+00 0.  1.
          2   -1    0    0  501    0  0.00000000000E+00 -0.00000000000E+00 -0.47312209910E+03  0.47312209910E+03  0.00000000000E+00 0. -1.
         23    2    1    2    0    0 -0.58092771395E+02 -0.39338834342E+02 -0.11639845679E+03  0.16342725780E+03  0.90760971093E+02 0.  0.
          5    1    1    2  502    0  0.53129482914E+02 -0.37358663496E+02 -0.16978564793E+03  0.18183247877E+03  0.41800000000E+01 0. -1.
         -5    1    1    2    0  502  0.49632884810E+01  0.76697497838E+02 -0.14799006714E+03  0.16681028979E+03  0.41800000000E+01 0. -1.
        -11    1    3    3    0    0  0.83621596681E+01 -0.46723692695E+02 -0.54995746391E+02  0.72646825770E+02  0.00000000000E+00 0.  1.
         11    1    3    3    0    0 -0.66454931063E+02  0.73848583528E+01 -0.61402710395E+02  0.90780432028E+02  0.00000000000E+00 0. -1.
</event>
<event>
 7    1  0.6988825E-006  0.1191389E+03  0.7561462E-02  0.1244524E+00
          1   -1    0    0  501    0  0.00000000000E+00  0.00000000000E+00  0.46054828217E+03  0.46054828217E+03  0.00000000000E+00 0. -1.
         -1   -1    0    0    0  501 -0.00000000000E+00 -0.00000000000E+00 -0.36497301872E+02  0.36497301872E+02  0.00000000000E+00 0.  1.
         23    2    1    2    0    0  0.53428059595E+02  0.48773487243E+02  0.21488912538E+03  0.24282218128E+03  0.86901466639E+02 0.  0.
          5    1    1    2  502    0 -0.50912227247E+02  0.33957705118E+02  0.96940655190E+02  0.11471766930E+03  0.41800000000E+01 0. -1.
         -5    1    1    2    0  502 -0.25158323483E+01 -0.82731192361E+02  0.11222119973E+03  0.13950573347E+03  0.41800000000E+01 0. -1.
        -11    1    3    3    0    0  0.66065757424E+02  0.32995257101E+02  0.20915550100E+03  0.22180936611E+03  0.00000000000E+00 0. -1.
         11    1    3    3    0    0 -0.12637697829E+02  0.15778230143E+02  0.57336243813E+01  0.21012815170E+02  0.00000000000E+00 0.  1.
</event>
<event>
 7    1  0.6988825E-006  0.1019618E+03  0.7561462E-02  0.1276224E+00
          1   -1    0    0  501    0  0.00000000000E+00  0.00000000000E+00  0.10262788844E+04  0.10262788844E+04  0.00000000000E+00 0. -1.
         -1   -1    0    0    0  501 -0.00000000000E+00 -0.00000000000E+00 -0.18264784671E+02  0.18264784671E+02  0.00000000000E+00 0.  1.
         23    2    1    2    0    0  0.26877498023E+02 -0.77024365220E+02  0.37793114149E+03  0.39700402316E+03  0.90139303083E+02 0.  0.
          5    1    1    2  502    0 -0.22475263049E+02  0.43457422773E+02  0.65172928420E+02  0.81600662019E+02  0.41800000000E+01 0.  1.
         -5    1    1    2    0  502 -0.44022349747E+01  0.33566942447E+02  0.56491002982E+03  0.56593898389E+03  0.41800000000E+01 0.  1.
        -11    1    3    3    0    0 -0.81817681023E+01 -0.84471767504E+02  0.24298953214E+03  0.25738363111E+03  0.00000000000E+00 0.  1.
         11    1    3    3    0    0  0.35059266125E+02  0.74474022837E+01  0.13494160935E+03  0.13962039205E+03  0.00000000000E+00 0. -1.
</event>
<event>
 7    1  0.6988825E-006  0.1231702E+03  0.7561462E-02  0.1237957E+00
          1   -1    0    0  501    0  0.00000000000E+00  0.00000000000E+00  0.74747942378E+03  0.74747942378E+03  0.00000000000E+00 0. -1.
         -1   -1    0    0    0  501 -0.00000000000E+00 -0.00000000000E+00 -0.29526099104E+02  0.29526099104E+02  0.00000000000E+00 0.  1.
         23    2    1    2    0    0 -0.88666825250E+02  0.16364437628E+02  0.35296491134E+03  0.38078172110E+03  0.11081917601E+03 0.  0.
          5    1    1    2  502    0 -0.20140643431E+02  0.10932959519E+01  0.71922162830E+01  0.21818368154E+02  0.41800000000E+01 0.  1.
         -5    1    1    2    0  502  0.10880746868E+03 -0.17457733580E+02  0.35779619706E+03  0.37440543363E+03  0.41800000000E+01 0.  1.
        -11    1    3    3    0    0 -0.78103333472E+02 -0.17456992634E+02  0.32752814464E+03  0.33716399989E+03  0.00000000000E+00 0. -1.
         11    1    3    3    0    0 -0.10563491778E+02  0.33821430262E+02  0.25436766695E+02  0.43617721208E+02  0.00000000000E+00 0.  1.
</event>
<event>
 7    1  0.6988825E-006  0.8142224E+02  0.7561462E-02  0.1325063E+00
          2   -1    0    0  501    0  0.00000000000E+00  0.00000000000E+00  0.56089308325E+03  0.56089308325E+03  0.00000000000E+00 0. -1.
         -2   -1    0    0    0  501 -0.00000000000E+00 -0.00000000000E+00 -0.25775443586E+02  0.25775443586E+02  0.00000000000E+00 0.  1.
         23    2    1    2    0    0  0.10735810428E+02 -0.33417533991E+02  0.15229744390E+03  0.18240238287E+03  0.94043227597E+02 0.  0.
          5    1    1    2  502    0  0.21164076334E+02  0.33986896146E+02  0.36552504804E+03  0.36773504100E+03  0.41800000000E+01 0.  1.
         -5    1    1    2    0  502 -0.31899886762E+02 -0.56936215424E+00  0.17295147729E+02  0.36531102962E+02  0.41800000000E+01 0.  1.
        -11    1    3    3    0    0 -0.29676549893E+02 -0.39645120656E+02  0.12152330984E+03  0.13122632373E+03  0.00000000000E+00 0. -1.
         11    1    3    3    0    0  0.40412360321E+02  0.62275866642E+01  0.30774134054E+02  0.51176059140E+02  0.00000000000E+00 0.  1.
</event>
<event>
 7    1  0.6988825E-006  0.9265880E+02  0.7561462E-02  0.1296538E+00
         -1   -1    0    0    0  501 -0.00000000000E+00  0.00000000000E+00  0.18381512701E+02  0.18381512701E+02  0.00000000000E+00 0.  1.
          1   -1    0    0  501    0  0.00000000000E+00 -0.00000000000E+00 -0.82943468433E+03  0.82943468433E+03  0.00000000000E+00 0. -1.
         23    2    1    2    0    0 -0.24975844605E+02  0.44061726938E+02 -0.24560316766E+03  0.26648693606E+03  0.90161757604E+02 0.  0.
          5    1    1    2  502    0  0.13887532441E+02  0.17488070441E+02 -0.44470143457E+03  0.44528141043E+03  0.41800000000E+01 0. -1.
         -5    1    1    2    0  502  0.11088312164E+02 -0.61549797379E+02 -0.12074856940E+03  0.13604785054E+03  0.41800000000E+01 0. -1.
        -11    1    3    3    0    0 -0.30394362538E+02  0.68471387133E+02 -0.21015035025E+03  0.22310382749E+03  0.00000000000E+00 0.  1.
         11    1    3    3    0    0  0.54185179333E+01 -0.24409660195E+02 -0.35452817412E+02  0.43383108578E+02  0.00000000000E+00 0. -1.
</event>
<event>
 7    1  0.6988825E-006  0.2484053E+03  0.7561462E-02  0.1114317E+00
         -2   -1    0    0    0  501 -0.00000000000E+00  0.00000000000E+00  0.61881117993E+02  0.61881117993E+02  0.00000000000E+00 0.  1.
          2   -1    0    0  501    0  0.00000000000E+00 -0.00000000000E+00 -0.12130709558E+04  0.12130709558E+04  0.00000000000E+00 0. -1.
         23    2    1    2    0    0  0.26520188111E+02  0.24377574873E+03 -0.43630236623E+03  0.50889377539E+03  0.92104200822E+02 0.  0.
          5    1    1    2  502    0 -0.32746451561E+02 -0.21285197704E+03 -0.44594597970E+03  0.49524093473E+03  0.41800000000E+01 0.  1.
         -5    1    1    2    0  502  0.62262634499E+01 -0.30923771686E+02 -0.26894149185E+03  0.27081736364E+03  0.41800000000E+01 0.  1.
        -11    1    3    3    0    0 -0.48932974298E+01  0.16074278016E+03 -0.34954307540E+03  0.38476297547E+03  0.00000000000E+00 0.  1.
         11    1    3    3    0    0  0.31413485541E+02  0.83032968574E+02 -0.86759290826E+02  0.12413079992E+03  0.00000000000E+00 0. -1.
</event>
<event>
 7    1  0.6988825E-006  0.1214144E+03  0.7561462E-02  0.1240782E+00
          1   -1    0    0  501    0  0.00000000000E+00  0.00000000000E+00  0.29576547985E+03  0.29576547985E+03  0.00000000000E+00 0. -1.
         -1   -1    0    0    0  501 -0.00000000000E+00 -0.00000000000E+00 -0.88734048245E+02  0.88734048245E+02  0.00000000000E+00 0.  1.
         23    2    1    2    0    0 -0.78761288622E+02 -0.17637897925E+02 -0.77880041988E+01  0.12313798909E+03  0.92670789996E+02 0.  0.
          5    1    1    2  502    0 -0.77810715014E+00  0.41164639418E+02  0.15115065177E+03  0.15671351224E+03  0.41800000000E+01 0.  1.
         -5    1    1    2    0  502  0.79539395772E+02 -0.23526741493E+02  0.63668784031E+02  0.10464802676E+03  0.41800000000E+01 0.  1.
        -11    1    3    3    0    0  0.33046626408E+01 -0.34462923629E+02 -0.17520132143E+02  0.38801661440E+02  0.00000000000E+00 0.  1.
         11    1    3    3    0    0 -0.82065951263E+02  0.16825025704E+02  0.97321279442E+01  0.84336327647E+02  0.00000000000E+00 0. -1.
</event>
<event>
 7    1  0.6988825E-006  0.1136799E+03  0.7561462E-02  0.1253903E+00
          2   -1    0    0  501    0  0.00000000000E+00  0.00000000000E+00  0.22038984381E+03  0.22038984381E+03  0.00000000000E+00 0. -1.
         -2   -1    0    0    0  501 -0.00000000000E+00 -0.00000000000E+00 -0.11431328782E+03  0.11431328782E+03  0.00000000000E+00 0.  1.
         23    2    1    2    0    0  0.72191493108E+02 -0.61759409524E+02 -0.18771854476E+02  0.13405334385E+03  0.92693474067E+02 0.  0.
          5    1    1    2  502    0 -0.33255367988E+02  0.63322171468E+02  0.14108053770E+03  0.15823023547E+03  0.41800000000E+01 0.  1.
         -5    1    1    2    0  502 -0.38936125120E+02 -0.15627619438E+01 -0.16232127229E+02  0.42419552315E+02  0.41800000000E+01 0.  1.
        -11    1    3    3    0    0  0.21014959845E+02 -0.61875145603E+02  0.21648856528E+02  0.68839197916E+02  0.00000000000E+00 0. -1.
         11    1    3    3    0    0  0.51176533263E+02  0.11573607906E+00 -0.40420711004E+02  0.65214145933E+02  0.00000000000E+00 0.  1.
</event>
<event>
 7    1  0.6988825E-006  0.1525399E+03  0.7561462E-02  0.1197386E+00
          1   -1    0    0  501    0  0.00000000000E+00  0.00000000000E+00  0.13601697783E+03  0.13601697783E+03  0.00000000000E+00 0. -1.
         -1   -1    0    0    0  501 -0.00000000000E+00 -0.00000000000E+00 -0.30870743088E+03  0.30870743088E+03  0.00000000000E+00 0.  1.
         23    2    1    2    0    0  0.37211043885E+02 -0.12540703303E+03 -0.19894276602E+03  0.26183552563E+03  0.10894050032E+03 0.  0.
          5    1    1    2  502    0 -0.62767392856E+02  0.38557706577E+02 -0.26056243502E+02  0.78248594670E+02  0.41800000000E+01 0. -1.
         -5    1    1    2    0  502  0.25556348970E+02  0.86849326452E+02  0.52308556470E+02  0.10464028841E+03  0.41800000000E+01 0. -1.
        -11    1    3    3    0    0  0.44454550852E+02 -0.59024784795E+02 -0.29240310813E+02  0.79467780188E+02  0.00000000000E+00 0. -1.
         11    1    3    3    0    0 -0.72435069667E+01 -0.66382248234E+02 -0.16970245521E+03  0.18236774544E+03  0.00000000000E+00 0.  1.
</event>
<event>
 7    1  0.6988825E-006  0.1872009E+03  0.7561462E-02  0.1161010E+00
          2   -1    0    0  501    0  0.00000000000E+00  0.00000000000E+00  0.17583186743E+04  0.17583186743E+04  0.00000000000E+00 0. -1.
         -2   -1    0    0    0  501 -0.00000000000E+00 -0.00000000000E+00 -0.21508629423E+02  0.21508629423E+02  0.00000000000E+00 0.  1.
         23    2    1    2    0    0 -0.56900481420E+02  0.14601286795E+03  0.64108530072E+03  0.66624631616E+03  0.91303716257E+02 0.  0.
          5    1    1    2  502    0 -0.24144627786E+02 -0.94866778979E+02  0.43281377837E+03  0.44376560023E+03  0.41800000000E+01 0. -1.
         -5    1    1    2    0  502  0.81045109206E+02 -0.51146088976E+02  0.66291096583E+03  0.66981538737E+03  0.41800000000E+01 0.  1.
        -11    1    3    3    0    0  0.15469385185E+02 -0.21357065332E+01  0.39486829419E+02  0.42462604936E+02  0.00000000000E+00 0. -1.
         11    1    3    3    0    0 -0.72369866606E+02  0.14814857449E+03  0.60159847131E+03  0.62378371123E+03  0.00000000000E+00 0.  1.
</event>
<event>
 7    1  0.6988825E-006  0.1426683E+03  0.7561462E-02  0.1209783E+00
          1   -1    0    0  501    0  0.00000000000E+00  0.00000000000E+00  0.21584146935E+03  0.21584146935E+03  0.00000000000E+00 0. -1.
         -1   -1    0    0    0  501 -0.00000000000E+00 -0.00000000000E+00 -0.13406288829E+03  0.13406288829E+03  0.00000000000E+00 0.  1.
         23    2    1    2    0    0 -0.96570528170E+02 -0.45259590447E+01 -0.53481510071E+02  0.14185824902E+03  0.88978310166E+02 0.  0.
          5    1    1    2  502    0  0.11160405930E+03 -0.31808386143E+02  0.84068928163E+02  0.14336072183E+03  0.41800000000E+01 0. -1.
         -5    1    1    2    0  502 -0.15033531128E+02  0.36334345188E+02  0.51191162970E+02  0.64685386794E+02  0.41800000000E+01 0. -1.
        -11    1    3    3    0    0 -0.33876347790E+02 -0.44040205012E+02 -0.11688135125E+02  0.56778156890E+02  0.00000000000E+00 0. -1.
         11    1    3    3    0    0 -0.62694180381E+02  0.39514245968E+02 -0.41793374946E+02  0.85080092133E+02  0.00000000000E+00 0.  1.
</event>
<event>
 7    1  0.6988825E-006  0.1177097E+03  0.7561462E-02  0.1246924E+00
          2   -1    0    0  501    0  0.00000000000E+00  0.00000000000E+00  0.37395618757E+03  0.37395618757E+03  0.00000000000E+00 0.  1.
         -2   -1    0    0    0  501 -0.00000000000E+00 -0.00000000000E+00 -0.47743082434E+02  0.47743082434E+02  0.00000000000E+00 0. -1.
         23    2    1    2    0    0  0.35622203323E+02 -0.65324516770E+02  0.11760409248E+03  0.16733369294E+03  0.92917212410E+02 0.  0.
          5    1    1    2  502    0  0.42347038012E+02  0.47676346241E+02  0.74213899548E+02  0.97936106240E+02  0.41800000000E+01 0.  1.
         -5    1    1    2    0  502 -0.77969241335E+02  0.17648170529E+02  0.13439511311E+03  0.15642947083E+03  0.41800000000E+01 0.  1.
        -11    1    3    3    0    0  0.20430319494E+02  0.37215089800E+01 -0.87589304074E+01  0.22538110959E+02  0.00000000000E+00 0. -1.
         11    1    3    3    0    0  0.15191883830E+02 -0.69046025750E+02  0.12636302289E+03  0.14479558198E+03  0.00000000000E+00 0.  1.
</event>
<event>
 7    1  0.6988825E-006  0.1601345E+03  0.7561462E-02  0.1188545E+00
          1   -1    0    0  501    0  0.00000000000E+00  0.00000000000E+00  0.20956731769E+03  0.20956731769E+03  0.00000000000E+00 0. -1.
         -1   -1    0    0    0  501 -0.00000000000E+00 -0.00000000000E+00 -0.17202196511E+03  0.17202196511E+03  0.00000000000E+00 0.  1.
         23    2    1    2    0    0 -0.13530879462E+03  0.78320436287E+02 -0.10869175504E+02  0.17560017983E+03  0.79213152565E+02 0.  0.
          5    1    1    2  502    0  0.12992835833E+02  0.51676329069E+01 -0.33613278492E+02  0.36644823698E+02  0.41800000000E+01 0. -1.
         -5    1    1    2    0  502  0.12231595879E+03 -0.83488069194E+02  0.82027806568E+02  0.16934427927E+03  0.41800000000E+01 0. -1.
        -11    1    3    3    0    0 -0.65255666714E+02  0.48891808133E+02  0.32883001098E+02  0.87920433928E+02  0.00000000000E+00 0. -1.
         11    1    3    3    0    0 -0.70053127905E+02  0.29428628153E+02 -0.43752176602E+02  0.87679745904E+02  0.00000000000E+00 0.  1.
</event>
<event>
 7    1  0.6988825E-006  0.1714461E+03  0.7561462E-02  0.1176348E+00
          2   -1    0    0  501    0  0.00000000000E+00  0.00000000000E+00  0.24510677199E+03  0.24510677199E+03  0.00000000000E+00 0. -1.
         -2   -1    0    0    0  501 -0.00000000000E+00 -0.00000000000E+00 -0.13444540179E+03  0.13444540179E+03  0.00000000000E+00 0.  1.
         23    2    1    2    0    0 -0.12658686133E+03  0.70657595092E+02  0.59171255741E+02  0.18126918645E+03  0.91326618504E+02 0.  0.
          5    1    1    2  502    0  0.58273358724E+02 -0.90659399663E+02 -0.40055235887E+01  0.10792788196E+03  0.41800000000E+01 0. -1.
         -5    1    1    2    0  502  0.68313502602E+02  0.20001804571E+02  0.55495638043E+02  0.90355105366E+02  0.41800000000E+01 0. -1.
        -11    1    3    3    0    0 -0.10128673725E+03  0.87078398597E+02  0.25358106206E+02  0.13595839141E+03  0.00000000000E+00 0.  1.
         11    1    3    3    0    0 -0.25300124080E+02 -0.16420803505E+02  0.33813149535E+02  0.45310795045E+02  0.00000000000E+00 0. -1.
</event>
<event>
 7    1  0.6988825E-006  0.1017563E+03  0.7561462E-02  0.1276645E+00
         -1   -1    0    0    0  501 -0.00000000000E+00  0.00000000000E+00  0.62678371632E+02  0.62678371632E+02  0.00000000000E+00 0.  1.
          1   -1    0    0  501    0  0.00000000000E+00 -0.00000000000E+00 -0.22607322884E+03  0.22607322884E+03  0.00000000000E+00 0. -1.
         23    2    1    2    0    0 -0.26306732723E+02  0.34679095243E+02 -0.64753157165E+02  0.12360718911E+03  0.95870130930E+02 0.  0.
          5    1    1    2  502    0  0.70131036602E+02 -0.31194929938E+01 -0.82953699273E+02  0.10875146967E+03  0.41800000000E+01 0. -1.
         -5    1    1    2    0  502 -0.43824303879E+02 -0.31559602249E+02 -0.15688000771E+02  0.56392941693E+02  0.41800000000E+01 0. -1.
        -11    1    3    3    0    0 -0.35843362676E+02  0.49670834729E+02 -0.52153817326E+01  0.61474699489E+02  0.00000000000E+00 0.  1.
         11    1    3    3    0    0  0.95366299526E+01 -0.14991739486E+02 -0.59537775433E+02  0.62132489626E+02  0.00000000000E+00 0. -1.
</event>
<event>
 7    1  0.6988825E-006  0.8397542E+02  0.7561462E-02  0.1318134E+00
          1   -1    0    0  501    0  0.00000000000E+00  0.00000000000E+00  0.23613691117E+03  0.23613691117E+03  0.00000000000E+00 0. -1.
         -1   -1    0    0    0  501 -0.00000000000E+00 -0.00000000000E+00 -0.10249245982E+03  0.10249245982E+03  0.00000000000E+00 0.  1.
         23    2    1    2    0    0 -0.46818824704E+02 -0.43246295962E+02 -0.36537844977E+02  0.11801263023E+03  0.92356495802E+02 0.  0.
          5    1    1    2  502    0 -0.94202185053E+01  0.45663397724E+02  0.15535686744E+03  0.16225632520E+03  0.41800000000E+01 0. -1.
         -5    1    1    2    0  502  0.56239043209E+02 -0.24171017621E+01  0.14825428897E+02  0.58360415557E+02  0.41800000000E+01 0. -1.
        -11    1    3    3    0    0 -0.31461942830E+02 -0.35690262335E+02 -0.67530861901E+02  0.82607905077E+02  0.00000000000E+00 0.  1.
         11    1    3    3    0    0 -0.15356881874E+02 -0.75560336266E+01  0.30993016923E+02  0.35404725152E+02  0.00000000000E+00 0. -1.
</event>
<event>
 7    1  0.6988825E-006  0.1026094E+03  0.7561462E-02  0.1274902E+00
         -1   -1    0    0    0  501 -0.00000000000E+00  0.00000000000E+00  0.36370774180E+03  0.36370774180E+03  0.00000000000E+00 0.  1.
          1   -1    0    0  501    0  0.00000000000E+00 -0.00000000000E+00 -0.42943576504E+02  0.42943576504E+02  0.00000000000E+00 0. -1.
         23    2    1    2    0    0  0.41031220593E+02  0.46494805591E+02  0.15132154666E+03  0.18710014733E+03  0.90900641553E+02 0.  0.
          5    1    1    2  502    0 -0.71933441875E+02 -0.56816762302E+02  0.71744070873E+02  0.11647853297E+03  0.41800000000E+01 0.  1.
         -5    1    1    2    0  502  0.30902221282E+02  0.10321956711E+02  0.97698547757E+02  0.10307263800E+03  0.41800000000E+01 0.  1.
        -11    1    3    3    0    0 -0.43744476782E+01  0.32933764068E+02  0.13167462995E+03  0.13580123998E+03  0.00000000000E+00 0.  1.
         11    1    3    3    0    0  0.45405668271E+02  0.13561041524E+02  0.19646916713E+02  0.51298907344E+02  0.00000000000E+00 0. -1.
</event>
<event>
 7    1  0.6988825E-006  0.9505847E+02  0.7561462E-02  0.1291044E+00
          2   -1    0    0  501    0  0.00000000000E+00  0.00000000000E+00  0.53424891729E+03  0.53424891729E+03  0.00000000000E+00 0. -1.
         -2   -1    0    0    0  501 -0.00000000000E+00 -0.00000000000E+00 -0.30582546380E+02  0.30582546380E+02  0.00000000000E+00 0.  1.
         23    2    1    2    0    0 -0.61800530817E+02  0.58091167931E+01  0.20892166223E+03  0.23867990458E+03  0.97297402094E+02 0.  0.
          5    1    1    2  502    0  0.69033812100E+02 -0.46523098842E+02  0.11726420589E+03  0.14386949754E+03  0.41800000000E+01 0. -1.
         -5    1    1    2    0  502 -0.72332812828E+01  0.40713982049E+02  0.17748050279E+03  0.18228206155E+03  0.41800000000E+01 0. -1.
        -11    1    3    3    0    0 -0.47213335966E+02 -0.43699695390E+01  0.21478071473E+03  0.21995215650E+03  0.00000000000E+00 0. -1.
         11    1    3    3    0    0 -0.14587194851E+02  0.10179086332E+02 -0.58590524990E+01  0.18727748086E+02  0.00000000000E+00 0.  1.
</event>
<event>
 7    1  0.6988825E-006  0.1504298E+03  0.7561462E-02  0.1199946E+00
          4   -1    0    0  501    0  0.00000000000E+00  0.00000000000E+00  0.31450451573E+03  0.31450451573E+03  0.00000000000E+00 0.  1.
         -4   -1    0    0    0  501 -0.00000000000E+00 -0.00000000000E+00 -0.11060399444E+03  0.11060399444E+03  0.00000000000E+00 0. -1.
         23    2    1    2    0    0  0.41384479916E+02  0.10951623848E+03 -0.11003586502E+02  0.15026624983E+03  0.93554183509E+02 0.  0.
          5    1    1    2  502    0 -0.49088163531E+02  0.30719342684E+01  0.28782051502E+02  0.57139858835E+02  0.41800000000E+01 0. -1.
         -5    1    1    2    0  502  0.77036836155E+01 -0.11258817275E+03  0.18612205629E+03  0.21770240151E+03  0.41800000000E+01 0. -1.
        -11    1    3    3    0    0  0.35413112893E+02  0.72735532566E+01  0.22412183487E+02  0.42535856761E+02  0.00000000000E+00 0.  1.
         11    1    3    3    0    0  0.59713670231E+01  0.10224268523E+03 -0.33415769989E+02  0.10773039307E+03  0.00000000000E+00 0. -1.
</event>
<event>
 7    1  0.6988825E-006  0.9249559E+02  0.7561462E-02  0.1296918E+00
         -1   -1    0    0    0  501 -0.00000000000E+00  0.00000000000E+00  0.36272011544E+02  0.36272011544E+02  0.00000000000E+00 0.  1.
          1   -1    0    0  501    0  0.00000000000E+00 -0.00000000000E+00 -0.56513353267E+03  0.56513353267E+03  0.00000000000E+00 0. -1.
         23    2    1    2    0    0  0.54168844027E+02  0.21502822120E+02 -0.88974339832E+02  0.14037946449E+03  0.91615096350E+02 0.  0.
          5    1    1    2  502    0 -0.35271078919E+02  0.18913867155E+02 -0.34023047692E+02  0.52695574322E+02  0.41800000000E+01 0.  1.
         -5    1    1    2    0  502 -0.18897765108E+02 -0.40416689275E+02 -0.40586413360E+03  0.40833050540E+03  0.41800000000E+01 0.  1.
        -11    1    3    3    0    0  0.25424170985E+02 -0.30994258776E+02 -0.10051221282E+02  0.41328677653E+02  0.00000000000E+00 0.  1.
         11    1    3    3    0    0  0.28744673043E+02  0.52497080896E+02 -0.78923118551E+02  0.99050786835E+02  0.00000000000E+00 0. -1.
</event>
<event>
 7    1  0.6988825E-006  0.1140020E+03  0.7561462E-02  0.1253333E+00
         -2   -1    0    0    0  501 -0.00000000000E+00  0.00000000000E+00  0.30897136507E+02  0.30897136507E+02  0.00000000000E+00 0.  1.
          2   -1    0    0  501    0  0.00000000000E+00 -0.00000000000E+00 -0.67202758371E+03  0.67202758371E+03  0.00000000000E+00 0. -1.
         23    2    1    2    0    0  0.31189680463E+02 -0.73385855399E+01 -0.10899618684E+03  0.15534716303E+03  0.10595244835E+03 0.  0.
          5    1    1    2  502    0 -0.43840150473E+02 -0.52027863876E+02 -0.29301483267E+03  0.30083886381E+03  0.41800000000E+01 0.  1.
         -5    1    1    2    0  502  0.12650470010E+02  0.59366449416E+02 -0.23911942769E+03  0.24673869338E+03  0.41800000000E+01 0.  1.
        -11    1    3    3    0    0  0.44461533540E+02 -0.42443009370E+02 -0.98964897502E+02  0.11650016286E+03  0.00000000000E+00 0. -1.
         11    1    3    3    0    0 -0.13271853077E+02  0.35104423830E+02 -0.10031289336E+02  0.38847000171E+02  0.00000000000E+00 0.  1.
</event>
<event>
 7    1  0.8682326E-006  0.1403427E+03  0.7561462E-02  0.1212869E+00
         -1   -1    0    0    0  501 -0.00000000000E+00  0.00000000000E+00  0.37280905004E+02  0.37280905004E+02  0.00000000000E+00 0.  1.
          1   -1    0    0  501    0  0.00000000000E+00 -0.00000000000E+00 -0.83480375568E+03  0.83480375568E+03  0.00000000000E+00 0. -1.
         23    2    1    2    0    0  0.12248883348E+03 -0.75906882396E+01 -0.21325442032E+03  0.26210245002E+03  0.90327812145E+02 0.  0.
          5    1    1    2  502    0 -0.10015612938E+02  0.11370365309E+02 -0.79292784456E+00  0.15738451143E+02  0.41800000000E+01 0.  1.
         -5    1    1    2    0  502 -0.11247322054E+03 -0.37796770698E+01 -0.58347550252E+03  0.59424375953E+03  0.41800000000E+01 0.  1.
        -11    1    3    3    0    0  0.68339015685E+02  0.40918181330E+02 -0.11405663515E+03  0.13911662248E+03  0.00000000000E+00 0.  1.
         11    1    3    3    0    0  0.54149817792E+02 -0.48508869569E+02 -0.99197785166E+02  0.12298582754E+03  0.00000000000E+00 0. -1.
</event>
<event>
 7    1  0.6988825E-006  0.9551256E+02  0.7561462E-02  0.1290026E+00
         -1   -1    0    0    0  501 -0.00000000000E+00  0.00000000000E+00  0.53348175469E+02  0.53348175469E+02  0.00000000000E+00 0.  1.
          1   -1    0    0  501    0  0.00000000000E+00 -0.00000000000E+00 -0.47569271179E+03  0.47569271179E+03  0.00000000000E+00 0. -1.
         23    2    1    2    0    0 -0.72004231445E+02 -0.55362563311E+02 -0.77130009992E+02  0.15079527433E+03  0.92415115412E+02 0.  0.
          5    1    1    2  502    0  0.66996380131E+02  0.36748964905E+02 -0.74462412764E+02  0.10677604922E+03  0.41800000000E+01 0. -1.
         -5    1    1    2    0  502  0.50078513142E+01  0.18613598406E+02 -0.27075211356E+03  0.27146956371E+03  0.41800000000E+01 0. -1.
        -11    1    3    3    0    0 -0.21767375820E+02 -0.33580135105E+02  0.15725963991E+02  0.42997093706E+02  0.00000000000E+00 0.  1.
         11    1    3    3    0    0 -0.50236855625E+02 -0.21782428206E+02 -0.92855973982E+02  0.10779818062E+03  0.00000000000E+00 0. -1.
</event>
<event>
 7    1  0.6988825E-006  0.1060367E+03  0.7561462E-02  0.1268090E+00
         -4   -1    0    0    0  501 -0.00000000000E+00  0.00000000000E+00  0.20688725472E+02  0.20688725472E+02  0.00000000000E+00 0.  1.
          4   -1    0    0  501    0  0.00000000000E+00 -0.00000000000E+00 -0.65377045332E+03  0.65377045332E+03  0.00000000000E+00 0. -1.
         23    2    1    2    0    0  0.39339460502E+02  0.11604332079E+02 -0.23130686566E+03  0.25166727085E+03  0.90284524927E+02 0.  0.
          5    1    1    2  502    0 -0.76653300963E+02  0.42016096522E+00 -0.15590082195E+03  0.17377699436E+03  0.41800000000E+01 0.  1.
         -5    1    1    2    0  502  0.37313840461E+02 -0.12024493044E+02 -0.24587404023E+03  0.24901491358E+03  0.41800000000E+01 0.  1.
        -11    1    3    3    0    0  0.28947346568E+01 -0.35893833406E+02 -0.57573315590E+02  0.67907535910E+02  0.00000000000E+00 0.  1.
         11    1    3    3    0    0  0.36444725845E+02  0.47498165485E+02 -0.17373355007E+03  0.18375973494E+03  0.00000000000E+00 0. -1.
</event>
<event>
 7    1  0.6988825E-006  0.1067270E+03  0.7561462E-02  0.1266754E+00
          4   -1    0    0  501    0  0.00000000000E+00  0.00000000000E+00  0.15040463442E+03  0.15040463442E+03  0.00000000000E+00 0. -1.
         -4   -1    0    0    0  501 -0.00000000000E+00 -0.00000000000E+00 -0.11717047555E+03  0.11717047555E+03  0.00000000000E+00 0.  1.
         23    2    1    2    0    0 -0.61039255110E+02 -0.26131026348E+01 -0.27838249308E+02  0.11555496761E+03  0.94049792366E+02 0.  0.
          5    1    1    2  502    0 -0.14111930887E+02  0.35826568330E+02  0.57936409580E+02  0.69690670442E+02  0.41800000000E+01 0. -1.
         -5    1    1    2    0  502  0.75151185997E+02 -0.33213465695E+02  0.31359986045E+01  0.82329471925E+02  0.41800000000E+01 0. -1.
        -11    1    3    3    0    0  0.15686557150E+02 -0.16368475244E+00 -0.35101223203E+02  0.38447246172E+02  0.00000000000E+00 0.  1.
         11    1    3    3    0    0 -0.76725812260E+02 -0.24494178824E+01  0.72629738947E+01  0.77107721434E+02  0.00000000000E+00 0. -1.
</event>
<event>
 7    1  0.6988825E-006  0.1116970E+03  0.7561462E-02  0.1257459E+00
         -1   -1    0    0    0  501 -0.00000000000E+00  0.00000000000E+00  0.29194833114E+02  0.29194833114E+02  0.00000000000E+00 0.  1.
          1   -1    0    0  501    0  0.00000000000E+00 -0.00000000000E+00 -0.62315462252E+03  0.62315462252E+03  0.00000000000E+00 0. -1.
         23    2    1    2    0    0  0.42242541404E+02 -0.68989483925E+02 -0.26482993260E+03  0.29107616201E+03  0.89702049567E+02 0.  0.
          5    1    1    2  502    0 -0.29918354739E+02 -0.30033572713E+02 -0.15276004880E+03  0.15858823522E+03  0.41800000000E+01 0.  1.
         -5    1    1    2    0  502 -0.12324186665E+02  0.99023056638E+02 -0.17636980801E+03  0.20268505840E+03  0.41800000000E+01 0.  1.
        -11    1    3    3    0    0  0.15510306851E+02 -0.23439983543E+02 -0.85033751485E+01  0.29365112566E+02  0.00000000000E+00 0.  1.
         11    1    3    3    0    0  0.26732234553E+02 -0.45549500382E+02 -0.25632655745E+03  0.26171104945E+03  0.00000000000E+00 0. -1.
</event>
<event>
 7    1  0.6988825E-006  0.1048515E+03  0.7561462E-02  0.1270412E+00
          2   -1    0    0  501    0  0.00000000000E+00  0.00000000000E+00  0.80047657191E+03  0.80047657191E+03  0.00000000000E+00 0. -1.
         -2   -1    0    0    0  501 -0.00000000000E+00 -0.00000000000E+00 -0.20489859718E+02  0.20489859718E+02  0.00000000000E+00 0.  1.
         23    2    1    2    0    0 -0.27231428699E+02  0.27438974578E+02  0.15516685062E+03  0.18257671994E+03  0.88108223782E+02 0.  0.
          5    1    1    2  502    0  0.27000203498E+02 -0.73588963603E+02  0.47883848589E+03  0.48522996045E+03  0.41800000000E+01 0. -1.
         -5    1    1    2    0  502  0.23122520058E+00  0.46149989024E+02  0.14598137569E+03  0.15315975124E+03  0.41800000000E+01 0. -1.
        -11    1    3    3    0    0  0.17767553799E+02  0.34985714503E+02  0.11595758892E+03  0.12241670073E+03  0.00000000000E+00 0. -1.
         11    1    3    3    0    0 -0.44998982498E+02 -0.75467399241E+01  0.39209261696E+02  0.60160019216E+02  0.00000000000E+00 0.  1.
</event>
<event>
 7    1  0.6988825E-006  0.1063261E+03  0.7561462E-02  0.1267529E+00
          2   -1    0    0  501    0  0.00000000000E+00  0.00000000000E+00  0.58147156217E+03  0.58147156217E+03  0.00000000000E+00 0. -1.
         -2   -1    0    0    0  501 -0.00000000000E+00 -0.00000000000E+00 -0.25624392096E+02  0.25624392096E+02  0.00000000000E+00 0.  1.
         23    2    1    2    0    0 -0.24014429614E+02 -0.34235702349E+02  0.14971452511E+03  0.18008468814E+03  0.90924582649E+02 0.  0.
          5    1    1    2  502    0  0.67423739709E+00  0.69775967673E+02  0.13009234202E+03  0.14768422432E+03  0.41800000000E+01 0.  1.
         -5    1    1    2    0  502  0.23340192217E+02 -0.35540265324E+02  0.27604030295E+03  0.27932704181E+03  0.41800000000E+01 0.  1.
        -11    1    3    3    0    0  0.12505650085E+02 -0.56087949636E+02  0.88989897783E+02  0.10593135176E+03  0.00000000000E+00 0. -1.
         11    1    3    3    0    0 -0.36520079699E+02  0.21852247287E+02  0.60724627325E+02  0.74153336381E+02  0.00000000000E+00 0.  1.
</event>
<event>
 7    1  0.6988825E-006  0.2055394E+03  0.7561462E-02  0.1145148E+00
         -2   -1    0    0    0  501 -0.00000000000E+00  0.00000000000E+00  0.59750975236E+02  0.59750975236E+02  0.00000000000E+00 0.  1.
          2   -1    0    0  501    0  0.00000000000E+00 -0.00000000000E+00 -0.85665638263E+03  0.85665638263E+03  0.00000000000E+00 0. -1.
         23    2    1    2    0    0  0.15741281058E+03  0.92077846360E+02 -0.25272632302E+03  0.32900937068E+03  0.10544879765E+03 0.  0.
          5    1    1    2  502    0 -0.13956904178E+03 -0.11584987103E+03 -0.38753157824E+03  0.42790058025E+03  0.41800000000E+01 0. -1.
         -5    1    1    2    0  502 -0.17843768796E+02  0.23772024669E+02 -0.15664750613E+03  0.15949740694E+03  0.41800000000E+01 0. -1.
        -11    1    3    3    0    0  0.86204901961E+02  0.39055331932E+01 -0.58895807299E+02  0.10447609501E+03  0.00000000000E+00 0.  1.
         11    1    3    3    0    0  0.71207908619E+02  0.88172313166E+02 -0.19383051572E+03  0.22453327567E+03  0.00000000000E+00 0. -1.
</event>
<event>
 7    1  0.6988825E-006  0.1089028E+03  0.7561462E-02  0.1262615E+00
          2   -1    0    0  501    0  0.00000000000E+00  0.00000000000E+00  0.11066510899E+03  0.11066510899E+03  0.00000000000E+00 0. -1.
         -2   -1    0    0    0  501 -0.00000000000E+00 -0.00000000000E+00 -0.13142221013E+03  0.13142221013E+03  0.00000000000E+00 0.  1.
         23    2    1    2    0    0 -0.38755690668E+02 -0.83327389004E+01 -0.46616806429E+02  0.10834125978E+03  0.89405054846E+02 0.  0.
          5    1    1    2  502    0  0.21673722349E+02 -0.52368338937E+02 -0.14639706796E+02  0.58685488654E+02  0.41800000000E+01 0.  1.
         -5    1    1    2    0  502  0.17081968320E+02  0.60701077838E+02  0.40499412085E+02  0.75060570685E+02  0.41800000000E+01 0.  1.
        -11    1    3    3    0    0  0.26485795644E+02  0.12505471193E+02 -0.12937897122E+02  0.32019890109E+02  0.00000000000E+00 0.  1.
         11    1    3    3    0    0 -0.65241486312E+02 -0.20838210094E+02 -0.33678909306E+02  0.76321369669E+02  0.00000000000E+00 0. -1.
</event>
<event>
 7    1  0.6988825E-006  0.1115881E+03  0.7561462E-02  0.1257657E+00
          1   -1    0    0  501    0  0.00000000000E+00  0.00000000000E+00  0.15442328795E+03  0.15442328795E+03  0.00000000000E+00 0. -1.
         -1   -1    0    0    0  501 -0.00000000000E+00 -0.00000000000E+00 -0.97284209688E+02  0.97284209688E+02  0.00000000000E+00 0.  1.
         23    2    1    2    0    0 -0.43428507843E+02 -0.28536042533E+02 -0.21395044989E+01  0.10384683328E+03  0.89884627643E+02 0.  0.
          5    1    1    2  502    0  0.86945515182E+02  0.18694901204E+02  0.28438604064E+02  0.93462551551E+02  0.41800000000E+01 0.  1.
         -5    1    1    2    0  502 -0.43517007339E+02  0.98411413291E+01  0.30839978693E+02  0.54398112800E+02  0.41800000000E+01 0.  1.
        -11    1    3    3    0    0 -0.57461029687E+02  0.81797449505E-01 -0.26938864017E+02  0.63462422095E+02  0.00000000000E+00 0.  1.
         11    1    3    3    0    0  0.14032521844E+02 -0.28617839982E+02  0.24799359518E+02  0.40384411189E+02  0.00000000000E+00 0. -1.
</event>
<event>
 6    1  0.7275823E-006  0.1611076E+03  0.7561462E-02  0.1187452E+00
         -2   -1    0    0    0  501 -0.00000000000E+00  0.00000000000E+00  0.39551187136E+02  0.39551187136E+02  0.00000000000E+00 0.  1.
          2   -1    0    0  501    0  0.00000000000E+00 -0.00000000000E+00 -0.69022721098E+03  0.69022721098E+03  0.00000000000E+00 0. -1.
          5    1    1    2  502    0 -0.30796162799E+02  0.26751218229E+02 -0.13432478107E+03  0.14044447490E+03  0.41800000000E+01 0. -1.
         -5    1    1    2    0  502 -0.13745208615E+02 -0.11543796110E+03 -0.25049723274E+03  0.27619049519E+03  0.41800000000E+01 0. -1.
        -11    1    1    2    0    0 -0.47227263346E+02  0.29770490036E+02 -0.77815826654E+02  0.95770555799E+02  0.00000000000E+00 0. -1.
         11    1    1    2    0    0  0.91768634760E+02  0.58916252831E+02 -0.18803818338E+03  0.21737287223E+03  0.00000000000E+00 0.  1.
</event>
<event>
 7    1  0.6988825E-006  0.1043738E+03  0.7561462E-02  0.1271358E+00
         -1   -1    0    0    0  501 -0.00000000000E+00  0.00000000000E+00  0.56227218588E+02  0.56227218588E+02  0.00000000000E+00 0.  1.
          1   -1    0    0  501    0  0.00000000000E+00 -0.00000000000E+00 -0.33065608169E+03  0.33065608169E+03  0.00000000000E+00 0. -1.
         23    2    1    2    0    0  0.90387758933E+01  0.82797998127E+02 -0.14130023809E+03  0.18615753906E+03  0.88043535251E+02 0.  0.
          5    1    1    2  502    0 -0.48538844494E+02 -0.64878026233E+02 -0.13455881897E+03  0.15712646459E+03  0.41800000000E+01 0. -1.
         -5    1    1    2    0  502  0.39500068601E+02 -0.17919971894E+02  0.14301939548E+01  0.43599296633E+02  0.41800000000E+01 0. -1.
        -11    1    3    3    0    0  0.51602457639E+01  0.11158422806E+02  0.11825194773E+02  0.17057953197E+02  0.00000000000E+00 0.  1.
         11    1    3    3    0    0  0.38785301295E+01  0.71639575321E+02 -0.15312543286E+03  0.16909958586E+03  0.00000000000E+00 0. -1.
</event>
<event>
 7    1  0.6988825E-006  0.9423141E+02  0.7561462E-02  0.1292917E+00
          2   -1    0    0  501    0  0.00000000000E+00  0.00000000000E+00  0.40784155019E+03  0.40784155019E+03  0.00000000000E+00 0. -1.
         -2   -1    0    0    0  501 -0.00000000000E+00 -0.00000000000E+00 -0.83401610080E+02  0.83401610080E+02  0.00000000000E+00 0.  1.
         23    2    1    2    0    0 -0.25685090562E+02  0.52921369209E+02 -0.26719294191E+02  0.11224952768E+03  0.91791288177E+02 0.  0.
          5    1    1    2  502    0  0.42382631543E+02 -0.38013939752E+02  0.35161429206E+03  0.35621823347E+03  0.41800000000E+01 0. -1.
         -5    1    1    2    0  502 -0.16697540981E+02 -0.14907429457E+02 -0.45505776124E+00  0.22775399127E+02  0.41800000000E+01 0.  1.
        -11    1    3    3    0    0 -0.39248625362E+02  0.73870112500E+02 -0.16390605627E+02  0.85240249099E+02  0.00000000000E+00 0.  1.
         11    1    3    3    0    0  0.13563534800E+02 -0.20948743292E+02 -0.10328688565E+02  0.27009278577E+02  0.00000000000E+00 0. -1.
</event>
<event>
 7    1  0.6988825E-006  0.1162518E+03  0.7561462E-02  0.1249412E+00
         -1   -1    0    0    0  501 -0.00000000000E+00  0.00000000000E+00  0.18768162168E+02  0.18768162168E+02  0.00000000000E+00 0.  1.
          1   -1    0    0  501    0  0.00000000000E+00 -0.00000000000E+00 -0.12134159028E+04  0.12134159028E+04  0.00000000000E+00 0. -1.
         23    2    1    2    0    0  0.57373818700E+02  0.27364267974E+02 -0.24759164329E+03  0.27479022117E+03  0.10083395057E+03 0.  0.
          5    1    1    2  502    0 -0.86302275599E+02  0.96974174373E+01 -0.46716239707E+03  0.47518449081E+03  0.41800000000E+01 0.  1.
         -5    1    1    2    0  502  0.28928456899E+02 -0.37061685411E+02 -0.47989370026E+03  0.48220935297E+03  0.41800000000E+01 0.  1.
        -11    1    3    3    0    0  0.40037693627E+01  0.42652819311E+02 -0.19010650755E+03  0.19487374727E+03  0.00000000000E+00 0. -1.
         11    1    3    3    0    0  0.53370049338E+02 -0.15288551338E+02 -0.57485135747E+02  0.79916473897E+02  0.00000000000E+00 0.  1.
</event>
<event>
 7    1  0.6988825E-006  0.3673942E+03  0.7561462E-02  0.1055694E+00
          2   -1    0    0  501    0  0.00000000000E+00  0.00000000000E+00  0.14001460929E+04  0.14001460929E+04  0.00000000000E+00 0. -1.
         -2   -1    0    0    0  501 -0.00000000000E+00 -0.00000000000E+00 -0.97734366219E+02  0.97734366219E+02  0.00000000000E+00 0.  1.
         23    2    1    2    0    0 -0.70905520623E+02  0.34411988250E+03  0.58126515752E+03  0.68600252398E+03  0.96354518216E+02 0.  0.
          5    1    1    2  502    0  0.42605287532E+02 -0.19641373534E+02  0.84580707721E+02  0.96810963214E+02  0.41800000000E+01 0. -1.
         -5    1    1    2    0  502  0.28300233091E+02 -0.32447850897E+03  0.63656586145E+03  0.71506697193E+03  0.41800000000E+01 0. -1.
        -11    1    3    3    0    0 -0.88079310953E+02  0.22545290004E+03  0.35063040674E+03  0.42606179985E+03  0.00000000000E+00 0.  1.
         11    1    3    3    0    0  0.17173790330E+02  0.11866698246E+03  0.23063475077E+03  0.25994072414E+03  0.00000000000E+00 0. -1.
</event>
<event>
 7    1  0.6988825E-006  0.7482482E+02  0.7561462E-02  0.1344414E+00
         -2   -1    0    0    0  501 -0.00000000000E+00  0.00000000000E+00  0.39699475512E+02  0.39699475512E+02  0.00000000000E+00 0. -1.
          2   -1    0    0  501    0  0.00000000000E+00 -0.00000000000E+00 -0.35348699763E+03  0.35348699763E+03  0.00000000000E+00 0.  1.
         23    2    1    2    0    0  0.32182013593E+02  0.20650899947E+02 -0.12394924806E+03  0.16264829507E+03  0.98127010168E+02 0.  0.
          5    1    1    2  502    0 -0.32550303937E+01 -0.35979712142E+02  0.14764873871E+01  0.36397627996E+02  0.41800000000E+01 0.  1.
         -5    1    1    2    0  502 -0.28926983199E+02  0.15328812196E+02 -0.19131476145E+03  0.19414055008E+03  0.41800000000E+01 0.  1.
        -11    1    3    3    0    0  0.50213083906E+02 -0.32744199501E+01 -0.12275191469E+03  0.13266539934E+03  0.00000000000E+00 0.  1.
         11    1    3    3    0    0 -0.18031070313E+02  0.23925319897E+02 -0.11973333699E+01  0.29982895724E+02  0.00000000000E+00 0. -1.
</event>
<event>
 7    1  0.6988825E-006  0.7471803E+02  0.7561462E-02  0.1344746E+00
          1   -1    0    0  501    0  0.00000000000E+00  0.00000000000E+00  0.74861903904E+02  0.74861903904E+02  0.00000000000E+00 0. -1.
         -1   -1    0    0    0  501 -0.00000000000E+00 -0.00000000000E+00 -0.19565134782E+03  0.19565134782E+03  0.00000000000E+00 0.  1.
         23    2    1    2    0    0 -0.27802512938E+02 -0.45381728428E+02 -0.61281957084E+02  0.12211340911E+03  0.91234453028E+02 0.  0.
          5    1    1    2  502    0 -0.19316405639E+02  0.32029348092E+01 -0.79469596353E+02  0.81952861224E+02  0.41800000000E+01 0. -1.
         -5    1    1    2    0  502  0.47118918577E+02  0.42178793619E+02  0.19962109525E+02  0.66446981389E+02  0.41800000000E+01 0. -1.
        -11    1    3    3    0    0 -0.71507668204E+01 -0.44810537126E+02  0.11204464635E+02  0.46740322328E+02  0.00000000000E+00 0. -1.
         11    1    3    3    0    0 -0.20651746118E+02 -0.57119130254E+00 -0.72486421718E+02  0.75373086780E+02  0.00000000000E+00 0.  1.
</event>
<event>
 7    1  0.6988825E-006  0.9696492E+02  0.7561462E-02  0.1286811E+00
         -3   -1    0    0    0  501 -0.00000000000E+00  0.00000000000E+00  0.42470020690E+02  0.42470020690E+02  0.00000000000E+00 0.  1.
          3   -1    0    0  501    0  0.00000000000E+00 -0.00000000000E+00 -0.30343821158E+03  0.30343821158E+03  0.00000000000E+00 0. -1.
         23    2    1    2    0    0  0.36653540724E+02 -0.62836570764E+01 -0.10850817537E+03  0.14522186264E+03  0.89064015594E+02 0.  0.
          5    1    1    2  502    0 -0.32952141164E+02  0.49923394260E+02 -0.14386191006E+03  0.15585862333E+03  0.41800000000E+01 0. -1.
         -5    1    1    2    0  502 -0.37013995603E+01 -0.43639737183E+02 -0.85981054627E+01  0.44827746292E+02  0.41800000000E+01 0. -1.
        -11    1    3    3    0    0 -0.35626507996E+01 -0.38362419807E+02 -0.73534417926E+02  0.83016133094E+02  0.00000000000E+00 0. -1.
         11    1    3    3    0    0  0.40216191523E+02  0.32078762730E+02 -0.34973757439E+02  0.62205729546E+02  0.00000000000E+00 0.  1.
</event>
<event>
 7    1  0.6988825E-006  0.1161135E+03  0.7561462E-02  0.1249650E+00
         -2   -1    0    0    0  501 -0.00000000000E+00  0.00000000000E+00  0.53541266335E+02  0.53541266335E+02  0.00000000000E+00 0.  1.
          2   -1    0    0  501    0  0.00000000000E+00 -0.00000000000E+00 -0.40726978120E+03  0.40726978120E+03  0.00000000000E+00 0. -1.
         23    2    1    2    0    0  0.89318022438E+02  0.38020379641E+02 -0.13078908406E+03  0.18736353554E+03  0.92606973492E+02 0.  0.
          5    1    1    2  502    0  0.11024334966E+02 -0.32091496933E+02 -0.13678990352E+03  0.14099769587E+03  0.41800000000E+01 0.  1.
         -5    1    1    2    0  502 -0.10034235740E+03 -0.59288827082E+01 -0.86149527282E+02  0.13244981612E+03  0.41800000000E+01 0.  1.
        -11    1    3    3    0    0  0.25083554797E+02  0.14841812839E+02  0.10060162963E+02  0.30832953288E+02  0.00000000000E+00 0.  1.
         11    1    3    3    0    0  0.64234467641E+02  0.23178566802E+02 -0.14084924703E+03  0.15653058225E+03  0.00000000000E+00 0. -1.
</event>
<event>
 7    1  0.6988825E-006  0.1156519E+03  0.7561462E-02  0.1250447E+00
         -1   -1    0    0    0  501 -0.00000000000E+00  0.00000000000E+00  0.12259680615E+03  0.12259680615E+03  0.00000000000E+00 0.  1.
          1   -1    0    0  501    0  0.00000000000E+00 -0.00000000000E+00 -0.12719579745E+03  0.12719579745E+03  0.00000000000E+00 0. -1.
         23    2    1    2    0    0  0.45160402357E+02 -0.37460550592E+02  0.94569014826E+01  0.11091376873E+03  0.93646549947E+02 0.  0.
          5    1    1    2  502    0  0.26199498048E+01  0.66375318507E+02  0.24457665859E+02  0.70909779743E+02  0.41800000000E+01 0.  1.
         -5    1    1    2    0  502 -0.47780352162E+02 -0.28914767915E+02 -0.38513558639E+02  0.67969055131E+02  0.41800000000E+01 0.  1.
        -11    1    3    3    0    0  0.72294176530E+02 -0.15748457403E+02 -0.28583110513E+01  0.74044795987E+02  0.00000000000E+00 0. -1.
         11    1    3    3    0    0 -0.27133774173E+02 -0.21712093189E+02  0.12315212534E+02  0.36868972745E+02  0.00000000000E+00 0.  1.
</event>
<event>
 7    1  0.6988825E-006  0.9072001E+02  0.7561462E-02  0.1301117E+00
         -2   -1    0    0    0  501 -0.00000000000E+00  0.00000000000E+00  0.12331045632E+03  0.12331045632E+03  0.00000000000E+00 0. -1.
          2   -1    0    0  501    0  0.00000000000E+00 -0.00000000000E+00 -0.16522899513E+03  0.16522899513E+03  0.00000000000E+00 0.  1.
         23    2    1    2    0    0  0.25424002579E+02  0.55225070749E+02  0.49387777812E+02  0.12215278803E+03  0.93733466162E+02 0.  0.
          5    1    1    2  502    0  0.69770300274E+01  0.11108770431E+02  0.25014652369E+02  0.28553265341E+02  0.41800000000E+01 0.  1.
         -5    1    1    2    0  502 -0.32401032606E+02 -0.66333841181E+02 -0.11632096899E+03  0.13783339808E+03  0.41800000000E+01 0.  1.
        -11    1    3    3    0    0 -0.23385060309E+02  0.54395687640E+01 -0.14111795539E+02  0.27849465477E+02  0.00000000000E+00 0.  1.
         11    1    3    3    0    0  0.48809062888E+02  0.49785501985E+02  0.63499573351E+02  0.94303322549E+02  0.00000000000E+00 0. -1.
</event>
<event>
 7    1  0.6988825E-006  0.1991730E+03  0.7561462E-02  0.1150439E+00
          2   -1    0    0  501    0  0.00000000000E+00  0.00000000000E+00  0.83271059728E+03  0.83271059728E+03  0.00000000000E+00 0. -1.
         -2   -1    0    0    0  501 -0.00000000000E+00 -0.00000000000E+00 -0.51576390560E+02  0.51576390560E+02  0.00000000000E+00 0.  1.
         23    2    1    2    0    0  0.10871842149E+03  0.13198888931E+03  0.28245674745E+03  0.34246813652E+03  0.90894709859E+02 0.  0.
          5    1    1    2  502    0 -0.53179430005E+02 -0.13938173090E+03  0.29595446717E+03  0.33145412612E+03  0.41800000000E+01 0. -1.
         -5    1    1    2    0  502 -0.55538991482E+02  0.73928415815E+01  0.20272299210E+03  0.21036472520E+03  0.41800000000E+01 0. -1.
        -11    1    3    3    0    0  0.31261806380E+02  0.10709129640E+03  0.14844592521E+03  0.18569340056E+03  0.00000000000E+00 0.  1.
         11    1    3    3    0    0  0.77456615107E+02  0.24897592917E+02  0.13401082224E+03  0.15677473596E+03  0.00000000000E+00 0. -1.
</event>
<event>
 7    1  0.6988825E-006  0.9108225E+02  0.7561462E-02  0.1300252E+00
         -1   -1    0    0    0  501 -0.00000000000E+00  0.00000000000E+00  0.13789374882E+03  0.13789374882E+03  0.00000000000E+00 0.  1.
          1   -1    0    0  501    0  0.00000000000E+00 -0.00000000000E+00 -0.13063511235E+03  0.13063511235E+03  0.00000000000E+00 0. -1.
         23    2    1    2    0    0  0.19393366302E+02 -0.53936345013E+02  0.57502044691E+02  0.12204348007E+03  0.91120216829E+02 0.  0.
          5    1    1    2  502    0  0.28173960100E+02 -0.45071219559E+00  0.27971097845E+02  0.39922799048E+02  0.41800000000E+01 0. -1.
         -5    1    1    2    0  502 -0.47567326402E+02  0.54387057208E+02 -0.78214506064E+02  0.10656258204E+03  0.41800000000E+01 0. -1.
        -11    1    3    3    0    0 -0.14174368182E+02 -0.44104252565E+02  0.70811401061E+02  0.84618865083E+02  0.00000000000E+00 0.  1.
         11    1    3    3    0    0  0.33567734484E+02 -0.98320924478E+01 -0.13309356369E+02  0.37424614992E+02  0.00000000000E+00 0. -1.
</event>
<event>
 7    1  0.6988825E-006  0.7957548E+02  0.7561462E-02  0.1330260E+00
          2   -1    0    0  501    0  0.00000000000E+00  0.00000000000E+00  0.13809072150E+04  0.13809072150E+04  0.00000000000E+00 0. -1.
         -2   -1    0    0    0  501 -0.00000000000E+00 -0.00000000000E+00 -0.98750068998E+01  0.98750068998E+01  0.00000000000E+00 0.  1.
         23    2    1    2    0    0  0.20660692728E+02  0.47284108309E+02  0.49572729813E+03  0.50680695392E+03  0.91897134373E+02 0.  0.
          5    1    1    2  502    0 -0.17317992827E+02 -0.15365367276E+02  0.81661002496E+03  0.81694884335E+03  0.41800000000E+01 0. -1.
         -5    1    1    2    0  502 -0.33426999011E+01 -0.31918741032E+02  0.58694884970E+02  0.67026424590E+02  0.41800000000E+01 0.  1.
        -11    1    3    3    0    0 -0.33282047490E+02  0.34266713957E+02  0.28065530015E+03  0.28469158729E+03  0.00000000000E+00 0.  1.
         11    1    3    3    0    0  0.53942740218E+02  0.13017394352E+02  0.21507199798E+03  0.22211536663E+03  0.00000000000E+00 0. -1.
</event>
<event>
 7    1  0.6988825E-006  0.6609683E+02  0.7561462E-02  0.1373893E+00
          2   -1    0    0  501    0  0.00000000000E+00  0.00000000000E+00  0.42384714909E+02  0.42384714909E+02  0.00000000000E+00 0. -1.
         -2   -1    0    0    0  501 -0.00000000000E+00 -0.00000000000E+00 -0.32825181408E+03  0.32825181408E+03  0.00000000000E+00 0.  1.
         23    2    1    2    0    0  0.81259004992E+00 -0.17646510902E+02 -0.95825253586E+02  0.13294122296E+03  0.90436883445E+02 0.  0.
          5    1    1    2  502    0  0.12019184294E+02  0.30746887709E+02  0.11553256153E+02  0.35224735948E+02  0.41800000000E+01 0. -1.
         -5    1    1    2    0  502 -0.12831774344E+02 -0.13100376807E+02 -0.20159510174E+03  0.20247057009E+03  0.41800000000E+01 0.  1.
        -11    1    3    3    0    0 -0.24665320051E+02 -0.39482965730E+02 -0.86306987908E+02  0.98062116833E+02  0.00000000000E+00 0. -1.
         11    1    3    3    0    0  0.25477910101E+02  0.21836454828E+02 -0.95182656780E+01  0.34879106125E+02  0.00000000000E+00 0.  1.
</event>
<event>
 7    1  0.6988825E-006  0.1387991E+03  0.7561462E-02  0.1214954E+00
         -1   -1    0    0    0  501 -0.00000000000E+00  0.00000000000E+00  0.17393892566E+02  0.17393892566E+02  0.00000000000E+00 0.  1.
          1   -1    0    0  501    0  0.00000000000E+00 -0.00000000000E+00 -0.14026143123E+04  0.14026143123E+04  0.00000000000E+00 0. -1.
         23    2    1    2    0    0  0.96115965622E+02  0.12999486582E+02 -0.38272530172E+03  0.40509389946E+03  0.90637438752E+02 0.  0.
          5    1    1    2  502    0 -0.11207233978E+03  0.21062482942E+02 -0.85759123298E+03  0.86514971699E+03  0.41800000000E+01 0. -1.
         -5    1    1    2    0  502  0.15956374159E+02 -0.34061969524E+02 -0.14490388501E+03  0.14976458839E+03  0.41800000000E+01 0. -1.
        -11    1    3    3    0    0  0.85823940816E+02  0.41506280455E+02 -0.33708724639E+03  0.35030890912E+03  0.00000000000E+00 0. -1.
         11    1    3    3    0    0  0.10292024806E+02 -0.28506793873E+02 -0.45638055335E+02  0.54784990338E+02  0.00000000000E+00 0.  1.
</event>
<event>
 7    1  0.6988825E-006  0.6678845E+02  0.7561462E-02  0.1371368E+00
          4   -1    0    0  501    0  0.00000000000E+00  0.00000000000E+00  0.81103647675E+02  0.81103647675E+02  0.00000000000E+00 0. -1.
         -4   -1    0    0    0  501 -0.00000000000E+00 -0.00000000000E+00 -0.15498385194E+03  0.15498385194E+03  0.00000000000E+00 0.  1.
         23    2    1    2    0    0  0.27130108493E+02  0.94042465292E+01 -0.42281047572E+02  0.10392114178E+03  0.90484441122E+02 0.  0.
          5    1    1    2  502    0 -0.20893353609E+02 -0.34370967126E+02  0.39443883623E+02  0.56490600647E+02  0.41800000000E+01 0. -1.
         -5    1    1    2    0  502 -0.62367548839E+01  0.24966720597E+02 -0.71043040319E+02  0.75675757193E+02  0.41800000000E+01 0. -1.
        -11    1    3    3    0    0  0.17485117585E+02 -0.25463539338E+02  0.16409068134E+02  0.34976830754E+02  0.00000000000E+00 0. -1.
         11    1    3    3    0    0  0.96449909085E+01  0.34867785868E+02 -0.58690115706E+02  0.68944311024E+02  0.00000000000E+00 0.  1.
</event>
<event>
 7    1  0.6988825E-006  0.2066449E+03  0.7561462E-02  0.1144251E+00
         -3   -1    0    0    0  501 -0.00000000000E+00  0.00000000000E+00  0.42242577273E+03  0.42242577273E+03  0.00000000000E+00 0.  1.
          3   -1    0    0  501    0  0.00000000000E+00 -0.00000000000E+00 -0.22803465259E+03  0.22803465259E+03  0.00000000000E+00 0. -1.
         23    2    1    2    0    0  0.19705717597E+03 -0.33269881741E+02  0.31850943854E+03  0.38862260579E+03  0.98187838680E+02 0.  0.
          5    1    1    2  502    0 -0.17537987658E+03  0.24074030532E+01 -0.56534135484E+02  0.18432980652E+03  0.41800000000E+01 0. -1.
         -5    1    1    2    0  502 -0.21677299391E+02  0.30862478688E+02 -0.67584182916E+02  0.77508013006E+02  0.41800000000E+01 0.  1.
        -11    1    3    3    0    0  0.62895975259E+02 -0.84684395274E+01  0.19326648084E+03  0.20341964209E+03  0.00000000000E+00 0.  1.
         11    1    3    3    0    0  0.13416120071E+03 -0.24801442214E+02  0.12524295770E+03  0.18520296370E+03  0.00000000000E+00 0. -1.
</event>
<event>
 7    1  0.6988825E-006  0.2337490E+03  0.7561462E-02  0.1124029E+00
          2   -1    0    0  501    0  0.00000000000E+00  0.00000000000E+00  0.22416661727E+03  0.22416661727E+03  0.00000000000E+00 0.  1.
         -2   -1    0    0    0  501 -0.00000000000E+00 -0.00000000000E+00 -0.27175441987E+03  0.27175441987E+03  0.00000000000E+00 0. -1.
         23    2    1    2    0    0  0.21379736880E+03  0.47085217353E+02 -0.58531640168E+02  0.24353053063E+03  0.89189875266E+02 0.  0.
          5    1    1    2  502    0  0.10280650811E+02  0.12134722018E+02  0.12369340160E+02  0.20577080346E+02  0.41800000000E+01 0.  1.
         -5    1    1    2    0  502 -0.22407801961E+03 -0.59219939372E+02 -0.14255025964E+01  0.23181342617E+03  0.41800000000E+01 0.  1.
        -11    1    3    3    0    0  0.12572307482E+03  0.33678244159E+02  0.10856605399E+02  0.13060773925E+03  0.00000000000E+00 0.  1.
         11    1    3    3    0    0  0.88074293987E+02  0.13406973194E+02 -0.69388245567E+02  0.11292279139E+03  0.00000000000E+00 0. -1.
</event>
<event>
 7    1  0.6988825E-006  0.8522258E+02  0.7561462E-02  0.1314851E+00
          1   -1    0    0  501    0  0.00000000000E+00  0.00000000000E+00  0.44158759465E+03  0.44158759465E+03  0.00000000000E+00 0. -1.
         -1   -1    0    0    0  501 -0.00000000000E+00 -0.00000000000E+00 -0.29314159891E+02  0.29314159891E+02  0.00000000000E+00 0.  1.
         23    2    1    2    0    0  0.17326816997E+02 -0.10980990059E+02  0.15923376359E+03  0.18788807191E+03  0.97599873804E+02 0.  0.
          5    1    1    2  502    0 -0.39454358841E+02 -0.45926731844E+02  0.16486179646E+03  0.17567810183E+03  0.41800000000E+01 0.  1.
         -5    1    1    2    0  502  0.22127541844E+02  0.56907721903E+02  0.88177874711E+02  0.10733558081E+03  0.41800000000E+01 0.  1.
        -11    1    3    3    0    0 -0.84022775360E+01 -0.19675608877E+02 -0.45456714742E+01  0.21872150823E+02  0.00000000000E+00 0.  1.
         11    1    3    3    0    0  0.25729094533E+02  0.86946188187E+01  0.16377943507E+03  0.16601592108E+03  0.00000000000E+00 0. -1.
</event>
<event>
 7    1  0.6988825E-006  0.1137448E+03  0.7561462E-02  0.1253788E+00
          1   -1    0    0  501    0  0.00000000000E+00  0.00000000000E+00  0.49411120883E+02  0.49411120883E+02  0.00000000000E+00 0.  1.
         -1   -1    0    0    0  501 -0.00000000000E+00 -0.00000000000E+00 -0.33692031300E+03  0.33692031300E+03  0.00000000000E+00 0. -1.
         23    2    1    2    0    0  0.33891274762E+01  0.58438835005E+02 -0.16549282623E+03  0.20204291869E+03  0.10003440328E+03 0.  0.
          5    1    1    2  502    0  0.47441803042E+02 -0.58562562062E+02 -0.34498096238E+02  0.82993309340E+02  0.41800000000E+01 0. -1.
         -5    1    1    2    0  502 -0.50830930518E+02  0.12372705685E+00 -0.87518269648E+02  0.10129520585E+03  0.41800000000E+01 0. -1.
        -11    1    3    3    0    0 -0.23348020855E+02  0.68550947288E+02 -0.64147393951E+02  0.96743219931E+02  0.00000000000E+00 0.  1.
         11    1    3    3    0    0  0.26737148331E+02 -0.10112112282E+02 -0.10134543228E+03  0.10529969876E+03  0.00000000000E+00 0. -1.
</event>
<event>
 7    1  0.6988825E-006  0.1319254E+03  0.7561462E-02  0.1224626E+00
         -1   -1    0    0    0  501 -0.00000000000E+00  0.00000000000E+00  0.19739219752E+02  0.19739219752E+02  0.00000000000E+00 0.  1.
          1   -1    0    0  501    0  0.00000000000E+00 -0.00000000000E+00 -0.96084817657E+03  0.96084817657E+03  0.00000000000E+00 0. -1.
         23    2    1    2    0    0  0.82733883974E+02 -0.13937587100E+02 -0.45631806285E+03  0.47293610881E+03  0.91669169526E+02 0.  0.
          5    1    1    2  502    0 -0.23555685344E+02  0.61060234747E+02 -0.13949580275E+03  0.15414205774E+03  0.41800000000E+01 0.  1.
         -5    1    1    2    0  502 -0.59178198630E+02 -0.47122647647E+02 -0.34529509122E+03  0.35350922977E+03  0.41800000000E+01 0.  1.
        -11    1    3    3    0    0  0.16699163667E+02  0.36021412825E+02 -0.18733742708E+03  0.19149860531E+03  0.00000000000E+00 0.  1.
         11    1    3    3    0    0  0.66034720307E+02 -0.49958999925E+02 -0.26898063576E+03  0.28143750350E+03  0.00000000000E+00 0. -1.
</event>
<event>
 7    1  0.6988825E-006  0.1458759E+03  0.7561462E-02  0.1205634E+00
          1   -1    0    0  501    0  0.00000000000E+00  0.00000000000E+00  0.18786146134E+03  0.18786146134E+03  0.00000000000E+00 0. -1.
         -1   -1    0    0    0  501 -0.00000000000E+00 -0.00000000000E+00 -0.11868374048E+03  0.11868374048E+03  0.00000000000E+00 0.  1.
         23    2    1    2    0    0 -0.96131603623E+02  0.35848415549E+02  0.28178671862E+02  0.13964699982E+03  0.90448067411E+02 0.  0.
          5    1    1    2  502    0 -0.27170135870E-01 -0.61716977006E+02  0.11114675922E+02  0.62848980976E+02  0.41800000000E+01 0.  1.
         -5    1    1    2    0  502  0.96158773759E+02  0.25868561456E+02  0.29884373069E+02  0.10404922103E+03  0.41800000000E+01 0.  1.
        -11    1    3    3    0    0  0.14459081710E+02  0.21551051566E+01 -0.10209292264E+02  0.17830848849E+02  0.00000000000E+00 0. -1.
         11    1    3    3    0    0 -0.11059068533E+03  0.33693310393E+02  0.38387964126E+02  0.12181615097E+03  0.00000000000E+00 0.  1.
</event>
<event>
 7    1  0.6988825E-006  0.1003019E+03  0.7561462E-02  0.1279662E+00
         -3   -1    0    0    0  501 -0.00000000000E+00  0.00000000000E+00  0.72092847655E+02  0.72092847655E+02  0.00000000000E+00 0.  1.
          3   -1    0    0  501    0  0.00000000000E+00 -0.00000000000E+00 -0.19462294359E+03  0.19462294359E+03  0.00000000000E+00 0. -1.
         23    2    1    2    0    0  0.16185794184E+02  0.38223646948E+02 -0.39429020102E+02  0.11090879698E+03  0.94989928424E+02 0.  0.
          5    1    1    2  502    0 -0.43963399403E+02  0.73077499155E+01 -0.91300480052E+02  0.10168300622E+03  0.41800000000E+01 0. -1.
         -5    1    1    2    0  502  0.27777605219E+02 -0.45531396863E+02  0.81994042218E+01  0.54123988043E+02  0.41800000000E+01 0. -1.
        -11    1    3    3    0    0 -0.38861782417E+02  0.23284587270E+02 -0.87423644815E+01  0.46139344097E+02  0.00000000000E+00 0. -1.
         11    1    3    3    0    0  0.55047576601E+02  0.14939059678E+02 -0.30686655620E+02  0.64769452884E+02  0.00000000000E+00 0.  1.
</event>
<event>
 7    1  0.6988825E-006  0.1413443E+03  0.7561462E-02  0.1211532E+00
          1   -1    0    0  501    0  0.00000000000E+00  0.00000000000E+00  0.14576011716E+03  0.14576011716E+03  0.00000000000E+00 0. -1.
         -1   -1    0    0    0  501 -0.00000000000E+00 -0.00000000000E+00 -0.15666642958E+03  0.15666642958E+03  0.00000000000E+00 0.  1.
         23    2    1    2    0    0 -0.67280971333E+02  0.81300251430E+02 -0.13371496982E+02  0.13876796226E+03  0.89113918283E+02 0.  0.
          5    1    1    2  502    0  0.66003591462E+02  0.24819484691E+01 -0.31315068672E+02  0.73217075058E+02  0.41800000000E+01 0.  1.
         -5    1    1    2    0  502  0.12773798713E+01 -0.83782199899E+02  0.33780253232E+02  0.90441509428E+02  0.41800000000E+01 0.  1.
        -11    1    3    3    0    0  0.57926361074E+01  0.54453659886E+02 -0.24745339590E+02  0.60092325130E+02  0.00000000000E+00 0.  1.
         11    1    3    3    0    0 -0.73073607441E+02  0.26846591543E+02  0.11373842608E+02  0.78675637128E+02  0.00000000000E+00 0. -1.
</event>
<event>
 7    1  0.6988825E-006  0.1453933E+03  0.7561462E-02  0.1206251E+00
          2   -1    0    0  501    0  0.00000000000E+00  0.00000000000E+00  0.36857901406E+03  0.36857901406E+03  0.00000000000E+00 0. -1.
         -2   -1    0    0    0  501 -0.00000000000E+00 -0.00000000000E+00 -0.21394530451E+03  0.21394530451E+03  0.00000000000E+00 0.  1.
         23    2    1    2    0    0 -0.41064411040E+02  0.12022648628E+03 -0.14254532302E+03  0.21112241469E+03  0.90071144177E+02 0.  0.
          5    1    1    2  502    0 -0.20144397274E+02 -0.83584724917E+02  0.28649483950E+03  0.29914706824E+03  0.41800000000E+01 0. -1.
         -5    1    1    2    0  502  0.61208808314E+02 -0.36641761361E+02  0.10684193084E+02  0.72254835635E+02  0.41800000000E+01 0.  1.
        -11    1    3    3    0    0 -0.91014284952E+01  0.85755648769E+02 -0.13951425714E+03  0.16401553354E+03  0.00000000000E+00 0.  1.
         11    1    3    3    0    0 -0.31962982545E+02  0.34470837509E+02 -0.30310658818E+01  0.47106881155E+02  0.00000000000E+00 0. -1.
</event>
<event>
 7    1  0.6988825E-006  0.1428880E+03  0.7561462E-02  0.1209495E+00
         -1   -1    0    0    0  501 -0.00000000000E+00  0.00000000000E+00  0.21749034224E+03  0.21749034224E+03  0.00000000000E+00 0.  1.
          1   -1    0    0  501    0  0.00000000000E+00 -0.00000000000E+00 -0.29516201707E+03  0.29516201707E+03  0.00000000000E+00 0. -1.
         23    2    1    2    0    0 -0.57596377347E+02 -0.88769055360E+02  0.16715793177E+03  0.21805754821E+03  0.91706228272E+02 0.  0.
          5    1    1    2  502    0 -0.86397778640E+01 -0.17958624311E+02 -0.10342460460E+03  0.10541005258E+03  0.41800000000E+01 0. -1.
         -5    1    1    2    0  502  0.66236155211E+02  0.10672767967E+03 -0.14140500200E+03  0.18918475852E+03  0.41800000000E+01 0. -1.
        -11    1    3    3    0    0  0.63101164733E+01 -0.73836277976E+02  0.95662230428E+02  0.12100775118E+03  0.00000000000E+00 0.  1.
         11    1    3    3    0    0 -0.63906493820E+02 -0.14932777384E+02  0.71495701346E+02  0.97049797031E+02  0.00000000000E+00 0. -1.
</event>
<event>
 7    1  0.8353385E-006  0.2064947E+03  0.7561462E-02  0.1144372E+00
          2   -1    0    0  501    0  0.00000000000E+00  0.00000000000E+00  0.10633775001E+03  0.10633775001E+03  0.00000000000E+00 0. -1.
         -2   -1    0    0    0  501 -0.00000000000E+00 -0.00000000000E+00 -0.49098744328E+03  0.49098744328E+03  0.00000000000E+00 0.  1.
         23    2    1    2    0    0 -0.20088159816E+03  0.62124116259E+01 -0.18050043823E+03  0.28472879373E+03  0.89989261785E+02 0.  0.
          5    1    1    2  502    0  0.58621274889E+01 -0.16181791406E+01 -0.82141650453E+02  0.82472457109E+02  0.41800000000E+01 0.  1.
         -5    1    1    2    0  502  0.19501947067E+03 -0.45942324853E+01 -0.12200760459E+03  0.23012394245E+03  0.41800000000E+01 0.  1.
        -11    1    3    3    0    0 -0.15145607492E+03 -0.22826977795E+02 -0.90151057962E+02  0.17772795728E+03  0.00000000000E+00 0. -1.
         11    1    3    3    0    0 -0.49425523237E+02  0.29039389421E+02 -0.90349380272E+02  0.10700083645E+03  0.00000000000E+00 0.  1.
</event>
<event>
 7    1  0.6988825E-006  0.1228660E+03  0.7561462E-02  0.1238443E+00
         -4   -1    0    0    0  501 -0.00000000000E+00  0.00000000000E+00  0.41620716401E+02  0.41620716401E+02  0.00000000000E+00 0.  1.
          4   -1    0    0  501    0  0.00000000000E+00 -0.00000000000E+00 -0.72120795801E+03  0.72120795801E+03  0.00000000000E+00 0. -1.
         23    2    1    2    0    0  0.20719892074E+02 -0.90932502476E+02 -0.10449064892E+03  0.16694158498E+03  0.90846921528E+02 0.  0.
          5    1    1    2  502    0 -0.29273588380E+02 -0.18190339191E+02 -0.25970874045E+03  0.26201895672E+03  0.41800000000E+01 0.  1.
         -5    1    1    2    0  502  0.85536963065E+01  0.10912284167E+03 -0.31538785224E+03  0.33386813270E+03  0.41800000000E+01 0.  1.
        -11    1    3    3    0    0  0.14353621122E+02 -0.48371305537E+01 -0.73768644966E+02  0.75307617486E+02  0.00000000000E+00 0. -1.
         11    1    3    3    0    0  0.63662709513E+01 -0.86095371922E+02 -0.30722003951E+02  0.91633967496E+02  0.00000000000E+00 0.  1.
</event>
<event>
 7    1  0.6988825E-006  0.1043547E+03  0.7561462E-02  0.1271396E+00
         -2   -1    0    0    0  501 -0.00000000000E+00  0.00000000000E+00  0.19161491936E+02  0.19161491936E+02  0.00000000000E+00 0.  1.
          2   -1    0    0  501    0  0.00000000000E+00 -0.00000000000E+00 -0.85886607185E+03  0.85886607185E+03  0.00000000000E+00 0. -1.
         23    2    1    2    0    0 -0.12411858443E+01 -0.40008838066E+02 -0.26000322822E+03  0.27713383446E+03  0.87173596098E+02 0.  0.
          5    1    1    2  502    0 -0.38822499088E+02  0.58867898723E+02 -0.52795295292E+03  0.53265787221E+03  0.41800000000E+01 0. -1.
         -5    1    1    2    0  502  0.40063684932E+02 -0.18859060657E+02 -0.51748398784E+02  0.68235857113E+02  0.41800000000E+01 0.  1.
        -11    1    3    3    0    0  0.41413017913E+02 -0.14427332025E+02 -0.91905238922E+02  0.10183201316E+03  0.00000000000E+00 0.  1.
         11    1    3    3    0    0 -0.42654203758E+02 -0.25581506040E+02 -0.16809798929E+03  0.17530182131E+03  0.00000000000E+00 0. -1.
</event>
<event>
 7    1  0.6988825E-006  0.9187109E+02  0.7561462E-02  0.1298383E+00
          4   -1    0    0  501    0  0.00000000000E+00  0.00000000000E+00  0.14123705127E+03  0.14123705127E+03  0.00000000000E+00 0. -1.
         -4   -1    0    0    0  501 -0.00000000000E+00 -0.00000000000E+00 -0.23737721125E+03  0.23737721125E+03  0.00000000000E+00 0.  1.
         23    2    1    2    0    0 -0.37929831591E+02  0.15426000080E+02 -0.19054825811E+03  0.21663056843E+03  0.94570243247E+02 0.  0.
          5    1    1    2  502    0  0.22618224202E+02  0.27963268983E+02  0.10793239332E+03  0.11384376314E+03  0.41800000000E+01 0.  1.
         -5    1    1    2    0  502  0.15311607389E+02 -0.43389269063E+02 -0.13524295191E+02  0.48139930941E+02  0.41800000000E+01 0.  1.
        -11    1    3    3    0    0 -0.35853303809E+02 -0.35447097745E+02 -0.11453347313E+03  0.12513941266E+03  0.00000000000E+00 0.  1.
         11    1    3    3    0    0 -0.20765277822E+01  0.50873097824E+02 -0.76014784976E+02  0.91491155774E+02  0.00000000000E+00 0. -1.
</event>
<event>
 7    1  0.6988825E-006  0.1246356E+03  0.7561462E-02  0.1235640E+00
          1   -1    0    0  501    0  0.00000000000E+00  0.00000000000E+00  0.90910098328E+03  0.90910098328E+03  0.00000000000E+00 0. -1.
         -1   -1    0    0    0  501 -0.00000000000E+00 -0.00000000000E+00 -0.22746479360E+02  0.22746479360E+02  0.00000000000E+00 0.  1.
         23    2    1    2    0    0 -0.23208504687E+02 -0.79751248848E+02  0.26039374607E+03  0.28813023022E+03  0.91187884030E+02 0.  0.
          5    1    1    2  502    0 -0.16495502278E+02  0.89398607218E+02  0.54891388154E+03  0.55640644704E+03  0.41800000000E+01 0.  1.
         -5    1    1    2    0  502  0.39704006965E+02 -0.96473583703E+01  0.77046876313E+02  0.87310785372E+02  0.41800000000E+01 0.  1.
        -11    1    3    3    0    0 -0.52836342950E+02 -0.34483879943E+02  0.94410049435E+02  0.11355207857E+03  0.00000000000E+00 0.  1.
         11    1    3    3    0    0  0.29627838263E+02 -0.45267368905E+02  0.16598369664E+03  0.17457815166E+03  0.00000000000E+00 0. -1.
</event>
<event>
 7    1  0.6988825E-006  0.1028500E+03  0.7561462E-02  0.1274415E+00
         -1   -1    0    0    0  501 -0.00000000000E+00  0.00000000000E+00  0.62912200657E+02  0.62912200657E+02  0.00000000000E+00 0.  1.
          1   -1    0    0  501    0  0.00000000000E+00 -0.00000000000E+00 -0.67461307537E+03  0.67461307537E+03  0.00000000000E+00 0. -1.
         23    2    1    2    0    0 -0.37896447145E+01  0.52383663239E+01  0.18735212174E+02  0.95194782235E+02  0.93108734826E+02 0.  0.
          5    1    1    2  502    0 -0.12581098182E+02 -0.59494402412E+02 -0.41819198639E+03  0.42261078764E+03  0.41800000000E+01 0. -1.
         -5    1    1    2    0  502  0.16370742897E+02  0.54256036088E+02 -0.21224410050E+03  0.21971970615E+03  0.41800000000E+01 0.  1.
        -11    1    3    3    0    0 -0.45123579462E+02  0.10280954019E+02 -0.61472504995E+01  0.46686444796E+02  0.00000000000E+00 0.  1.
         11    1    3    3    0    0  0.41333934748E+02 -0.50425876956E+01  0.24882462673E+02  0.48508337439E+02  0.00000000000E+00 0. -1.
</event>
<event>
 7    1  0.6988825E-006  0.2312029E+03  0.7561462E-02  0.1125796E+00
          2   -1    0    0  501    0  0.00000000000E+00  0.00000000000E+00  0.20298356222E+04  0.20298356222E+04  0.00000000000E+00 0.  1.
         -2   -1    0    0    0  501 -0.00000000000E+00 -0.00000000000E+00 -0.32916059009E+02  0.32916059009E+02  0.00000000000E+00 0. -1.
         23    2    1    2    0    0  0.22879181980E+03  0.30361149738E+02  0.81071263572E+03  0.84784538836E+03  0.91210353710E+02 0.  0.
          5    1    1    2  502    0 -0.10565256354E+03 -0.13117958644E+02  0.84566108312E+03  0.85234657560E+03  0.41800000000E+01 0. -1.
         -5    1    1    2    0  502 -0.12313925626E+03 -0.17243191094E+02  0.34054584434E+03  0.36255971724E+03  0.41800000000E+01 0. -1.
        -11    1    3    3    0    0  0.10732015956E+03  0.55105347594E+01  0.53280212048E+03  0.54353112352E+03  0.00000000000E+00 0. -1.
         11    1    3    3    0    0  0.12147166024E+03  0.24850614978E+02  0.27791051524E+03  0.30431426484E+03  0.00000000000E+00 0.  1.
</event>
<event>
 7    1  0.6988825E-006  0.1037516E+03  0.7561462E-02  0.1272599E+00
         -2   -1    0    0    0  501 -0.00000000000E+00  0.00000000000E+00  0.81403361955E+02  0.81403361955E+02  0.00000000000E+00 0.  1.
          2   -1    0    0  501    0  0.00000000000E+00 -0.00000000000E+00 -0.16236095629E+03  0.16236095629E+03  0.00000000000E+00 0. -1.
         23    2    1    2    0    0  0.14210178077E+02  0.57900796593E+01  0.26195591917E+01  0.92543293590E+02  0.91224694654E+02 0.  0.
          5    1    1    2  502    0  0.27675427505E+02 -0.51415557432E+02 -0.18760947613E+02  0.61473037903E+02  0.41800000000E+01 0. -1.
         -5    1    1    2    0  502 -0.41885605582E+02  0.45625477773E+02 -0.64816205911E+02  0.89747986750E+02  0.41800000000E+01 0. -1.
        -11    1    3    3    0    0  0.17695262470E+02 -0.38545676849E+02 -0.14596478596E+02  0.44854751198E+02  0.00000000000E+00 0. -1.
         11    1    3    3    0    0 -0.34850843925E+01  0.44335756508E+02  0.17216037788E+02  0.47688542392E+02  0.00000000000E+00 0.  1.
</event>
<event>
 7    1  0.6988825E-006  0.1323202E+03  0.7561462E-02  0.1224053E+00
         -1   -1    0    0    0  501 -0.00000000000E+00  0.00000000000E+00  0.11334160867E+03  0.11334160867E+03  0.00000000000E+00 0.  1.
          1   -1    0    0  501    0  0.00000000000E+00 -0.00000000000E+00 -0.21109109953E+03  0.21109109953E+03  0.00000000000E+00 0. -1.
         23    2    1    2    0    0 -0.10082031718E+02 -0.74707899648E+02  0.36469059571E+02  0.12607802133E+03  0.94248382070E+02 0.  0.
          5    1    1    2  502    0  0.62323806805E+02  0.66612086124E+02 -0.69937558439E+02  0.11502243865E+03  0.41800000000E+01 0.  1.
         -5    1    1    2    0  502 -0.52241775087E+02  0.80958135241E+01 -0.64280991996E+02  0.83332248217E+02  0.41800000000E+01 0.  1.
        -11    1    3    3    0    0 -0.50279130652E+02 -0.24368692999E+02  0.11859286516E+02  0.57118008143E+02  0.00000000000E+00 0. -1.
         11    1    3    3    0    0  0.40197098934E+02 -0.50339206649E+02  0.24609773054E+02  0.68960013185E+02  0.00000000000E+00 0.  1.
</event>
<event>
 7    1  0.6988825E-006  0.7271849E+02  0.7561462E-02  0.1351085E+00
          3   -1    0    0  501    0  0.00000000000E+00  0.00000000000E+00  0.23312972709E+03  0.23312972709E+03  0.00000000000E+00 0. -1.
         -3   -1    0    0    0  501 -0.00000000000E+00 -0.00000000000E+00 -0.55066735701E+02  0.55066735701E+02  0.00000000000E+00 0.  1.
         23    2    1    2    0    0 -0.34443449617E+01  0.73096660117E+01  0.37105888134E+02  0.99564605049E+02  0.92037866745E+02 0.  0.
          5    1    1    2  502    0  0.38123833600E+02 -0.37853355524E+02  0.17363525306E+02  0.56615083006E+02  0.41800000000E+01 0.  1.
         -5    1    1    2    0  502 -0.34679488638E+02  0.30543689512E+02  0.12359357795E+03  0.13201677474E+03  0.41800000000E+01 0.  1.
        -11    1    3    3    0    0 -0.20490628128E+02  0.16016960998E+02 -0.24086614877E+02  0.35448186088E+02  0.00000000000E+00 0.  1.
         11    1    3    3    0    0  0.17046283167E+02 -0.87072949863E+01  0.61192503010E+02  0.64116418961E+02  0.00000000000E+00 0. -1.
</event>
<event>
 7    1  0.6988825E-006  0.1045258E+03  0.7561462E-02  0.1271057E+00
          2   -1    0    0  501    0  0.00000000000E+00  0.00000000000E+00  0.44883929615E+03  0.44883929615E+03  0.00000000000E+00 0. -1.
         -2   -1    0    0    0  501 -0.00000000000E+00 -0.00000000000E+00 -0.31577825945E+02  0.31577825945E+02  0.00000000000E+00 0.  1.
         23    2    1    2    0    0 -0.32431419758E+02 -0.22808838010E+02  0.10998062413E+03  0.14832039502E+03  0.91275198255E+02 0.  0.
          5    1    1    2  502    0  0.25711325188E+01  0.62145434224E+02  0.24332878617E+03  0.25118725345E+03  0.41800000000E+01 0. -1.
         -5    1    1    2    0  502  0.29860287240E+02 -0.39336596214E+02  0.63952059903E+02  0.80909473621E+02  0.41800000000E+01 0.  1.
        -11    1    3    3    0    0  0.18518416013E+02 -0.39426196223E+02  0.65567763422E+02  0.78717776139E+02  0.00000000000E+00 0.  1.
         11    1    3    3    0    0 -0.50949835771E+02  0.16617358213E+02  0.44412860711E+02  0.69602618885E+02  0.00000000000E+00 0. -1.
</event>
<event>
 7    1  0.6988825E-006  0.6519222E+02  0.7561462E-02  0.1377250E+00
         -2   -1    0    0    0  501 -0.00000000000E+00  0.00000000000E+00  0.15141711967E+02  0.15141711967E+02  0.00000000000E+00 0.  1.
          2   -1    0    0  501    0  0.00000000000E+00 -0.00000000000E+00 -0.94746463694E+03  0.94746463694E+03  0.00000000000E+00 0. -1.
         23    2    1    2    0    0  0.11402193587E+02 -0.41212832908E+02 -0.29076717177E+03  0.30757033065E+03  0.90694280416E+02 0.  0.
          5    1    1    2  502    0 -0.19814941203E+01  0.40385763230E+02 -0.64327192445E+03  0.64455502277E+03  0.41800000000E+01 0.  1.
         -5    1    1    2    0  502 -0.94206994663E+01  0.82706967753E+00  0.17161712490E+01  0.10480995489E+02  0.41800000000E+01 0.  1.
        -11    1    3    3    0    0  0.11755015679E+02  0.17281051775E+02 -0.15148105377E+02  0.25812404781E+02  0.00000000000E+00 0.  1.
         11    1    3    3    0    0 -0.35282209244E+00 -0.58493884683E+02 -0.27561906640E+03  0.28175792587E+03  0.00000000000E+00 0. -1.
</event>
<event>
 7    1  0.6988825E-006  0.9530890E+02  0.7561462E-02  0.1290482E+00
          1   -1    0    0  501    0  0.00000000000E+00  0.00000000000E+00  0.41841588848E+03  0.41841588848E+03  0.00000000000E+00 0. -1.
         -1   -1    0    0    0  501 -0.00000000000E+00 -0.00000000000E+00 -0.38147536927E+02  0.38147536927E+02  0.00000000000E+00 0.  1.
         23    2    1    2    0    0  0.50731183105E+02  0.34370772589E+02  0.12923954618E+03  0.16947708187E+03  0.90909944643E+02 0.  0.
          5    1    1    2  502    0 -0.15328955508E+02  0.28297543617E+02  0.18963085367E+03  0.19238778786E+03  0.41800000000E+01 0.  1.
         -5    1    1    2    0  502 -0.35402227597E+02 -0.62668316206E+02  0.61397951699E+02  0.94698555679E+02  0.41800000000E+01 0.  1.
        -11    1    3    3    0    0 -0.26951253005E+01  0.32496090436E+02  0.10650451643E+03  0.11138434187E+03  0.00000000000E+00 0. -1.
         11    1    3    3    0    0  0.53426308405E+02  0.18746821530E+01  0.22735029753E+02  0.58092740001E+02  0.00000000000E+00 0.  1.
</event>
<event>
 7    1  0.6988825E-006  0.8783850E+02  0.7561462E-02  0.1308172E+00
         -1   -1    0    0    0  501 -0.00000000000E+00  0.00000000000E+00  0.54984023958E+02  0.54984023958E+02  0.00000000000E+00 0.  1.
          1   -1    0    0  501    0  0.00000000000E+00 -0.00000000000E+00 -0.24811453607E+03  0.24811453607E+03  0.00000000000E+00 0. -1.
         23    2    1    2    0    0  0.31647020342E+02 -0.72758227437E+01 -0.49698797731E+02  0.11003230927E+03  0.92642685059E+02 0.  0.
          5    1    1    2  502    0 -0.57007548598E+02 -0.28825156798E+02 -0.13290168918E+03  0.14751637756E+03  0.41800000000E+01 0. -1.
         -5    1    1    2    0  502  0.25360528256E+02  0.36100979541E+02 -0.10530025201E+02  0.45549873194E+02  0.41800000000E+01 0. -1.
        -11    1    3    3    0    0  0.19982662676E+02  0.25590883597E+02  0.15586465695E+02  0.36015802695E+02  0.00000000000E+00 0.  1.
         11    1    3    3    0    0  0.11664357666E+02 -0.32866706341E+02 -0.65285263426E+02  0.74016506578E+02  0.00000000000E+00 0. -1.
</event>
<event>
 7    1  0.6988825E-006  0.1563448E+03  0.7561462E-02  0.1192886E+00
          2   -1    0    0  501    0  0.00000000000E+00  0.00000000000E+00  0.59995661924E+03  0.59995661924E+03  0.00000000000E+00 0. -1.
         -2   -1    0    0    0  501 -0.00000000000E+00 -0.00000000000E+00 -0.11604523010E+03  0.11604523010E+03  0.00000000000E+00 0.  1.
         23    2    1    2    0    0 -0.74373886472E+02  0.16498760435E+02 -0.63327268314E+02  0.13545975049E+03  0.92386779386E+02 0.  0.
          5    1    1    2  502    0  0.66467484773E+02 -0.94215228438E+02  0.31324416848E+03  0.33381704164E+03  0.41800000000E+01 0. -1.
         -5    1    1    2    0  502  0.79064016997E+01  0.77716468002E+02  0.23399448897E+03  0.24672505721E+03  0.41800000000E+01 0.  1.
        -11    1    3    3    0    0  0.21483176288E+02  0.77060489549E+01 -0.17973102210E+02  0.29050687719E+02  0.00000000000E+00 0. -1.
         11    1    3    3    0    0 -0.95857062761E+02  0.87927114805E+01 -0.45354166104E+02  0.10640906277E+03  0.00000000000E+00 0.  1.
</event>
<event>
 7    1  0.6988825E-006  0.1736297E+03  0.7561462E-02  0.1174115E+00
          1   -1    0    0  501    0  0.00000000000E+00  0.00000000000E+00  0.24408498989E+04  0.24408498989E+04  0.00000000000E+00 0. -1.
         -1   -1    0    0    0  501 -0.00000000000E+00 -0.00000000000E+00 -0.23989581282E+02  0.23989581282E+02  0.00000000000E+00 0.  1.
         23    2    1    2    0    0  0.25950087716E+02 -0.14508636219E+03  0.36783041025E+03  0.40671118041E+03  0.91604115743E+02 0.  0.
          5    1    1    2  502    0  0.38130315927E+02  0.61037447749E+02  0.12571724902E+04  0.12592377192E+04  0.41800000000E+01 0.  1.
         -5    1    1    2    0  502 -0.64080403643E+02  0.84048914441E+02  0.79185741717E+03  0.79889058054E+03  0.41800000000E+01 0.  1.
        -11    1    3    3    0    0  0.25999788311E+02 -0.15616641896E+03  0.31286451979E+03  0.35063962575E+03  0.00000000000E+00 0.  1.
         11    1    3    3    0    0 -0.49700594843E-01  0.11080056768E+02  0.54965890462E+02  0.56071554663E+02  0.00000000000E+00 0. -1.
</event>
<event>
 7    1  0.6988825E-006  0.1135092E+03  0.7561462E-02  0.1254206E+00
          1   -1    0    0  501    0  0.00000000000E+00  0.00000000000E+00  0.33973932841E+02  0.33973932841E+02  0.00000000000E+00 0. -1.
         -1   -1    0    0    0  501 -0.00000000000E+00 -0.00000000000E+00 -0.42159027051E+03  0.42159027051E+03  0.00000000000E+00 0.  1.
         23    2    1    2    0    0 -0.54666924842E+02 -0.48734894996E+02 -0.16539213873E+03  0.19024392399E+03  0.58945978649E+02 0.  0.
          5    1    1    2  502    0  0.56863804119E+01  0.77325404141E+02 -0.17481143049E+03  0.19128006085E+03  0.41800000000E+01 0.  1.
         -5    1    1    2    0  502  0.48980544430E+02 -0.28590509146E+02 -0.47412768449E+02  0.74040218515E+02  0.41800000000E+01 0.  1.
        -11    1    3    3    0    0 -0.66097757821E+02 -0.35542734198E+02 -0.11913125378E+03  0.14079934364E+03  0.00000000000E+00 0. -1.
         11    1    3    3    0    0  0.11430832979E+02 -0.13192160798E+02 -0.46260884950E+02  0.49444580345E+02  0.00000000000E+00 0.  1.
</event>
<event>
 7    1  0.6988825E-006  0.9710975E+02  0.7561462E-02  0.1286494E+00
          2   -1    0    0  501    0  0.00000000000E+00  0.00000000000E+00  0.64668431240E+03  0.64668431240E+03  0.00000000000E+00 0.  1.
         -2   -1    0    0    0  501 -0.00000000000E+00 -0.00000000000E+00 -0.25330281201E+02  0.25330281201E+02  0.00000000000E+00 0. -1.
         23    2    1    2    0    0  0.40894053863E+02  0.34500217347E+02  0.16817084635E+03  0.19885202837E+03  0.91641186072E+02 0.  0.
          5    1    1    2  502    0 -0.70082134557E+02 -0.61984364112E+02  0.35200235063E+03  0.36424812179E+03  0.41800000000E+01 0. -1.
         -5    1    1    2    0  502  0.29188080694E+02  0.27484146765E+02  0.10118083421E+03  0.10891444344E+03  0.41800000000E+01 0. -1.
        -11    1    3    3    0    0  0.40477413220E+02  0.18937029499E+02  0.17588754478E+03  0.18147578482E+03  0.00000000000E+00 0.  1.
         11    1    3    3    0    0  0.41664064326E+00  0.15563187848E+02 -0.77166984234E+01  0.17376243552E+02  0.00000000000E+00 0. -1.
</event>
<event>
 7    1  0.6988825E-006  0.1054567E+03  0.7561462E-02  0.1269222E+00
          2   -1    0    0  501    0  0.00000000000E+00  0.00000000000E+00  0.28664356685E+03  0.28664356685E+03  0.00000000000E+00 0. -1.
         -2   -1    0    0    0  501 -0.00000000000E+00 -0.00000000000E+00 -0.56160313930E+02  0.56160313930E+02  0.00000000000E+00 0.  1.
         23    2    1    2    0    0 -0.98530148612E+01  0.63267616675E+02  0.70231534778E+02  0.12968386225E+03  0.88235834155E+02 0.  0.
          5    1    1    2  502    0  0.46424473735E+02 -0.84390074271E+02  0.95505496443E+02  0.13570441646E+03  0.41800000000E+01 0. -1.
         -5    1    1    2    0  502 -0.36571458874E+02  0.21122457595E+02  0.64746221695E+02  0.77415602064E+02  0.41800000000E+01 0. -1.
        -11    1    3    3    0    0 -0.19112883006E+02  0.19404140930E+02 -0.16646862213E+02  0.31920855308E+02  0.00000000000E+00 0.  1.
         11    1    3    3    0    0  0.92598681447E+01  0.43863475745E+02  0.86878396992E+02  0.97763006942E+02  0.00000000000E+00 0. -1.
</event>
<event>
 7    1  0.6988825E-006  0.3460745E+03  0.7561462E-02  0.1064238E+00
         -2   -1    0    0    0  501 -0.00000000000E+00  0.00000000000E+00  0.12726860086E+03  0.12726860086E+03  0.00000000000E+00 0.  1.
          2   -1    0    0  501    0  0.00000000000E+00 -0.00000000000E+00 -0.10379440733E+04  0.10379440733E+04  0.00000000000E+00 0. -1.
         23    2    1    2    0    0 -0.32796775120E+03 -0.56480825365E+02 -0.29253345089E+03  0.45212221174E+03  0.89920770637E+02 0.  0.
          5    1    1    2  502    0  0.16872529360E+03  0.91889655367E+02 -0.32326488778E+03  0.37607126125E+03  0.41800000000E+01 0. -1.
         -5    1    1    2    0  502  0.15924245760E+03 -0.35408830002E+02 -0.29487713374E+03  0.33701920115E+03  0.41800000000E+01 0. -1.
        -11    1    3    3    0    0 -0.20378034500E+02 -0.17275549449E+02 -0.13393932049E+01  0.26748885453E+02  0.00000000000E+00 0.  1.
         11    1    3    3    0    0 -0.30758971670E+03 -0.39205275916E+02 -0.29119405769E+03  0.42537332628E+03  0.00000000000E+00 0. -1.
</event>
<event>
 7    1  0.6988825E-006  0.1255094E+03  0.7561462E-02  0.1234275E+00
          4   -1    0    0  501    0  0.00000000000E+00  0.00000000000E+00  0.34506478343E+03  0.34506478343E+03  0.00000000000E+00 0.  1.
         -4   -1    0    0    0  501 -0.00000000000E+00 -0.00000000000E+00 -0.51146707695E+02  0.51146707695E+02  0.00000000000E+00 0. -1.
         23    2    1    2    0    0 -0.49998643976E+02 -0.45155197780E+02  0.75916417990E+02  0.13599878056E+03  0.90518006530E+02 0.  0.
          5    1    1    2  502    0  0.78083741222E+02 -0.99377449823E+01  0.13906370647E+03  0.15984998053E+03  0.41800000000E+01 0.  1.
         -5    1    1    2    0  502 -0.28085097246E+02  0.55092942762E+02  0.78937951280E+02  0.10036273004E+03  0.41800000000E+01 0.  1.
        -11    1    3    3    0    0  0.83823499387E+01  0.20625221561E+02  0.45225549144E+01  0.22718209830E+02  0.00000000000E+00 0. -1.
         11    1    3    3    0    0 -0.58380993914E+02 -0.65780419341E+02  0.71393863075E+02  0.11328057073E+03  0.00000000000E+00 0.  1.
</event>
<event>
 7    1  0.6988825E-006  0.9964705E+02  0.7561462E-02  0.1281040E+00
          2   -1    0    0  501    0  0.00000000000E+00  0.00000000000E+00  0.32284288841E+03  0.32284288841E+03  0.00000000000E+00 0.  1.
         -2   -1    0    0    0  501 -0.00000000000E+00 -0.00000000000E+00 -0.46454655016E+02  0.46454655016E+02  0.00000000000E+00 0. -1.
         23    2    1    2    0    0  0.14999634470E+02 -0.25829773156E+02  0.46546094780E+02  0.10592191701E+03  0.90336854870E+02 0.  0.
          5    1    1    2  502    0 -0.18986053249E+02  0.69824712997E+02  0.84076182246E+02  0.11100557456E+03  0.41800000000E+01 0.  1.
         -5    1    1    2    0  502  0.39864187790E+01 -0.43994939840E+02  0.14576595637E+03  0.15237005186E+03  0.41800000000E+01 0.  1.
        -11    1    3    3    0    0  0.43632957507E+02 -0.30761132613E+02  0.53991061358E+02  0.75928367341E+02  0.00000000000E+00 0.  1.
         11    1    3    3    0    0 -0.28633323037E+02  0.49313594570E+01 -0.74449665784E+01  0.29993549667E+02  0.00000000000E+00 0. -1.
</event>
<event>
 7    1  0.6988825E-006  0.1161441E+03  0.7561462E-02  0.1249597E+00
         -2   -1    0    0    0  501 -0.00000000000E+00  0.00000000000E+00  0.99122298536E+02  0.99122298536E+02  0.00000000000E+00 0.  1.
          2   -1    0    0  501    0  0.00000000000E+00 -0.00000000000E+00 -0.15413261046E+03  0.15413261046E+03  0.00000000000E+00 0. -1.
         23    2    1    2    0    0  0.25216650305E+02  0.51832227747E+02 -0.29488963204E+02  0.11317902340E+03  0.92830130355E+02 0.  0.
          5    1    1    2  502    0 -0.44557719590E+02  0.25297520825E+02  0.10840310707E+02  0.52538934812E+02  0.41800000000E+01 0. -1.
         -5    1    1    2    0  502  0.19341069285E+02 -0.77129748572E+02 -0.36361659427E+02  0.87536950782E+02  0.41800000000E+01 0. -1.
        -11    1    3    3    0    0 -0.80223389005E+01  0.65005038118E+02  0.20097635377E+01  0.65529016868E+02  0.00000000000E+00 0.  1.
         11    1    3    3    0    0  0.33238989205E+02 -0.13172810371E+02 -0.31498726742E+02  0.47650006535E+02  0.00000000000E+00 0. -1.
</event>
<event>
 7    1  0.1705161E-005  0.1429238E+03  0.7561462E-02  0.1209448E+00
          1   -1    0    0  501    0  0.00000000000E+00  0.00000000000E+00  0.12083311833E+04  0.12083311833E+04  0.00000000000E+00 0. -1.
         -1   -1    0    0    0  501 -0.00000000000E+00 -0.00000000000E+00 -0.20003688847E+02  0.20003688847E+02  0.00000000000E+00 0.  1.
         23    2    1    2    0    0 -0.91831683520E+02  0.69542021017E+02  0.36749199249E+03  0.39007020269E+03  0.61929376706E+02 0.  0.
          5    1    1    2  502    0 -0.89803842732E+01  0.25049720326E+02  0.22401181980E+03  0.22562558277E+03  0.41800000000E+01 0. -1.
         -5    1    1    2    0  502  0.10081206779E+03 -0.94591741342E+02  0.59682368213E+03  0.61263908665E+03  0.41800000000E+01 0. -1.
        -11    1    3    3    0    0 -0.17293546180E+02  0.33743614599E+02  0.54863345615E+02  0.66690966088E+02  0.00000000000E+00 0.  1.
         11    1    3    3    0    0 -0.74538137340E+02  0.35798406418E+02  0.31262864687E+03  0.32337923660E+03  0.00000000000E+00 0. -1.
</event>
<event>
 7    1  0.6988825E-006  0.1494006E+03  0.7561462E-02  0.1201212E+00
         -1   -1    0    0    0  501 -0.00000000000E+00  0.00000000000E+00  0.10453281001E+03  0.10453281001E+03  0.00000000000E+00 0.  1.
          1   -1    0    0  501    0  0.00000000000E+00 -0.00000000000E+00 -0.30850174721E+03  0.30850174721E+03  0.00000000000E+00 0. -1.
         23    2    1    2    0    0 -0.10489048947E+03  0.28522294813E+02  0.10506059791E+02  0.14199264873E+03  0.90752404481E+02 0.  0.
          5    1    1    2  502    0  0.82152429515E+02  0.41213090588E+02 -0.12660853011E+03  0.15650793209E+03  0.41800000000E+01 0.  1.
         -5    1    1    2    0  502  0.22738059950E+02 -0.69735385401E+02 -0.87866466880E+02  0.11453397640E+03  0.41800000000E+01 0.  1.
        -11    1    3    3    0    0 -0.35669086056E+02  0.49486374158E+02  0.28696078897E+02  0.67414018360E+02  0.00000000000E+00 0.  1.
         11    1    3    3    0    0 -0.69221403409E+02 -0.20964079345E+02 -0.18190019105E+02  0.74578630369E+02  0.00000000000E+00 0. -1.
</event>
<event>
 7    1  0.6988825E-006  0.1049759E+03  0.7561462E-02  0.1270167E+00
          1   -1    0    0  501    0  0.00000000000E+00  0.00000000000E+00  0.92358454008E+03  0.92358454008E+03  0.00000000000E+00 0. -1.
         -1   -1    0    0    0  501 -0.00000000000E+00 -0.00000000000E+00 -0.15099373858E+02  0.15099373858E+02  0.00000000000E+00 0.  1.
         23    2    1    2    0    0  0.38773841622E+01 -0.88856305874E+01  0.20928817849E+03  0.22831939960E+03  0.90742592187E+02 0.  0.
          5    1    1    2  502    0  0.88852433473E+01 -0.55893080354E+02  0.25274953110E+03  0.25904204649E+03  0.41800000000E+01 0.  1.
         -5    1    1    2    0  502 -0.12762627510E+02  0.64778710941E+02  0.44644745663E+03  0.45132246785E+03  0.41800000000E+01 0.  1.
        -11    1    3    3    0    0 -0.17819621572E+02 -0.43040105771E+02  0.14554392943E+03  0.15281696572E+03  0.00000000000E+00 0. -1.
         11    1    3    3    0    0  0.21697005735E+02  0.34154475184E+02  0.63744249063E+02  0.75502433878E+02  0.00000000000E+00 0.  1.
</event>
<event>
 7    1  0.6988825E-006  0.1061005E+03  0.7561462E-02  0.1267966E+00
         -1   -1    0    0    0  501 -0.00000000000E+00  0.00000000000E+00  0.13098499030E+03  0.13098499030E+03  0.00000000000E+00 0.  1.
          1   -1    0    0  501    0  0.00000000000E+00 -0.00000000000E+00 -0.12233128402E+03  0.12233128402E+03  0.00000000000E+00 0. -1.
         23    2    1    2    0    0 -0.25464640453E+02  0.56553316265E+02  0.89177905307E+00  0.11347964316E+03  0.95026883815E+02 0.  0.
          5    1    1    2  502    0  0.60977462239E+01 -0.74144987700E+02 -0.40479396986E+02  0.84798087775E+02  0.41800000000E+01 0. -1.
         -5    1    1    2    0  502  0.19366894229E+02  0.17591671435E+02  0.48241324212E+02  0.55038543383E+02  0.41800000000E+01 0. -1.
        -11    1    3    3    0    0  0.28953484172E+02 -0.46177523495E+01  0.10281106191E+02  0.31069744559E+02  0.00000000000E+00 0.  1.
         11    1    3    3    0    0 -0.54418124625E+02  0.61171068614E+02 -0.93893271382E+01  0.82409898600E+02  0.00000000000E+00 0. -1.
</event>
<event>
 7    1  0.6988825E-006  0.1015548E+03  0.7561462E-02  0.1277060E+00
         -1   -1    0    0    0  501 -0.00000000000E+00  0.00000000000E+00  0.15886375432E+02  0.15886375432E+02  0.00000000000E+00 0.  1.
          1   -1    0    0  501    0  0.00000000000E+00 -0.00000000000E+00 -0.78301289716E+03  0.78301289716E+03  0.00000000000E+00 0. -1.
         23    2    1    2    0    0 -0.84929668560E+01  0.25156877514E+02 -0.36563655372E+03  0.37753822053E+03  0.90222057009E+02 0.  0.
          5    1    1    2  502    0  0.28195986884E+02  0.39192220763E+02 -0.85703232812E+02  0.98455880267E+02  0.41800000000E+01 0.  1.
         -5    1    1    2    0  502 -0.19703020028E+02 -0.64349098277E+02 -0.31578673520E+03  0.32290517180E+03  0.41800000000E+01 0.  1.
        -11    1    3    3    0    0  0.32660035060E+02  0.31742299303E+02 -0.11923914811E+03  0.12764100398E+03  0.00000000000E+00 0.  1.
         11    1    3    3    0    0 -0.41153001916E+02 -0.65854217893E+01 -0.24639740561E+03  0.24989721655E+03  0.00000000000E+00 0. -1.
</event>
<event>
 7    1  0.6988825E-006  0.1588422E+03  0.7561462E-02  0.1190010E+00
          2   -1    0    0  501    0  0.00000000000E+00  0.00000000000E+00  0.21380193385E+03  0.21380193385E+03  0.00000000000E+00 0. -1.
         -2   -1    0    0    0  501 -0.00000000000E+00 -0.00000000000E+00 -0.14816485851E+03  0.14816485851E+03  0.00000000000E+00 0.  1.
         23    2    1    2    0    0  0.13280298854E+03 -0.28791367932E+02 -0.32931290101E+01  0.16482525256E+03  0.93225224863E+02 0.  0.
          5    1    1    2  502    0 -0.84131031843E+02  0.74084180899E+02  0.18738823522E+02  0.11373263509E+03  0.41800000000E+01 0. -1.
         -5    1    1    2    0  502 -0.48671956697E+02 -0.45292812967E+02  0.50191380822E+02  0.83408904704E+02  0.41800000000E+01 0. -1.
        -11    1    3    3    0    0  0.57551378274E+02 -0.27113413985E+02  0.42695899897E+02  0.76617479906E+02  0.00000000000E+00 0. -1.
         11    1    3    3    0    0  0.75251610265E+02 -0.16779539469E+01 -0.45989028907E+02  0.88207772655E+02  0.00000000000E+00 0.  1.
</event>
<event>
 7    1  0.6988825E-006  0.9463960E+02  0.7561462E-02  0.1291990E+00
          2   -1    0    0  501    0  0.00000000000E+00  0.00000000000E+00  0.73164871899E+03  0.73164871899E+03  0.00000000000E+00 0. -1.
         -2   -1    0    0    0  501 -0.00000000000E+00 -0.00000000000E+00 -0.38179240690E+02  0.38179240690E+02  0.00000000000E+00 0.  1.
         23    2    1    2    0    0  0.36882635997E+02  0.50730165004E+02  0.69379868274E+02  0.13024365098E+03  0.90641955079E+02 0.  0.
          5    1    1    2  502    0  0.18534752910E+02 -0.48553759240E+02  0.51002012521E+03  0.51267826668E+03  0.41800000000E+01 0.  1.
         -5    1    1    2    0  502 -0.55417388906E+02 -0.21764057649E+01  0.11406948481E+03  0.12690604202E+03  0.41800000000E+01 0.  1.
        -11    1    3    3    0    0 -0.12192254560E+02  0.19843110011E+01 -0.16093845289E+02  0.20287937736E+02  0.00000000000E+00 0.  1.
         11    1    3    3    0    0  0.49074890556E+02  0.48745854003E+02  0.85473713563E+02  0.10995571325E+03  0.00000000000E+00 0. -1.
</event>
<event>
 7    1  0.6988825E-006  0.9993506E+02  0.7561462E-02  0.1280433E+00
         -4   -1    0    0    0  501 -0.00000000000E+00  0.00000000000E+00  0.64979110474E+03  0.64979110474E+03  0.00000000000E+00 0. -1.
          4   -1    0    0  501    0  0.00000000000E+00 -0.00000000000E+00 -0.24081582438E+02  0.24081582438E+02  0.00000000000E+00 0.  1.
         23    2    1    2    0    0 -0.10094230568E+01 -0.15922546294E+02  0.30833574965E+03  0.33235920659E+03  0.12303317146E+03 0.  0.
          5    1    1    2  502    0  0.40148984087E+02  0.28004851959E+01  0.28061984665E+02  0.49241557895E+02  0.41800000000E+01 0.  1.
         -5    1    1    2    0  502 -0.39139561030E+02  0.13122061098E+02  0.28931178799E+03  0.29227192269E+03  0.41800000000E+01 0.  1.
        -11    1    3    3    0    0 -0.50021221334E+02 -0.39300727192E+02  0.11364707538E+03  0.13023950047E+03  0.00000000000E+00 0.  1.
         11    1    3    3    0    0  0.49011798277E+02  0.23378180898E+02  0.19468867427E+03  0.20211970612E+03  0.00000000000E+00 0. -1.
</event>
<event>
 7    1  0.6988825E-006  0.1487198E+03  0.7561462E-02  0.1202055E+00
          1   -1    0    0  501    0  0.00000000000E+00  0.00000000000E+00  0.64641096640E+03  0.64641096640E+03  0.00000000000E+00 0. -1.
         -1   -1    0    0    0  501 -0.00000000000E+00 -0.00000000000E+00 -0.47537124242E+02  0.47537124242E+02  0.00000000000E+00 0.  1.
         23    2    1    2    0    0 -0.13008247357E+03 -0.33640702363E+02  0.23742414136E+03  0.28855104519E+03  0.94012424698E+02 0.  0.
          5    1    1    2  502    0  0.11439535148E+03  0.12851563531E+02  0.36108917244E+03  0.37901757476E+03  0.41800000000E+01 0.  1.
         -5    1    1    2    0  502  0.15687122089E+02  0.20789138832E+02  0.36052835924E+00  0.26379470683E+02  0.41800000000E+01 0.  1.
        -11    1    3    3    0    0 -0.90579586761E+02 -0.59757963628E+02  0.20238400378E+03  0.22964093873E+03  0.00000000000E+00 0.  1.
         11    1    3    3    0    0 -0.39502886811E+02  0.26117261264E+02  0.35040137580E+02  0.58910106467E+02  0.00000000000E+00 0. -1.
</event>
<event>
 7    1  0.6988825E-006  0.8639717E+02  0.7561462E-02  0.1311819E+00
          1   -1    0    0  501    0  0.00000000000E+00  0.00000000000E+00  0.16351884971E+04  0.16351884971E+04  0.00000000000E+00 0. -1.
         -1   -1    0    0    0  501 -0.00000000000E+00 -0.00000000000E+00 -0.23524761405E+02  0.23524761405E+02  0.00000000000E+00 0.  1.
         23    2    1    2    0    0  0.17766770390E+02  0.47930666502E+02  0.11078176127E+03  0.15167131455E+03  0.90103174784E+02 0.  0.
          5    1    1    2  502    0 -0.39970793554E+02 -0.34691593817E+02  0.14372752462E+04  0.14382554630E+04  0.41800000000E+01 0. -1.
         -5    1    1    2    0  502  0.22204023164E+02 -0.13239072685E+02  0.63606728163E+02  0.68786480923E+02  0.41800000000E+01 0.  1.
        -11    1    3    3    0    0  0.47989678681E+02  0.39457554752E+02  0.39072158768E+02  0.73393061510E+02  0.00000000000E+00 0.  1.
         11    1    3    3    0    0 -0.30222908292E+02  0.84731117494E+01  0.71709602498E+02  0.78278253039E+02  0.00000000000E+00 0. -1.
</event>
<event>
 7    1  0.6988825E-006  0.1153385E+03  0.7561462E-02  0.1250991E+00
          4   -1    0    0  501    0  0.00000000000E+00  0.00000000000E+00  0.11074509250E+04  0.11074509250E+04  0.00000000000E+00 0. -1.
         -4   -1    0    0    0  501 -0.00000000000E+00 -0.00000000000E+00 -0.20600303431E+02  0.20600303431E+02  0.00000000000E+00 0.  1.
         23    2    1    2    0    0 -0.34958556164E+02 -0.62121065331E+02  0.20478959352E+03  0.23431738279E+03  0.88796006995E+02 0.  0.
          5    1    1    2  502    0  0.52924198685E+02 -0.20911493539E+02  0.28617370880E+03  0.29180665753E+03  0.41800000000E+01 0. -1.
         -5    1    1    2    0  502 -0.17965642521E+02  0.83032558869E+02  0.59588731924E+03  0.60192718810E+03  0.41800000000E+01 0. -1.
        -11    1    3    3    0    0  0.18439589402E+01 -0.49677803007E+02  0.36685897909E+02  0.61783002529E+02  0.00000000000E+00 0.  1.
         11    1    3    3    0    0 -0.36802515104E+02 -0.12443262324E+02  0.16810369561E+03  0.17253438026E+03  0.00000000000E+00 0. -1.
</event>
<event>
 7    1  0.6988825E-006  0.1006809E+03  0.7561462E-02  0.1278871E+00
         -1   -1    0    0    0  501 -0.00000000000E+00  0.00000000000E+00  0.15662912239E+03  0.15662912239E+03  0.00000000000E+00 0.  1.
          1   -1    0    0  501    0  0.00000000000E+00 -0.00000000000E+00 -0.11487076256E+03  0.11487076256E+03  0.00000000000E+00 0. -1.
         23    2    1    2    0    0  0.12367864913E+02 -0.34294336567E+02  0.85107705363E+02  0.13418272974E+03  0.97121665173E+02 0.  0.
          5    1    1    2  502    0  0.44841236200E+02  0.52221282797E+02 -0.32558936081E+02  0.76258478609E+02  0.41800000000E+01 0. -1.
         -5    1    1    2    0  502 -0.57209101114E+02 -0.17926946230E+02 -0.10790409459E+02  0.61058676596E+02  0.41800000000E+01 0. -1.
        -11    1    3    3    0    0  0.28753360928E+02  0.54956960506E+01  0.86304745071E+02  0.91134337445E+02  0.00000000000E+00 0.  1.
         11    1    3    3    0    0 -0.16385496015E+02 -0.39790032618E+02 -0.11970397081E+01  0.43048392298E+02  0.00000000000E+00 0. -1.
</event>
<event>
 6    1  0.6988825E-006  0.1468205E+03  0.7561462E-02  0.1204435E+00
         -1   -1    0    0    0  501 -0.00000000000E+00  0.00000000000E+00  0.42770570765E+02  0.42770570765E+02  0.00000000000E+00 0.  1.
          1   -1    0    0  501    0  0.00000000000E+00 -0.00000000000E+00 -0.81613361949E+03  0.81613361949E+03  0.00000000000E+00 0. -1.
          5    1    1    2  502    0 -0.18530277861E+02  0.20882108612E+02 -0.37497245659E+03  0.37603357465E+03  0.41800000000E+01 0. -1.
         -5    1    1    2    0  502  0.21079108416E+02  0.67559838109E+02 -0.96715399779E+02  0.11991664393E+03  0.41800000000E+01 0. -1.
        -11    1    1    2    0    0 -0.28236021542E+02  0.47993611204E+02 -0.13499352370E+03  0.14602709019E+03  0.00000000000E+00 0.  1.
         11    1    1    2    0    0  0.25687190987E+02 -0.13643555793E+03 -0.16668166865E+03  0.21692688149E+03  0.00000000000E+00 0. -1.
</event>
<event>
 7    1  0.6988825E-006  0.1246664E+03  0.7561462E-02  0.1235592E+00
          1   -1    0    0  501    0  0.00000000000E+00  0.00000000000E+00  0.28276084278E+03  0.28276084278E+03  0.00000000000E+00 0. -1.
         -1   -1    0    0    0  501 -0.00000000000E+00 -0.00000000000E+00 -0.84097463607E+02  0.84097463607E+02  0.00000000000E+00 0.  1.
         23    2    1    2    0    0  0.78676327977E+02  0.38360667661E+02  0.12688936145E+02  0.12623789798E+03  0.90074926472E+02 0.  0.
          5    1    1    2  502    0  0.24069312685E+01  0.24060814825E+02 -0.39384790717E+01  0.24853574101E+02  0.41800000000E+01 0. -1.
         -5    1    1    2    0  502 -0.81083259245E+02 -0.62421482486E+02  0.18991292210E+03  0.21576683430E+03  0.41800000000E+01 0. -1.
        -11    1    3    3    0    0  0.48503631529E+02  0.65699581326E+02 -0.50611557976E+01  0.81820856485E+02  0.00000000000E+00 0.  1.
         11    1    3    3    0    0  0.30172696448E+02 -0.27338913665E+02  0.17750091943E+02  0.44417041496E+02  0.00000000000E+00 0. -1.
</event>
<event>
 7    1  0.6988825E-006  0.2512788E+03  0.7561462E-02  0.1112499E+00
         -1   -1    0    0    0  501 -0.00000000000E+00  0.00000000000E+00  0.51264323015E+02  0.51264323015E+02  0.00000000000E+00 0.  1.
          1   -1    0    0  501    0  0.00000000000E+00 -0.00000000000E+00 -0.13149336071E+04  0.13149336071E+04  0.00000000000E+00 0. -1.
         23    2    1    2    0    0 -0.21635409787E+03  0.84596155354E+02 -0.51474629705E+03  0.57215840810E+03  0.91847092881E+02 0.  0.
          5    1    1    2  502    0  0.59451917098E+02 -0.81984893307E+02 -0.21830261317E+03  0.24068559677E+03  0.41800000000E+01 0.  1.
         -5    1    1    2    0  502  0.15690218077E+03 -0.26112620470E+01 -0.53062037387E+03  0.55335392525E+03  0.41800000000E+01 0.  1.
        -11    1    3    3    0    0 -0.21209019326E+03  0.61633026621E+02 -0.49314377472E+03  0.54034402245E+03  0.00000000000E+00 0. -1.
         11    1    3    3    0    0 -0.42639046020E+01  0.22963128733E+02 -0.21602522336E+02  0.31814385660E+02  0.00000000000E+00 0.  1.
</event>
<event>
 7    1  0.6988825E-006  0.1075006E+03  0.7561462E-02  0.1265270E+00
          2   -1    0    0  501    0  0.00000000000E+00  0.00000000000E+00  0.17643786172E+02  0.17643786172E+02  0.00000000000E+00 0. -1.
         -2   -1    0    0    0  501 -0.00000000000E+00 -0.00000000000E+00 -0.74112090925E+03  0.74112090925E+03  0.00000000000E+00 0.  1.
         23    2    1    2    0    0 -0.15021091634E+02  0.92125109706E+01 -0.41938579656E+03  0.42947703004E+03  0.90860164097E+02 0.  0.
          5    1    1    2  502    0  0.45215486298E+02 -0.52658119841E+02 -0.13193418712E+03  0.14913557563E+03  0.41800000000E+01 0. -1.
         -5    1    1    2    0  502 -0.30194394663E+02  0.43445608871E+02 -0.17215713940E+03  0.18015208976E+03  0.41800000000E+01 0. -1.
        -11    1    3    3    0    0  0.84616150719E+01 -0.38392723388E+02 -0.19091553049E+03  0.19492136856E+03  0.00000000000E+00 0. -1.
         11    1    3    3    0    0 -0.23482706706E+02  0.47605234358E+02 -0.22847026607E+03  0.23455566148E+03  0.00000000000E+00 0.  1.
</event>
<event>
 7    1  0.6988825E-006  0.8654170E+02  0.7561462E-02  0.1311449E+00
          1   -1    0    0  501    0  0.00000000000E+00  0.00000000000E+00  0.93995911571E+03  0.93995911571E+03  0.00000000000E+00 0. -1.
         -1   -1    0    0    0  501 -0.00000000000E+00 -0.00000000000E+00 -0.15319149087E+02  0.15319149087E+02  0.00000000000E+00 0.  1.
         23    2    1    2    0    0 -0.17880547446E+02 -0.14814808428E+02  0.18146039922E+03  0.20128860405E+03  0.83964475284E+02 0.  0.
          5    1    1    2  502    0 -0.41937017982E+02 -0.28707896658E+02  0.23766751210E+03  0.24307648079E+03  0.41800000000E+01 0. -1.
         -5    1    1    2    0  502  0.59817565428E+02  0.43522705086E+02  0.50551205530E+03  0.51091317995E+03  0.41800000000E+01 0. -1.
        -11    1    3    3    0    0 -0.30474097685E+02 -0.17469451018E+02  0.18470518318E+03  0.18801557660E+03  0.00000000000E+00 0. -1.
         11    1    3    3    0    0  0.12593550239E+02  0.26546425898E+01 -0.32447839596E+01  0.13273027456E+02  0.00000000000E+00 0.  1.
</event>
<event>
 7    1  0.6988825E-006  0.1621692E+03  0.7561462E-02  0.1186269E+00
         -2   -1    0    0    0  501 -0.00000000000E+00  0.00000000000E+00  0.44553421885E+02  0.44553421885E+02  0.00000000000E+00 0.  1.
          2   -1    0    0  501    0  0.00000000000E+00 -0.00000000000E+00 -0.72643253846E+03  0.72643253846E+03  0.00000000000E+00 0. -1.
         23    2    1    2    0    0  0.46850201284E+02  0.12932945677E+03 -0.23527408200E+03  0.28722610383E+03  0.90685673127E+02 0.  0.
          5    1    1    2  502    0 -0.25373745700E+02  0.75993920316E+01 -0.19181482400E+03  0.19368008890E+03  0.41800000000E+01 0. -1.
         -5    1    1    2    0  502 -0.21476455584E+02 -0.13692884880E+03 -0.25479021057E+03  0.29007976762E+03  0.41800000000E+01 0. -1.
        -11    1    3    3    0    0  0.68456135543E+02  0.11153348417E+03 -0.15870968377E+03  0.20570543091E+03  0.00000000000E+00 0.  1.
         11    1    3    3    0    0 -0.21605934259E+02  0.17795972594E+02 -0.76564398230E+02  0.81520672913E+02  0.00000000000E+00 0. -1.
</event>
<event>
 7    1  0.6988825E-006  0.1447392E+03  0.7561462E-02  0.1207091E+00
          1   -1    0    0  501    0  0.00000000000E+00  0.00000000000E+00  0.65174429218E+03  0.65174429218E+03  0.00000000000E+00 0. -1.
         -1   -1    0    0    0  501 -0.00000000000E+00 -0.00000000000E+00 -0.34205688318E+02  0.34205688318E+02  0.00000000000E+00 0.  1.
         23    2    1    2    0    0  0.93765910979E+02 -0.40000062048E+02  0.28003147482E+03  0.31185003524E+03  0.91873644572E+02 0.  0.
          5    1    1    2  502    0 -0.76848218749E+02 -0.30863304480E+02  0.13058683465E+03  0.15468867468E+03  0.41800000000E+01 0. -1.
         -5    1    1    2    0  502 -0.16917692230E+02  0.70863366527E+02  0.20692029439E+03  0.21941127058E+03  0.41800000000E+01 0. -1.
        -11    1    3    3    0    0 -0.20499160274E+01 -0.37684594665E+02  0.11466655605E+03  0.12071764538E+03  0.00000000000E+00 0.  1.
         11    1    3    3    0    0  0.95815827007E+02 -0.23154673830E+01  0.16536491877E+03  0.19113238986E+03  0.00000000000E+00 0. -1.
</event>
<event>
 7    1  0.6988825E-006  0.8980278E+02  0.7561462E-02  0.1303330E+00
         -1   -1    0    0    0  501 -0.00000000000E+00  0.00000000000E+00  0.22509792730E+03  0.22509792730E+03  0.00000000000E+00 0.  1.
          1   -1    0    0  501    0  0.00000000000E+00 -0.00000000000E+00 -0.47042578499E+02  0.47042578499E+02  0.00000000000E+00 0. -1.
         23    2    1    2    0    0 -0.17664994404E+01  0.52770889178E+01  0.10385632167E+03  0.13676814489E+03  0.88816787362E+02 0.  0.
          5    1    1    2  502    0  0.54608997767E+02 -0.19472766551E+02  0.42409758163E+02  0.71954091348E+02  0.41800000000E+01 0. -1.
         -5    1    1    2    0  502 -0.52842498327E+02  0.14195677633E+02  0.31789268970E+02  0.63418269565E+02  0.41800000000E+01 0.  1.
        -11    1    3    3    0    0 -0.10059660040E+02  0.34650334187E+02  0.90906505824E+01  0.37208632700E+02  0.00000000000E+00 0. -1.
         11    1    3    3    0    0  0.82931605998E+01 -0.29373245269E+02  0.94765671087E+02  0.99559512187E+02  0.00000000000E+00 0.  1.
</event>
<event>
 7    1  0.6988825E-006  0.1178411E+03  0.7561462E-02  0.1246702E+00
          2   -1    0    0  501    0  0.00000000000E+00  0.00000000000E+00  0.70666506169E+02  0.70666506169E+02  0.00000000000E+00 0. -1.
         -2   -1    0    0    0  501 -0.00000000000E+00 -0.00000000000E+00 -0.22529146552E+03  0.22529146552E+03  0.00000000000E+00 0.  1.
         23    2    1    2    0    0 -0.51621497908E+02  0.50054928732E+01 -0.11319139051E+03  0.15434506378E+03  0.91215534985E+02 0.  0.
          5    1    1    2  502    0 -0.26412591183E+02 -0.41175731023E+02 -0.18835206679E+02  0.52586150353E+02  0.41800000000E+01 0.  1.
         -5    1    1    2    0  502  0.78034089091E+02  0.36170238150E+02 -0.22598362157E+02  0.89026757552E+02  0.41800000000E+01 0.  1.
        -11    1    3    3    0    0 -0.65483774281E+02  0.29894822483E+02 -0.99306273102E+02  0.12265219518E+03  0.00000000000E+00 0.  1.
         11    1    3    3    0    0  0.13862276373E+02 -0.24889329610E+02 -0.13885117411E+02  0.31692868601E+02  0.00000000000E+00 0. -1.
</event>
<event>
 7    1  0.1699039E-005  0.7945555E+02  0.7561462E-02  0.1330604E+00
          2   -1    0    0  501    0  0.00000000000E+00  0.00000000000E+00  0.25155319598E+03  0.25155319598E+03  0.00000000000E+00 0. -1.
         -2   -1    0    0    0  501 -0.00000000000E+00 -0.00000000000E+00 -0.48216567400E+02  0.48216567400E+02  0.00000000000E+00 0.  1.
         23    2    1    2    0    0  0.25871011840E+02  0.12839523839E+01  0.57819255237E+02  0.10613626202E+03  0.85152111265E+02 0.  0.
          5    1    1    2  502    0 -0.40730717454E+02 -0.48970155178E+02  0.36222243207E+02  0.73393397151E+02  0.41800000000E+01 0.  1.
         -5    1    1    2    0  502  0.14859705614E+02  0.47686202794E+02  0.10929513014E+03  0.12024010421E+03  0.41800000000E+01 0.  1.
        -11    1    3    3    0    0  0.20579392936E+02 -0.16515615530E+02 -0.15431722365E+02  0.30568202844E+02  0.00000000000E+00 0.  1.
         11    1    3    3    0    0  0.52916189035E+01  0.17799567914E+02  0.73250977602E+02  0.75568059180E+02  0.00000000000E+00 0. -1.
</event>
<event>
 7    1  0.6988825E-006  0.1159775E+03  0.7561462E-02  0.1249884E+00
          2   -1    0    0  501    0  0.00000000000E+00  0.00000000000E+00  0.75981819219E+03  0.75981819219E+03  0.00000000000E+00 0. -1.
         -2   -1    0    0    0  501 -0.00000000000E+00 -0.00000000000E+00 -0.20885831875E+02  0.20885831875E+02  0.00000000000E+00 0.  1.
         23    2    1    2    0    0  0.31233633226E+02  0.52077310918E+02  0.23798861564E+03  0.26082002310E+03  0.87754869484E+02 0.  0.
          5    1    1    2  502    0 -0.68684008972E+02  0.67759573150E+01  0.25375968191E+03  0.26301113141E+03  0.41800000000E+01 0. -1.
         -5    1    1    2    0  502  0.37450375746E+02 -0.58853268233E+02  0.24718406276E+03  0.25687286955E+03  0.41800000000E+01 0. -1.
        -11    1    3    3    0    0  0.27798620319E+02 -0.10898061460E+02  0.14768215636E+03  0.15067033664E+03  0.00000000000E+00 0. -1.
         11    1    3    3    0    0  0.34350129072E+01  0.62975372378E+02  0.90306459280E+02  0.11014968646E+03  0.00000000000E+00 0.  1.
</event>
<event>
 7    1  0.6988825E-006  0.1156383E+03  0.7561462E-02  0.1250471E+00
          1   -1    0    0  501    0  0.00000000000E+00  0.00000000000E+00  0.13663124460E+03  0.13663124460E+03  0.00000000000E+00 0. -1.
         -1   -1    0    0    0  501 -0.00000000000E+00 -0.00000000000E+00 -0.22879495439E+03  0.22879495439E+03  0.00000000000E+00 0.  1.
         23    2    1    2    0    0  0.56445598706E+02  0.27988182575E+02 -0.16779347475E+03  0.20624880162E+03  0.10205133033E+03 0.  0.
          5    1    1    2  502    0 -0.75101056342E+02  0.31156900790E+01  0.94920401967E-01  0.75281854375E+02  0.41800000000E+01 0.  1.
         -5    1    1    2    0  502  0.18655457636E+02 -0.31103872654E+02  0.75534844557E+02  0.83895543004E+02  0.41800000000E+01 0.  1.
        -11    1    3    3    0    0 -0.40133147108E+01  0.53654076884E+02 -0.84478868069E+02  0.10015760486E+03  0.00000000000E+00 0.  1.
         11    1    3    3    0    0  0.60458913417E+02 -0.25665894309E+02 -0.83314606683E+02  0.10609119676E+03  0.00000000000E+00 0. -1.
</event>
<event>
 7    1  0.6988825E-006  0.8802069E+02  0.7561462E-02  0.1307717E+00
          1   -1    0    0  501    0  0.00000000000E+00  0.00000000000E+00  0.40664947268E+02  0.40664947268E+02  0.00000000000E+00 0. -1.
         -1   -1    0    0    0  501 -0.00000000000E+00 -0.00000000000E+00 -0.33006217039E+03  0.33006217039E+03  0.00000000000E+00 0.  1.
         23    2    1    2    0    0 -0.29564361826E+02 -0.35972351168E+02 -0.15174847844E+03  0.17899016441E+03  0.82715274956E+02 0.  0.
          5    1    1    2  502    0 -0.27244856065E+02  0.54928951982E+02 -0.29790307787E+02  0.68296462470E+02  0.41800000000E+01 0.  1.
         -5    1    1    2    0  502  0.56809217890E+02 -0.18956600815E+02 -0.10785843690E+03  0.12344049077E+03  0.41800000000E+01 0.  1.
        -11    1    3    3    0    0  0.48984621318E+01 -0.10844272532E+02  0.75422490281E+01  0.14088246818E+02  0.00000000000E+00 0. -1.
         11    1    3    3    0    0 -0.34462823958E+02 -0.25128078635E+02 -0.15929072746E+03  0.16490191760E+03  0.00000000000E+00 0.  1.
</event>
<event>
 7    1  0.6988825E-006  0.1123093E+03  0.7561462E-02  0.1256352E+00
         -1   -1    0    0    0  501 -0.00000000000E+00  0.00000000000E+00  0.17511415910E+02  0.17511415910E+02  0.00000000000E+00 0.  1.
          1   -1    0    0  501    0  0.00000000000E+00 -0.00000000000E+00 -0.95459866136E+03  0.95459866136E+03  0.00000000000E+00 0. -1.
         23    2    1    2    0    0  0.30610815341E+02 -0.34606227341E+02 -0.21824547113E+03  0.24100271740E+03  0.91195455690E+02 0.  0.
          5    1    1    2  502    0 -0.63473406870E+02  0.54492655639E+02 -0.60760620112E+03  0.61335233833E+03  0.41800000000E+01 0.  1.
         -5    1    1    2    0  502  0.32862591529E+02 -0.19886428298E+02 -0.11123557320E+03  0.11775502154E+03  0.41800000000E+01 0.  1.
        -11    1    3    3    0    0  0.54848154555E+02  0.57461359433E+01 -0.11597889447E+03  0.12842290333E+03  0.00000000000E+00 0.  1.
         11    1    3    3    0    0 -0.24237339215E+02 -0.40352363284E+02 -0.10226657666E+03  0.11257981408E+03  0.00000000000E+00 0. -1.
</event>
<event>
 7    1  0.6988825E-006  0.1099945E+03  0.7561462E-02  0.1260580E+00
          2   -1    0    0  501    0  0.00000000000E+00  0.00000000000E+00  0.46311927558E+03  0.46311927558E+03  0.00000000000E+00 0. -1.
         -2   -1    0    0    0  501 -0.00000000000E+00 -0.00000000000E+00 -0.76902947210E+02  0.76902947210E+02  0.00000000000E+00 0.  1.
         23    2    1    2    0    0 -0.28706785480E+02 -0.71293979957E+02 -0.59856480880E+01  0.12124174965E+03  0.93577896779E+02 0.  0.
          5    1    1    2  502    0 -0.11975034173E+02 -0.23575300199E+02  0.18837442161E+03  0.19026715780E+03  0.41800000000E+01 0. -1.
         -5    1    1    2    0  502  0.40681819653E+02  0.94869280156E+02  0.20382755485E+03  0.22851331533E+03  0.41800000000E+01 0. -1.
        -11    1    3    3    0    0 -0.38022281250E+02 -0.32520157062E+02  0.37285828432E+02  0.62397816377E+02  0.00000000000E+00 0. -1.
         11    1    3    3    0    0  0.93154957702E+01 -0.38773822895E+02 -0.43271476520E+02  0.58843933278E+02  0.00000000000E+00 0.  1.
</event>
<event>
 7    1  0.6988825E-006  0.1407480E+03  0.7561462E-02  0.1212326E+00
         -1   -1    0    0    0  501 -0.00000000000E+00  0.00000000000E+00  0.14875708431E+03  0.14875708431E+03  0.00000000000E+00 0.  1.
          1   -1    0    0  501    0  0.00000000000E+00 -0.00000000000E+00 -0.20152567479E+03  0.20152567479E+03  0.00000000000E+00 0. -1.
         23    2    1    2    0    0  0.46373873448E+02 -0.95396034005E+02  0.57720618018E+02  0.15252939530E+03  0.93180508919E+02 0.  0.
          5    1    1    2  502    0  0.42270585484E+00 -0.28320219691E+02 -0.35640484454E+02  0.45715752818E+02  0.41800000000E+01 0.  1.
         -5    1    1    2    0  502 -0.46796579303E+02  0.12371625370E+03 -0.74848724042E+02  0.15203761098E+03  0.41800000000E+01 0.  1.
        -11    1    3    3    0    0 -0.10435249568E+02 -0.39410994027E+02 -0.16116805942E+02  0.43839164197E+02  0.00000000000E+00 0. -1.
         11    1    3    3    0    0  0.56809123016E+02 -0.55985039978E+02  0.73837423960E+02  0.10869023110E+03  0.00000000000E+00 0.  1.
</event>
<event>
 7    1  0.6988825E-006  0.1120942E+03  0.7561462E-02  0.1256740E+00
          2   -1    0    0  501    0  0.00000000000E+00  0.00000000000E+00  0.27539490301E+03  0.27539490301E+03  0.00000000000E+00 0. -1.
         -2   -1    0    0    0  501 -0.00000000000E+00 -0.00000000000E+00 -0.46157681562E+02  0.46157681562E+02  0.00000000000E+00 0.  1.
         23    2    1    2    0    0  0.25357690773E+02 -0.20038221856E+02  0.84494371246E+02  0.12766138759E+03  0.90075458882E+02 0.  0.
          5    1    1    2  502    0  0.35143653758E+02 -0.32928904084E+02  0.58840277682E+02  0.76151426785E+02  0.41800000000E+01 0. -1.
         -5    1    1    2    0  502 -0.60501344531E+02  0.52967125940E+02  0.85902572520E+02  0.11773977020E+03  0.41800000000E+01 0. -1.
        -11    1    3    3    0    0 -0.12141131512E+01  0.34573463977E+02  0.36149679066E+02  0.50035964852E+02  0.00000000000E+00 0. -1.
         11    1    3    3    0    0  0.26571803924E+02 -0.54611685833E+02  0.48344692180E+02  0.77625422738E+02  0.00000000000E+00 0.  1.
</event>
<event>
 7    1  0.6988825E-006  0.1571713E+03  0.7561462E-02  0.1191928E+00
         -2   -1    0    0    0  501 -0.00000000000E+00  0.00000000000E+00  0.94203314305E+02  0.94203314305E+02  0.00000000000E+00 0.  1.
          2   -1    0    0  501    0  0.00000000000E+00 -0.00000000000E+00 -0.11382236725E+04  0.11382236725E+04  0.00000000000E+00 0. -1.
         23    2    1    2    0    0  0.88281220130E+02  0.62291994507E+02  0.27136326627E+02  0.14365033290E+03  0.90692731305E+02 0.  0.
          5    1    1    2  502    0 -0.13137784187E+03 -0.42252158517E+02 -0.91903680486E+03  0.92935004349E+03  0.41800000000E+01 0. -1.
         -5    1    1    2    0  502  0.43096621737E+02 -0.20039835990E+02 -0.15211987992E+03  0.15942661038E+03  0.41800000000E+01 0.  1.
        -11    1    3    3    0    0  0.57780414335E+02  0.75711258560E+02  0.45556811680E+02  0.10557553715E+03  0.00000000000E+00 0.  1.
         11    1    3    3    0    0  0.30500805795E+02 -0.13419264053E+02 -0.18420485053E+02  0.38074795751E+02  0.00000000000E+00 0. -1.
</event>
<event>
 7    1  0.6988825E-006  0.9229019E+02  0.7561462E-02  0.1297399E+00
          1   -1    0    0  501    0  0.00000000000E+00  0.00000000000E+00  0.43221864109E+02  0.43221864109E+02  0.00000000000E+00 0. -1.
         -1   -1    0    0    0  501 -0.00000000000E+00 -0.00000000000E+00 -0.30064153796E+03  0.30064153796E+03  0.00000000000E+00 0.  1.
         23    2    1    2    0    0 -0.41136567221E+01  0.32558458897E+02 -0.11237670766E+03  0.14958625571E+03  0.93115777692E+02 0.  0.
          5    1    1    2  502    0  0.41277530997E+02 -0.11343726967E+02 -0.14503749735E+03  0.15128074148E+03  0.41800000000E+01 0.  1.
         -5    1    1    2    0  502 -0.37163874275E+02 -0.21214731930E+02 -0.54688380840E-02  0.42996404872E+02  0.41800000000E+01 0.  1.
        -11    1    3    3    0    0  0.44205961660E+01  0.64937419148E+02 -0.70150251470E+02  0.95694659503E+02  0.00000000000E+00 0.  1.
         11    1    3    3    0    0 -0.85342528880E+01 -0.32378960251E+02 -0.42226456192E+02  0.53891596208E+02  0.00000000000E+00 0. -1.
</event>
<event>
 7    1  0.6988825E-006  0.9991321E+02  0.7561462E-02  0.1280479E+00
          1   -1    0    0  501    0  0.00000000000E+00  0.00000000000E+00  0.10792470073E+04  0.10792470073E+04  0.00000000000E+00 0. -1.
         -1   -1    0    0    0  501 -0.00000000000E+00 -0.00000000000E+00 -0.80653632429E+02  0.80653632429E+02  0.00000000000E+00 0.  1.
         23    2    1    2    0    0  0.72360266562E+02  0.41762278484E+01 -0.29462188128E+02  0.12083707713E+03  0.92087619280E+02 0.  0.
          5    1    1    2  502    0 -0.71265591920E+02 -0.34915002848E+02  0.96983087823E+03  0.97308131561E+03  0.41800000000E+01 0. -1.
         -5    1    1    2    0  502 -0.10946746419E+01  0.30738775000E+02  0.58224684761E+02  0.65982246980E+02  0.41800000000E+01 0.  1.
        -11    1    3    3    0    0  0.28951035322E+02  0.27592824468E+02 -0.52828375468E+02  0.66259819370E+02  0.00000000000E+00 0.  1.
         11    1    3    3    0    0  0.43409231240E+02 -0.23416596620E+02  0.23366187340E+02  0.54577257763E+02  0.00000000000E+00 0. -1.
</event>
<event>
 7    1  0.6988825E-006  0.9812579E+02  0.7561462E-02  0.1284287E+00
         -2   -1    0    0    0  501 -0.00000000000E+00  0.00000000000E+00  0.38925016988E+02  0.38925016988E+02  0.00000000000E+00 0.  1.
          2   -1    0    0  501    0  0.00000000000E+00 -0.00000000000E+00 -0.48552147343E+03  0.48552147343E+03  0.00000000000E+00 0. -1.
         23    2    1    2    0    0  0.47743941708E+02 -0.34471151642E+02 -0.74595500923E+02  0.12758317934E+03  0.85118943995E+02 0.  0.
          5    1    1    2  502    0  0.12842276834E+02  0.28991496386E+02 -0.16156225907E+02  0.35831926721E+02  0.41800000000E+01 0.  1.
         -5    1    1    2    0  502 -0.60586218542E+02  0.54796552553E+01 -0.35584472962E+03  0.36103138436E+03  0.41800000000E+01 0.  1.
        -11    1    3    3    0    0  0.28194981979E+02 -0.62819346798E+02 -0.45829801499E+02  0.82713953154E+02  0.00000000000E+00 0.  1.
         11    1    3    3    0    0  0.19548959730E+02  0.28348195156E+02 -0.28765699424E+02  0.44869226185E+02  0.00000000000E+00 0. -1.
</event>
<event>
 7    1  0.6988825E-006  0.1289703E+03  0.7561462E-02  0.1228992E+00
          1   -1    0    0  501    0  0.00000000000E+00  0.00000000000E+00  0.22085032956E+04  0.22085032956E+04  0.00000000000E+00 0. -1.
         -1   -1    0    0    0  501 -0.00000000000E+00 -0.00000000000E+00 -0.18888806517E+02  0.18888806517E+02  0.00000000000E+00 0.  1.
         23    2    1    2    0    0  0.89448899073E+02 -0.77720421471E+02  0.38949439918E+03  0.41904386012E+03  0.99248678862E+02 0.  0.
          5    1    1    2  502    0 -0.51823084133E+02  0.89915419994E+01  0.21840133246E+03  0.22468443270E+03  0.41800000000E+01 0. -1.
         -5    1    1    2    0  502 -0.37625814939E+02  0.68728879471E+02  0.15817187574E+04  0.15836638093E+04  0.41800000000E+01 0. -1.
        -11    1    3    3    0    0  0.49291639554E+02 -0.70325043929E+02  0.35605671568E+03  0.36626720071E+03  0.00000000000E+00 0.  1.
         11    1    3    3    0    0  0.40157259518E+02 -0.73953775419E+01  0.33437683493E+02  0.52776659409E+02  0.00000000000E+00 0. -1.
</event>
<event>
 7    1  0.6988825E-006  0.1462800E+03  0.7561462E-02  0.1205120E+00
          2   -1    0    0  501    0  0.00000000000E+00  0.00000000000E+00  0.18236863343E+03  0.18236863343E+03  0.00000000000E+00 0. -1.
         -2   -1    0    0    0  501 -0.00000000000E+00 -0.00000000000E+00 -0.15613511192E+03  0.15613511192E+03  0.00000000000E+00 0.  1.
         23    2    1    2    0    0 -0.61405546404E+02 -0.10263032480E+03 -0.35147079085E+02  0.15488601031E+03  0.91927875664E+02 0.  0.
          5    1    1    2  502    0  0.82547641012E+02  0.75352296032E+02  0.85942532780E+02  0.14105202194E+03  0.41800000000E+01 0. -1.
         -5    1    1    2    0  502 -0.21142094608E+02  0.27278028772E+02 -0.24561932181E+02  0.42565713087E+02  0.41800000000E+01 0. -1.
        -11    1    3    3    0    0 -0.42746203139E+02 -0.11432342976E+01  0.71688853033E+01  0.43358249318E+02  0.00000000000E+00 0. -1.
         11    1    3    3    0    0 -0.18659343265E+02 -0.10148709051E+03 -0.42315964388E+02  0.11152776100E+03  0.00000000000E+00 0.  1.
</event>
<event>
 7    1  0.6988825E-006  0.2011936E+03  0.7561462E-02  0.1148736E+00
         -2   -1    0    0    0  501 -0.00000000000E+00  0.00000000000E+00  0.25368064745E+03  0.25368064745E+03  0.00000000000E+00 0.  1.
          2   -1    0    0  501    0  0.00000000000E+00 -0.00000000000E+00 -0.17529343530E+03  0.17529343530E+03  0.00000000000E+00 0. -1.
         23    2    1    2    0    0 -0.17112366799E+03  0.16970049519E+02  0.94548911476E+02  0.21571499620E+03  0.89566570768E+02 0.  0.
          5    1    1    2  502    0  0.12384109965E+03  0.46645918492E+02 -0.19429349656E+02  0.13381865229E+03  0.41800000000E+01 0.  1.
         -5    1    1    2    0  502  0.47282568343E+02 -0.63615968011E+02  0.32676503376E+01  0.79440434250E+02  0.41800000000E+01 0.  1.
        -11    1    3    3    0    0 -0.14934004726E+03 -0.16952012226E+02  0.57375828470E+02  0.16087823385E+03  0.00000000000E+00 0. -1.
         11    1    3    3    0    0 -0.21783620726E+02  0.33922061745E+02  0.37173083006E+02  0.54836762351E+02  0.00000000000E+00 0.  1.
</event>
<event>
 7    1  0.6988825E-006  0.6673930E+02  0.7561462E-02  0.1371546E+00
          2   -1    0    0  501    0  0.00000000000E+00  0.00000000000E+00  0.26006870752E+03  0.26006870752E+03  0.00000000000E+00 0. -1.
         -2   -1    0    0    0  501 -0.00000000000E+00 -0.00000000000E+00 -0.49945346892E+02  0.49945346892E+02  0.00000000000E+00 0.  1.
         23    2    1    2    0    0  0.49132636196E+01  0.35889692747E+02  0.86865824542E+02  0.13070403700E+03  0.90695444264E+02 0.  0.
          5    1    1    2  502    0 -0.15315286559E+02 -0.50487379224E+02 -0.17512769760E+01  0.52953496903E+02  0.41800000000E+01 0. -1.
         -5    1    1    2    0  502  0.10402022939E+02  0.14597686477E+02  0.12500881307E+03  0.12635652051E+03  0.41800000000E+01 0. -1.
        -11    1    3    3    0    0 -0.42176796982E+01 -0.12350964598E+02 -0.13620890267E+02  0.18864352631E+02  0.00000000000E+00 0.  1.
         11    1    3    3    0    0  0.91309433178E+01  0.48240657345E+02  0.10048671481E+03  0.11183968437E+03  0.00000000000E+00 0. -1.
</event>
<event>
 7    1  0.6988825E-006  0.1712408E+03  0.7561462E-02  0.1176560E+00
         -2   -1    0    0    0  501 -0.00000000000E+00  0.00000000000E+00  0.78059329731E+03  0.78059329731E+03  0.00000000000E+00 0.  1.
          2   -1    0    0  501    0  0.00000000000E+00 -0.00000000000E+00 -0.43537816448E+02  0.43537816448E+02  0.00000000000E+00 0. -1.
         23    2    1    2    0    0 -0.13657901443E+02 -0.14610666653E+03  0.39170410339E+03  0.42859376163E+03  0.93417405344E+02 0.  0.
          5    1    1    2  502    0 -0.27383379160E+02 -0.48288544188E+01  0.19969956298E+02  0.34488242109E+02  0.41800000000E+01 0. -1.
         -5    1    1    2    0  502  0.41041280603E+02  0.15093552095E+03  0.32538142117E+03  0.36104911002E+03  0.41800000000E+01 0. -1.
        -11    1    3    3    0    0  0.22986156563E+02 -0.63095202996E+02  0.82634034449E+02  0.10647887905E+03  0.00000000000E+00 0. -1.
         11    1    3    3    0    0 -0.36644058006E+02 -0.83011463536E+02  0.30907006894E+03  0.32211488258E+03  0.00000000000E+00 0.  1.
</event>
<event>
 7    1  0.6988825E-006  0.1104217E+03  0.7561462E-02  0.1259791E+00
         -2   -1    0    0    0  501 -0.00000000000E+00  0.00000000000E+00  0.72024098222E+02  0.72024098222E+02  0.00000000000E+00 0.  1.
          2   -1    0    0  501    0  0.00000000000E+00 -0.00000000000E+00 -0.35020616874E+03  0.35020616874E+03  0.00000000000E+00 0. -1.
         23    2    1    2    0    0  0.64319729391E+02 -0.21948068785E+02 -0.13085796194E+02  0.12132593055E+03  0.99649375565E+02 0.  0.
          5    1    1    2  502    0  0.32785492315E+02  0.11985095633E+02 -0.29650284753E+02  0.45990681769E+02  0.41800000000E+01 0.  1.
         -5    1    1    2    0  502 -0.97105221706E+02  0.99629731519E+01 -0.23544598957E+03  0.25491365464E+03  0.41800000000E+01 0.  1.
        -11    1    3    3    0    0  0.58518824624E+02  0.65641214662E+01 -0.47933141769E+02  0.75928430814E+02  0.00000000000E+00 0. -1.
         11    1    3    3    0    0  0.58009047667E+01 -0.28512190251E+02  0.34847345575E+02  0.45397499740E+02  0.00000000000E+00 0.  1.
</event>
<event>
 7    1  0.6988825E-006  0.1461727E+03  0.7561462E-02  0.1205256E+00
         -2   -1    0    0    0  501 -0.00000000000E+00  0.00000000000E+00  0.51787445355E+02  0.51787445355E+02  0.00000000000E+00 0.  1.
          2   -1    0    0  501    0  0.00000000000E+00 -0.00000000000E+00 -0.50106086173E+03  0.50106086173E+03  0.00000000000E+00 0. -1.
         23    2    1    2    0    0 -0.11754346007E+03  0.88611523274E+01 -0.18431321094E+03  0.23702352826E+03  0.91180086618E+02 0.  0.
          5    1    1    2  502    0  0.99857836777E+02  0.38668074883E+02 -0.11373821520E+03  0.15627111563E+03  0.41800000000E+01 0.  1.
         -5    1    1    2    0  502  0.17685623295E+02 -0.47529227210E+02 -0.15122199023E+03  0.15955366320E+03  0.41800000000E+01 0.  1.
        -11    1    3    3    0    0 -0.51147602655E+02  0.36021991498E+02 -0.35765570479E+02  0.72061343038E+02  0.00000000000E+00 0.  1.
         11    1    3    3    0    0 -0.66395857418E+02 -0.27160839171E+02 -0.14854764046E+03  0.16496218522E+03  0.00000000000E+00 0. -1.
</event>
<event>
 7    1  0.6988825E-006  0.2286040E+03  0.7561462E-02  0.1127626E+00
          1   -1    0    0  501    0  0.00000000000E+00  0.00000000000E+00  0.19999185347E+04  0.19999185347E+04  0.00000000000E+00 0. -1.
         -1   -1    0    0    0  501 -0.00000000000E+00 -0.00000000000E+00 -0.35714143793E+02  0.35714143793E+02  0.00000000000E+00 0.  1.
         23    2    1    2    0    0  0.20977267975E+03 -0.45388205362E+02  0.51595880214E+03  0.56623524851E+03  0.91346618898E+02 0.  0.
          5    1    1    2  502    0 -0.12819083102E+02 -0.27552074265E+02  0.91982577552E+02  0.96962429121E+02  0.41800000000E+01 0. -1.
         -5    1    1    2    0  502 -0.19695359665E+03  0.72940279627E+02  0.13562630112E+04  0.13724350009E+04  0.41800000000E+01 0. -1.
        -11    1    3    3    0    0  0.96861714423E+02 -0.35345346683E+02  0.35283395488E+03  0.36759119272E+03  0.00000000000E+00 0. -1.
         11    1    3    3    0    0  0.11291096533E+03 -0.10042858679E+02  0.16312484727E+03  0.19864405578E+03  0.00000000000E+00 0.  1.
</event>
<event>
 7    1  0.6988825E-006  0.1502839E+03  0.7561462E-02  0.1200125E+00
          1   -1    0    0  501    0  0.00000000000E+00  0.00000000000E+00  0.33099074630E+03  0.33099074630E+03  0.00000000000E+00 0. -1.
         -1   -1    0    0    0  501 -0.00000000000E+00 -0.00000000000E+00 -0.10584214345E+03  0.10584214345E+03  0.00000000000E+00 0.  1.
         23    2    1    2    0    0  0.69832390109E+01 -0.12842826856E+03  0.10439069192E+02  0.15702800859E+03  0.89477569960E+02 0.  0.
          5    1    1    2  502    0  0.11303365847E+02 -0.17864081511E+02  0.29589091186E+01  0.21751299522E+02  0.41800000000E+01 0.  1.
         -5    1    1    2    0  502 -0.18286604858E+02  0.14629235007E+03  0.21175062454E+03  0.25805358164E+03  0.41800000000E+01 0.  1.
        -11    1    3    3    0    0  0.17406315752E+02 -0.92300412062E+02 -0.33017967992E+02  0.99561699992E+02  0.00000000000E+00 0.  1.
         11    1    3    3    0    0 -0.10423076742E+02 -0.36127856495E+02  0.43457037183E+02  0.57466308603E+02  0.00000000000E+00 0. -1.
</event>
<event>
 7    1  0.6988825E-006  0.9059486E+02  0.7561462E-02  0.1301418E+00
          1   -1    0    0  501    0  0.00000000000E+00  0.00000000000E+00  0.48404865160E+02  0.48404865160E+02  0.00000000000E+00 0. -1.
         -1   -1    0    0    0  501 -0.00000000000E+00 -0.00000000000E+00 -0.38039156594E+03  0.38039156594E+03  0.00000000000E+00 0.  1.
         23    2    1    2    0    0  0.70532670391E+02 -0.25841519571E+01 -0.20980894061E+03  0.24023233972E+03  0.93328720410E+02 0.  0.
          5    1    1    2  502    0 -0.31437012729E+01  0.11855473971E+02  0.24002841882E+02  0.27277168826E+02  0.41800000000E+01 0.  1.
         -5    1    1    2    0  502 -0.67388969118E+02 -0.92713220138E+01 -0.14618060205E+03  0.16128692255E+03  0.41800000000E+01 0.  1.
        -11    1    3    3    0    0  0.37176374324E+02  0.34135917949E+02 -0.16780135822E+03  0.17522739376E+03  0.00000000000E+00 0.  1.
         11    1    3    3    0    0  0.33356296067E+02 -0.36720069907E+02 -0.42007582386E+02  0.65004945960E+02  0.00000000000E+00 0. -1.
</event>
<event>
 7    1  0.6988825E-006  0.1829502E+03  0.7561462E-02  0.1164978E+00
         -1   -1    0    0    0  501 -0.00000000000E+00  0.00000000000E+00  0.62826616557E+02  0.62826616557E+02  0.00000000000E+00 0.  1.
          1   -1    0    0  501    0  0.00000000000E+00 -0.00000000000E+00 -0.65915352947E+03  0.65915352947E+03  0.00000000000E+00 0. -1.
         23    2    1    2    0    0 -0.16866543491E+03  0.28524703525E+02 -0.26067736043E+03  0.32502958897E+03  0.91814268095E+02 0.  0.
          5    1    1    2  502    0  0.84852507176E+02 -0.60368229742E+02 -0.98570553571E+02  0.14344998281E+03  0.41800000000E+01 0. -1.
         -5    1    1    2    0  502  0.83812927729E+02  0.31843526217E+02 -0.23707899892E+03  0.25350057425E+03  0.41800000000E+01 0. -1.
        -11    1    3    3    0    0 -0.12138889792E+03  0.12612569182E+02 -0.10315474524E+03  0.15979750594E+03  0.00000000000E+00 0.  1.
         11    1    3    3    0    0 -0.47276536989E+02  0.15912134344E+02 -0.15752261518E+03  0.16523208303E+03  0.00000000000E+00 0. -1.
</event>
<event>
 7    1  0.6988825E-006  0.9527301E+02  0.7561462E-02  0.1290562E+00
          2   -1    0    0  501    0  0.00000000000E+00  0.00000000000E+00  0.59024253480E+03  0.59024253480E+03  0.00000000000E+00 0. -1.
         -2   -1    0    0    0  501 -0.00000000000E+00 -0.00000000000E+00 -0.28286513759E+02  0.28286513759E+02  0.00000000000E+00 0.  1.
         23    2    1    2    0    0  0.14226455370E+01 -0.69251488987E+02  0.23343680283E+03  0.26024106994E+03  0.91841607785E+02 0.  0.
          5    1    1    2  502    0 -0.60370172186E+01  0.82150774879E+02  0.33317105399E+03  0.34322823166E+03  0.41800000000E+01 0.  1.
         -5    1    1    2    0  502  0.46143716816E+01 -0.12899285892E+02 -0.46518357758E+01  0.15059746964E+02  0.41800000000E+01 0.  1.
        -11    1    3    3    0    0  0.28290094403E+02 -0.12448493803E+02  0.17868465871E+02  0.35701211630E+02  0.00000000000E+00 0.  1.
         11    1    3    3    0    0 -0.26867448866E+02 -0.56802995184E+02  0.21556833695E+03  0.22453985831E+03  0.00000000000E+00 0. -1.
</event>
<event>
 7    1  0.6988825E-006  0.1738696E+03  0.7561462E-02  0.1173871E+00
          2   -1    0    0  501    0  0.00000000000E+00  0.00000000000E+00  0.37043976973E+03  0.37043976973E+03  0.00000000000E+00 0. -1.
         -2   -1    0    0    0  501 -0.00000000000E+00 -0.00000000000E+00 -0.89751205256E+02  0.89751205256E+02  0.00000000000E+00 0.  1.
         23    2    1    2    0    0  0.80788407755E+02 -0.12176993287E+03  0.15754028358E+03  0.23178618334E+03  0.86897701109E+02 0.  0.
          5    1    1    2  502    0 -0.92378946241E+02  0.28812249939E+02  0.47258235668E+02  0.10777211464E+03  0.41800000000E+01 0.  1.
         -5    1    1    2    0  502  0.11590538486E+02  0.92957682930E+02  0.75890045229E+02  0.12063267701E+03  0.41800000000E+01 0.  1.
        -11    1    3    3    0    0  0.46809692693E+02 -0.11256058050E+03  0.77789162308E+02  0.14461046084E+03  0.00000000000E+00 0.  1.
         11    1    3    3    0    0  0.33978715062E+02 -0.92093523662E+01  0.79751121274E+02  0.87175722496E+02  0.00000000000E+00 0. -1.
</event>
<event>
 7    1  0.6988825E-006  0.9814971E+02  0.7561462E-02  0.1284236E+00
         -2   -1    0    0    0  501 -0.00000000000E+00  0.00000000000E+00  0.27963024975E+03  0.27963024975E+03  0.00000000000E+00 0.  1.
          2   -1    0    0  501    0  0.00000000000E+00 -0.00000000000E+00 -0.59110577603E+02  0.59110577603E+02  0.00000000000E+00 0. -1.
         23    2    1    2    0    0 -0.25171125168E+02 -0.40041298529E+02  0.16498409425E+03  0.19393748554E+03  0.90305624485E+02 0.  0.
          5    1    1    2  502    0 -0.27718604177E+02 -0.32947274146E+02  0.13989604442E+02  0.45464550186E+02  0.41800000000E+01 0.  1.
         -5    1    1    2    0  502  0.52889729345E+02  0.72988572675E+02  0.41545973459E+02  0.99338791628E+02  0.41800000000E+01 0.  1.
        -11    1    3    3    0    0 -0.38591432907E+00 -0.37930041064E+02  0.16475111117E+03  0.16906142545E+03  0.00000000000E+00 0.  1.
         11    1    3    3    0    0 -0.24785210839E+02 -0.21112574651E+01  0.23298307844E+00  0.24876060088E+02  0.00000000000E+00 0. -1.
</event>
<event>
 7    1  0.6988825E-006  0.1760927E+03  0.7561462E-02  0.1171639E+00
          2   -1    0    0  501    0  0.00000000000E+00  0.00000000000E+00  0.35013047674E+03  0.35013047674E+03  0.00000000000E+00 0. -1.
         -2   -1    0    0    0  501 -0.00000000000E+00 -0.00000000000E+00 -0.12555071923E+03  0.12555071923E+03  0.00000000000E+00 0.  1.
         23    2    1    2    0    0  0.14028783697E+03 -0.63877926660E+01 -0.18480139048E+02  0.16836106830E+03  0.91007981424E+02 0.  0.
          5    1    1    2  502    0 -0.14929623375E+03  0.38505693405E+02  0.19387709934E+03  0.24774554665E+03  0.41800000000E+01 0.  1.
         -5    1    1    2    0  502  0.90083967758E+01 -0.32117900739E+02  0.49182797215E+02  0.59574581007E+02  0.41800000000E+01 0.  1.
        -11    1    3    3    0    0  0.57539859592E+02 -0.44969749301E+02  0.75630514896E+01  0.73418754701E+02  0.00000000000E+00 0. -1.
         11    1    3    3    0    0  0.82747977383E+02  0.38581956635E+02 -0.26043190537E+02  0.94942313602E+02  0.00000000000E+00 0.  1.
</event>
<event>
 7    1  0.6988825E-006  0.8473063E+02  0.7561462E-02  0.1316138E+00
          2   -1    0    0  501    0  0.00000000000E+00  0.00000000000E+00  0.33959646309E+03  0.33959646309E+03  0.00000000000E+00 0.  1.
         -2   -1    0    0    0  501 -0.00000000000E+00 -0.00000000000E+00 -0.38134557246E+02  0.38134557246E+02  0.00000000000E+00 0. -1.
         23    2    1    2    0    0 -0.25383184917E+02  0.11557556803E+02  0.84398000946E+02  0.12565835025E+03  0.88820691436E+02 0.  0.
          5    1    1    2  502    0  0.56215160048E+02 -0.48307508169E+01  0.21251402451E+03  0.21991626449E+03  0.41800000000E+01 0.  1.
         -5    1    1    2    0  502 -0.30831975132E+02 -0.67268059857E+01  0.45498803812E+01  0.32156405595E+02  0.41800000000E+01 0.  1.
        -11    1    3    3    0    0  0.10764211771E+02  0.35895175077E+02  0.70633984023E+02  0.79959311827E+02  0.00000000000E+00 0.  1.
         11    1    3    3    0    0 -0.36147396688E+02 -0.24337618275E+02  0.13764016923E+02  0.45699038420E+02  0.00000000000E+00 0. -1.
</event>
<event>
 7    1  0.6988825E-006  0.2256207E+03  0.7561462E-02  0.1129761E+00
          2   -1    0    0  501    0  0.00000000000E+00  0.00000000000E+00  0.10126978155E+03  0.10126978155E+03  0.00000000000E+00 0. -1.
         -2   -1    0    0    0  501 -0.00000000000E+00 -0.00000000000E+00 -0.55439365143E+03  0.55439365143E+03  0.00000000000E+00 0.  1.
         23    2    1    2    0    0 -0.21011305417E+03 -0.12996027998E+01 -0.20655886281E+03  0.30840076850E+03  0.91078459072E+02 0.  0.
          5    1    1    2  502    0 -0.23214414873E+01  0.85417288854E+01  0.10044736288E+02  0.14025667543E+02  0.41800000000E+01 0.  1.
         -5    1    1    2    0  502  0.21243449566E+03 -0.72421260856E+01 -0.25660974336E+03  0.33323699693E+03  0.41800000000E+01 0.  1.
        -11    1    3    3    0    0 -0.14156341640E+03  0.42136032597E+02 -0.12786180184E+03  0.19535681835E+03  0.00000000000E+00 0.  1.
         11    1    3    3    0    0 -0.68549637773E+02 -0.43435635397E+02 -0.78697060970E+02  0.11304395015E+03  0.00000000000E+00 0. -1.
</event>
<event>
 7    1  0.6988825E-006  0.1101408E+03  0.7561462E-02  0.1260309E+00
          1   -1    0    0  501    0  0.00000000000E+00  0.00000000000E+00  0.27306337492E+03  0.27306337492E+03  0.00000000000E+00 0. -1.
         -1   -1    0    0    0  501 -0.00000000000E+00 -0.00000000000E+00 -0.48751309374E+02  0.48751309374E+02  0.00000000000E+00 0.  1.
         23    2    1    2    0    0 -0.25625123838E+02 -0.24563221124E+00  0.51881227574E+02  0.10725397189E+03  0.90305290018E+02 0.  0.
          5    1    1    2  502    0 -0.45368266488E+02  0.25372098276E+02  0.74956859022E+02  0.91312792584E+02  0.41800000000E+01 0.  1.
         -5    1    1    2    0  502  0.70993390326E+02 -0.25126466065E+02  0.97473978951E+02  0.12324791982E+03  0.41800000000E+01 0.  1.
        -11    1    3    3    0    0 -0.19059328440E+02  0.44014377370E+02  0.18409550916E+02  0.51375431685E+02  0.00000000000E+00 0. -1.
         11    1    3    3    0    0 -0.65657953977E+01 -0.44260009582E+02  0.33471676658E+02  0.55878540207E+02  0.00000000000E+00 0.  1.
</event>
<event>
 7    1  0.6988825E-006  0.7607522E+02  0.7561462E-02  0.1340573E+00
         -1   -1    0    0    0  501 -0.00000000000E+00  0.00000000000E+00  0.26154426879E+02  0.26154426879E+02  0.00000000000E+00 0.  1.
          1   -1    0    0  501    0  0.00000000000E+00 -0.00000000000E+00 -0.72257656996E+03  0.72257656996E+03  0.00000000000E+00 0. -1.
         23    2    1    2    0    0 -0.86393127234E+01 -0.39247997062E+02 -0.11104996364E+03  0.14879496624E+03  0.90514112476E+02 0.  0.
          5    1    1    2  502    0 -0.22960540165E+02 -0.65603656288E+00 -0.16059612702E+02  0.28337260785E+02  0.41800000000E+01 0.  1.
         -5    1    1    2    0  502  0.31599852889E+02  0.39904033625E+02 -0.56931256674E+03  0.57159876982E+03  0.41800000000E+01 0.  1.
        -11    1    3    3    0    0  0.14404205956E+02 -0.50194126381E+02 -0.22887247770E+02  0.57015415309E+02  0.00000000000E+00 0.  1.
         11    1    3    3    0    0 -0.23043518680E+02  0.10946129319E+02 -0.88162715869E+02  0.91779550934E+02  0.00000000000E+00 0. -1.
</event>
<event>
 6    1  0.6988825E-006  0.1502609E+03  0.7561462E-02  0.1200153E+00
         -1   -1    0    0    0  501 -0.00000000000E+00  0.00000000000E+00  0.13784226756E+03  0.13784226756E+03  0.00000000000E+00 0.  1.
          1   -1    0    0  501    0  0.00000000000E+00 -0.00000000000E+00 -0.25399229042E+03  0.25399229042E+03  0.00000000000E+00 0. -1.
          5    1    1    2  502    0 -0.19869484410E+02 -0.50152616317E+02 -0.88590724530E+02  0.10380688901E+03  0.41800000000E+01 0. -1.
         -5    1    1    2    0  502 -0.46631609770E+02  0.89115671648E+02 -0.62388315702E+02  0.11843092628E+03  0.41800000000E+01 0.  1.
        -11    1    1    2    0    0  0.75761966164E+02  0.26022970692E+02 -0.21672224305E+02  0.82986479784E+02  0.00000000000E+00 0.  1.
         11    1    1    2    0    0 -0.92608719832E+01 -0.64986026024E+02  0.56501241676E+02  0.86610262898E+02  0.00000000000E+00 0. -1.
</event>
<event>
 7    1  0.6988825E-006  0.3861698E+03  0.7561462E-02  0.1048677E+00
          1   -1    0    0  501    0  0.00000000000E+00  0.00000000000E+00  0.17963201361E+04  0.17963201361E+04  0.00000000000E+00 0.  1.
         -1   -1    0    0    0  501 -0.00000000000E+00 -0.00000000000E+00 -0.90092003298E+02  0.90092003298E+02  0.00000000000E+00 0. -1.
         23    2    1    2    0    0 -0.26751339986E+03 -0.26531442871E+03  0.63469492327E+03  0.74370203724E+03  0.91103838457E+02 0.  0.
          5    1    1    2  502    0  0.54829864342E+01  0.58488046485E+02  0.22882346971E+03  0.23628069623E+03  0.41800000000E+01 0.  1.
         -5    1    1    2    0  502  0.26203041342E+03  0.20682638223E+03  0.84270973983E+03  0.90642940594E+03  0.41800000000E+01 0.  1.
        -11    1    3    3    0    0 -0.14268332134E+03 -0.17352406956E+03  0.29917105440E+03  0.37412892523E+03  0.00000000000E+00 0. -1.
         11    1    3    3    0    0 -0.12483007852E+03 -0.91790359154E+02  0.33552386887E+03  0.36957311201E+03  0.00000000000E+00 0.  1.
</event>
<event>
 7    1  0.6988825E-006  0.1111868E+03  0.7561462E-02  0.1258388E+00
         -2   -1    0    0    0  501 -0.00000000000E+00  0.00000000000E+00  0.41761044185E+02  0.41761044185E+02  0.00000000000E+00 0.  1.
          2   -1    0    0  501    0  0.00000000000E+00 -0.00000000000E+00 -0.50226367848E+03  0.50226367848E+03  0.00000000000E+00 0. -1.
         23    2    1    2    0    0  0.90587244892E+02 -0.25706008250E+02 -0.17551793474E+03  0.21886336862E+03  0.90707116086E+02 0.  0.
          5    1    1    2  502    0 -0.90719578519E+02  0.41426296679E+02 -0.10660717418E+03  0.14604363037E+03  0.41800000000E+01 0. -1.
         -5    1    1    2    0  502  0.13233362746E+00 -0.15720288429E+02 -0.17837752537E+03  0.17911772368E+03  0.41800000000E+01 0. -1.
        -11    1    3    3    0    0  0.98229755781E+01 -0.23526387795E+02  0.16248057456E+00  0.25495257830E+02  0.00000000000E+00 0.  1.
         11    1    3    3    0    0  0.80764269314E+02 -0.21796204552E+01 -0.17568041532E+03  0.19336811079E+03  0.00000000000E+00 0. -1.
</event>
<event>
 7    1  0.6988825E-006  0.1089047E+03  0.7561462E-02  0.1262612E+00
         -2   -1    0    0    0  501 -0.00000000000E+00  0.00000000000E+00  0.10116951931E+04  0.10116951931E+04  0.00000000000E+00 0.  1.
          2   -1    0    0  501    0  0.00000000000E+00 -0.00000000000E+00 -0.18793886032E+02  0.18793886032E+02  0.00000000000E+00 0. -1.
         23    2    1    2    0    0 -0.27034616585E+02 -0.81633323198E+02  0.50694048616E+03  0.52137150259E+03  0.86282774940E+02 0.  0.
          5    1    1    2  502    0  0.39407060415E+02  0.61306721047E+02  0.47820240581E+03  0.48374212528E+03  0.41800000000E+01 0. -1.
         -5    1    1    2    0  502 -0.12372443830E+02  0.20326602150E+02  0.77584150867E+01  0.25375451246E+02  0.41800000000E+01 0. -1.
        -11    1    3    3    0    0 -0.12361201186E+02  0.16950970841E+02  0.63813362060E+02  0.67173505823E+02  0.00000000000E+00 0. -1.
         11    1    3    3    0    0 -0.14673415399E+02 -0.98584294039E+02  0.44312712410E+03  0.45419799677E+03  0.00000000000E+00 0.  1.
</event>
<event>
 7    1  0.6988825E-006  0.8113123E+02  0.7561462E-02  0.1325871E+00
         -1   -1    0    0    0  501 -0.00000000000E+00  0.00000000000E+00  0.19092692727E+02  0.19092692727E+02  0.00000000000E+00 0.  1.
          1   -1    0    0  501    0  0.00000000000E+00 -0.00000000000E+00 -0.70706999783E+03  0.70706999783E+03  0.00000000000E+00 0. -1.
         23    2    1    2    0    0  0.44448108320E+01 -0.44908044361E+01 -0.19215371382E+03  0.21476521354E+03  0.95713758380E+02 0.  0.
          5    1    1    2  502    0 -0.35746708641E+02 -0.16701049022E+02 -0.49417974201E+02  0.63374764624E+02  0.41800000000E+01 0.  1.
         -5    1    1    2    0  502  0.31301897809E+02  0.21191853458E+02 -0.44640561708E+03  0.44802271239E+03  0.41800000000E+01 0.  1.
        -11    1    3    3    0    0 -0.39472560511E+02  0.44943871790E+01 -0.14220835799E+03  0.14765330891E+03  0.00000000000E+00 0. -1.
         11    1    3    3    0    0  0.43917371343E+02 -0.89851916151E+01 -0.49945355833E+02  0.67111904632E+02  0.00000000000E+00 0.  1.
</event>
<event>
 7    1  0.6988825E-006  0.7938689E+02  0.7561462E-02  0.1330800E+00
         -1   -1    0    0    0  501 -0.00000000000E+00  0.00000000000E+00  0.10201863705E+02  0.10201863705E+02  0.00000000000E+00 0. -1.
          1   -1    0    0  501    0  0.00000000000E+00 -0.00000000000E+00 -0.15725256014E+04  0.15725256014E+04  0.00000000000E+00 0.  1.
         23    2    1    2    0    0 -0.35541856090E+02 -0.18017985242E+02 -0.38269805717E+03  0.39581792520E+03  0.92877099588E+02 0.  0.
          5    1    1    2  502    0  0.22796090868E+02 -0.17804181334E+02 -0.10768488932E+04  0.10772454047E+04  0.41800000000E+01 0. -1.
         -5    1    1    2    0  502  0.12745765222E+02  0.35822166575E+02 -0.10277678735E+03  0.10966413528E+03  0.41800000000E+01 0. -1.
        -11    1    3    3    0    0 -0.61409540557E+02 -0.21779759000E+02 -0.33638378111E+03  0.34263615945E+03  0.00000000000E+00 0.  1.
         11    1    3    3    0    0  0.25867684467E+02  0.37617737585E+01 -0.46314276060E+02  0.53181765751E+02  0.00000000000E+00 0. -1.
</event>
<event>
 7    1  0.6988825E-006  0.8253603E+02  0.7561462E-02  0.1322005E+00
          2   -1    0    0  501    0  0.00000000000E+00  0.00000000000E+00  0.14785209863E+04  0.14785209863E+04  0.00000000000E+00 0. -1.
         -2   -1    0    0    0  501 -0.00000000000E+00 -0.00000000000E+00 -0.10054361010E+02  0.10054361010E+02  0.00000000000E+00 0.  1.
         23    2    1    2    0    0 -0.40279213095E+02  0.18640829960E+01  0.40668648831E+03  0.41869211290E+03  0.91012613505E+02 0.  0.
          5    1    1    2  502    0  0.52111867121E+02 -0.86489695317E+01  0.10501260474E+04  0.10514621435E+04  0.41800000000E+01 0. -1.
         -5    1    1    2    0  502 -0.11832654027E+02  0.67848865357E+01  0.11654089573E+02  0.18421090912E+02  0.41800000000E+01 0. -1.
        -11    1    3    3    0    0 -0.49643644416E+02  0.36704617141E+02  0.29238552857E+03  0.29883275869E+03  0.00000000000E+00 0. -1.
         11    1    3    3    0    0  0.93644313212E+01 -0.34840534145E+02  0.11430095975E+03  0.11985935422E+03  0.00000000000E+00 0.  1.
</event>
<event>
 7    1  0.6988825E-006  0.8397088E+02  0.7561462E-02  0.1318146E+00
         -2   -1    0    0    0  501 -0.00000000000E+00  0.00000000000E+00  0.33047871252E+02  0.33047871252E+02  0.00000000000E+00 0.  1.
          2   -1    0    0  501    0  0.00000000000E+00 -0.00000000000E+00 -0.68678874974E+03  0.68678874974E+03  0.00000000000E+00 0. -1.
         23    2    1    2    0    0 -0.16653996988E+02  0.91887500942E+01 -0.56175444546E+02  0.10902748705E+03  0.91485100522E+02 0.  0.
          5    1    1    2  502    0  0.49283248117E+02 -0.14482192876E+02 -0.10349867345E+03  0.11562015509E+03  0.41800000000E+01 0.  1.
         -5    1    1    2    0  502 -0.32629251129E+02  0.52934427823E+01 -0.49406676048E+03  0.49518897886E+03  0.41800000000E+01 0.  1.
        -11    1    3    3    0    0 -0.13988803683E+01 -0.35673457346E+02 -0.49712728833E+02  0.61203822048E+02  0.00000000000E+00 0. -1.
         11    1    3    3    0    0 -0.15255116619E+02  0.44862207440E+02 -0.64627157139E+01  0.47823664998E+02  0.00000000000E+00 0.  1.
</event>
<event>
 7    1  0.6988825E-006  0.9124769E+02  0.7561462E-02  0.1299858E+00
          1   -1    0    0  501    0  0.00000000000E+00  0.00000000000E+00  0.12381760604E+04  0.12381760604E+04  0.00000000000E+00 0. -1.
         -1   -1    0    0    0  501 -0.00000000000E+00 -0.00000000000E+00 -0.16860635824E+02  0.16860635824E+02  0.00000000000E+00 0.  1.
         23    2    1    2    0    0  0.48050044433E+02 -0.10571763741E+02  0.16083096526E+03  0.18606513607E+03  0.79580566196E+02 0.  0.
          5    1    1    2  502    0  0.19346918157E+02  0.16761952420E+02  0.77910777847E+03  0.77953939552E+03  0.41800000000E+01 0.  1.
         -5    1    1    2    0  502 -0.67396962589E+02 -0.61901886793E+01  0.28137668088E+03  0.28943216467E+03  0.41800000000E+01 0.  1.
        -11    1    3    3    0    0  0.66014172020E+01  0.30018113367E+02  0.30003304416E+02  0.42951881392E+02  0.00000000000E+00 0.  1.
         11    1    3    3    0    0  0.41448627231E+02 -0.40589877108E+02  0.13082766084E+03  0.14311325468E+03  0.00000000000E+00 0. -1.
</event>
<event>
 7    1  0.6988825E-006  0.1107790E+03  0.7561462E-02  0.1259134E+00
         -2   -1    0    0    0  501 -0.00000000000E+00  0.00000000000E+00  0.34997026158E+02  0.34997026158E+02  0.00000000000E+00 0. -1.
          2   -1    0    0  501    0  0.00000000000E+00 -0.00000000000E+00 -0.68044157390E+03  0.68044157390E+03  0.00000000000E+00 0.  1.
         23    2    1    2    0    0 -0.48789627760E+02 -0.40851600472E+02 -0.91994555862E+02  0.14447137471E+03  0.91431388281E+02 0.  0.
          5    1    1    2  502    0 -0.26278542613E+02  0.34252834681E+01 -0.34774220980E+03  0.34877558866E+03  0.41800000000E+01 0.  1.
         -5    1    1    2    0  502  0.75068170373E+02  0.37426317004E+02 -0.20570778208E+03  0.22219163669E+03  0.41800000000E+01 0.  1.
        -11    1    3    3    0    0 -0.73735711671E+02 -0.15837058627E+02 -0.69728720011E+02  0.10271252113E+03  0.00000000000E+00 0. -1.
         11    1    3    3    0    0  0.24946083911E+02 -0.25014541845E+02 -0.22265835852E+02  0.41758853580E+02  0.00000000000E+00 0.  1.
</event>
<event>
 7    1  0.6988825E-006  0.1205184E+03  0.7561462E-02  0.1242244E+00
          1   -1    0    0  501    0  0.00000000000E+00  0.00000000000E+00  0.57623384255E+03  0.57623384255E+03  0.00000000000E+00 0. -1.
         -1   -1    0    0    0  501 -0.00000000000E+00 -0.00000000000E+00 -0.29845493393E+02  0.29845493393E+02  0.00000000000E+00 0.  1.
         23    2    1    2    0    0 -0.43880557936E+02  0.55234396858E+02  0.20391882194E+03  0.23471815447E+03  0.92376318050E+02 0.  0.
          5    1    1    2  502    0 -0.43685488693E+02 -0.12100339953E+02  0.96536930728E+02  0.10673186752E+03  0.41800000000E+01 0. -1.
         -5    1    1    2    0  502  0.87566046630E+02 -0.43134056905E+02  0.24593259650E+03  0.26462931396E+03  0.41800000000E+01 0. -1.
        -11    1    3    3    0    0 -0.11114667399E+02 -0.15954242599E+02  0.11311197229E+03  0.11477104149E+03  0.00000000000E+00 0. -1.
         11    1    3    3    0    0 -0.32765890537E+02  0.71188639458E+02  0.90806849646E+02  0.11994711298E+03  0.00000000000E+00 0.  1.
</event>
<event>
 7    1  0.6988825E-006  0.1954619E+03  0.7561462E-02  0.1153625E+00
          1   -1    0    0  501    0  0.00000000000E+00  0.00000000000E+00  0.12262960965E+04  0.12262960965E+04  0.00000000000E+00 0. -1.
         -1   -1    0    0    0  501 -0.00000000000E+00 -0.00000000000E+00 -0.32723792464E+02  0.32723792464E+02  0.00000000000E+00 0.  1.
         23    2    1    2    0    0  0.67202952457E+02 -0.15147350695E+03  0.48636038853E+03  0.52196084457E+03  0.91848982654E+02 0.  0.
          5    1    1    2  502    0 -0.65172347635E+01  0.14178411200E+03  0.55450723217E+03  0.57239929393E+03  0.41800000000E+01 0.  1.
         -5    1    1    2    0  502 -0.60685717694E+02  0.96893949483E+01  0.15270468332E+03  0.16465975044E+03  0.41800000000E+01 0.  1.
        -11    1    3    3    0    0 -0.62890059671E+01 -0.93540378739E+02  0.28244019807E+03  0.29759337953E+03  0.00000000000E+00 0. -1.
         11    1    3    3    0    0  0.73491958424E+02 -0.57933128210E+02  0.20392019045E+03  0.22436746505E+03  0.00000000000E+00 0.  1.
</event>
<event>
 7    1  0.6988825E-006  0.1400845E+03  0.7561462E-02  0.1213215E+00
         -1   -1    0    0    0  501 -0.00000000000E+00  0.00000000000E+00  0.28254411457E+03  0.28254411457E+03  0.00000000000E+00 0.  1.
          1   -1    0    0  501    0  0.00000000000E+00 -0.00000000000E+00 -0.86961218837E+02  0.86961218837E+02  0.00000000000E+00 0. -1.
         23    2    1    2    0    0 -0.83016684770E+01  0.10690937525E+03  0.13344780917E+03  0.19341897381E+03  0.90022494082E+02 0.  0.
          5    1    1    2  502    0  0.34738199574E+02 -0.11091413599E+03  0.82181388853E+02  0.14240765831E+03  0.41800000000E+01 0.  1.
         -5    1    1    2    0  502 -0.26436531097E+02  0.40047607397E+01 -0.20046302292E+02  0.33678701291E+02  0.41800000000E+01 0.  1.
        -11    1    3    3    0    0  0.38501575322E+02  0.45887685058E+02  0.79228222895E+02  0.99323523122E+02  0.00000000000E+00 0.  1.
         11    1    3    3    0    0 -0.46803243799E+02  0.61021690190E+02  0.54219586278E+02  0.94095450686E+02  0.00000000000E+00 0. -1.
</event>
<event>
 7    1  0.6988825E-006  0.1111559E+03  0.7561462E-02  0.1258444E+00
          2   -1    0    0  501    0  0.00000000000E+00  0.00000000000E+00  0.65248725999E+02  0.65248725999E+02  0.00000000000E+00 0. -1.
         -2   -1    0    0    0  501 -0.00000000000E+00 -0.00000000000E+00 -0.21704871257E+03  0.21704871257E+03  0.00000000000E+00 0.  1.
         23    2    1    2    0    0 -0.35689264262E+02  0.24831800227E+02 -0.59246843020E+02  0.12046793447E+03  0.95456759541E+02 0.  0.
          5    1    1    2  502    0  0.43485049045E+02 -0.69170002425E+02 -0.35882618430E+02  0.89333495573E+02  0.41800000000E+01 0. -1.
         -5    1    1    2    0  502 -0.77957847832E+01  0.44338202198E+02 -0.56670525121E+02  0.72496008525E+02  0.41800000000E+01 0. -1.
        -11    1    3    3    0    0  0.28143469898E+02  0.85389262676E+01 -0.43872961637E+02  0.52818603944E+02  0.00000000000E+00 0.  1.
         11    1    3    3    0    0 -0.63832734160E+02  0.16292873959E+02 -0.15373881383E+02  0.67649330529E+02  0.00000000000E+00 0. -1.
</event>
<event>
 7    1  0.6988825E-006  0.1005968E+03  0.7561462E-02  0.1279046E+00
         -2   -1    0    0    0  501 -0.00000000000E+00  0.00000000000E+00  0.12302973892E+03  0.12302973892E+03  0.00000000000E+00 0.  1.
          2   -1    0    0  501    0  0.00000000000E+00 -0.00000000000E+00 -0.11905487781E+03  0.11905487781E+03  0.00000000000E+00 0. -1.
         23    2    1    2    0    0  0.28490818732E+02 -0.43046815410E+02  0.27225058384E+02  0.10478374377E+03  0.87026858409E+02 0.  0.
          5    1    1    2  502    0 -0.60971459235E+01  0.77206729840E+02 -0.46186032043E+02  0.90270018705E+02  0.41800000000E+01 0.  1.
         -5    1    1    2    0  502 -0.22393672809E+02 -0.34159914430E+02  0.22935834765E+02  0.47030854256E+02  0.41800000000E+01 0.  1.
        -11    1    3    3    0    0 -0.14262713266E+02 -0.36672816166E+02  0.43444194164E+02  0.58615001850E+02  0.00000000000E+00 0.  1.
         11    1    3    3    0    0  0.42753531998E+02 -0.63739992443E+01 -0.16219135780E+02  0.46168741916E+02  0.00000000000E+00 0. -1.
</event>
<event>
 7    1  0.6988825E-006  0.1046368E+03  0.7561462E-02  0.1270837E+00
         -2   -1    0    0    0  501 -0.00000000000E+00  0.00000000000E+00  0.20330777167E+02  0.20330777167E+02  0.00000000000E+00 0.  1.
          2   -1    0    0  501    0  0.00000000000E+00 -0.00000000000E+00 -0.86753991099E+03  0.86753991099E+03  0.00000000000E+00 0. -1.
         23    2    1    2    0    0 -0.81997549809E+01  0.40359486467E+02 -0.15871266641E+03  0.18689253082E+03  0.89682682095E+02 0.  0.
          5    1    1    2  502    0  0.59374784325E+02 -0.10179025120E+02 -0.20151369145E+03  0.21036686480E+03  0.41800000000E+01 0.  1.
         -5    1    1    2    0  502 -0.51175029344E+02 -0.30180461346E+02 -0.48698277597E+03  0.49061129254E+03  0.41800000000E+01 0.  1.
        -11    1    3    3    0    0 -0.43298071322E+02  0.14243781619E+02 -0.40979124190E+02  0.61293530771E+02  0.00000000000E+00 0.  1.
         11    1    3    3    0    0  0.35098316341E+02  0.26115704847E+02 -0.11773354222E+03  0.12559900005E+03  0.00000000000E+00 0. -1.
</event>
<event>
 7    1  0.6988825E-006  0.1563167E+03  0.7561462E-02  0.1192919E+00
          2   -1    0    0  501    0  0.00000000000E+00  0.00000000000E+00  0.25802988169E+03  0.25802988169E+03  0.00000000000E+00 0. -1.
         -2   -1    0    0    0  501 -0.00000000000E+00 -0.00000000000E+00 -0.13379858529E+03  0.13379858529E+03  0.00000000000E+00 0.  1.
         23    2    1    2    0    0  0.11987211906E+03  0.88922979549E+02  0.73789250710E+02  0.19065988977E+03  0.92896279939E+02 0.  0.
          5    1    1    2  502    0 -0.34406027851E+02 -0.58761914109E+02 -0.34881960866E+02  0.76622195845E+02  0.41800000000E+01 0. -1.
         -5    1    1    2    0  502 -0.85466091212E+02 -0.30161065440E+02  0.85324006559E+02  0.12454638136E+03  0.41800000000E+01 0. -1.
        -11    1    3    3    0    0  0.46163534117E+02  0.57025885178E+02 -0.10635068171E+02  0.74135876183E+02  0.00000000000E+00 0.  1.
         11    1    3    3    0    0  0.73708584946E+02  0.31897094371E+02  0.84424318880E+02  0.11652401359E+03  0.00000000000E+00 0. -1.
</event>
<event>
 7    1  0.6988825E-006  0.1265019E+03  0.7561462E-02  0.1232741E+00
         -4   -1    0    0    0  501 -0.00000000000E+00  0.00000000000E+00  0.10247044817E+03  0.10247044817E+03  0.00000000000E+00 0.  1.
          4   -1    0    0  501    0  0.00000000000E+00 -0.00000000000E+00 -0.17991698735E+03  0.17991698735E+03  0.00000000000E+00 0. -1.
         23    2    1    2    0    0 -0.15074297582E+02 -0.80662499112E+02 -0.63999018744E+02  0.13665036861E+03  0.88565092623E+02 0.  0.
          5    1    1    2  502    0  0.64017927466E+02  0.60272011241E+02 -0.24592323717E+02  0.91396198838E+02  0.41800000000E+01 0. -1.
         -5    1    1    2    0  502 -0.48943629884E+02  0.20390487870E+02  0.11144803279E+02  0.54340868064E+02  0.41800000000E+01 0.  1.
        -11    1    3    3    0    0 -0.19167738238E+02 -0.94983412561E+02 -0.71065415395E+02  0.12016465419E+03  0.00000000000E+00 0.  1.
         11    1    3    3    0    0  0.40934406554E+01  0.14320913450E+02  0.70663966518E+01  0.16485714424E+02  0.00000000000E+00 0. -1.
</event>
<event>
 7    1  0.6988825E-006  0.1671590E+03  0.7561462E-02  0.1180843E+00
          1   -1    0    0  501    0  0.00000000000E+00  0.00000000000E+00  0.79904189342E+02  0.79904189342E+02  0.00000000000E+00 0. -1.
         -1   -1    0    0    0  501 -0.00000000000E+00 -0.00000000000E+00 -0.68561749017E+03  0.68561749017E+03  0.00000000000E+00 0.  1.
         23    2    1    2    0    0  0.55800069768E+02  0.11352481693E+03 -0.55530156040E+03  0.57645572558E+03  0.89105828811E+02 0.  0.
          5    1    1    2  502    0  0.33497280522E+02 -0.76440793259E+02 -0.98993334258E+01  0.84147084790E+02  0.41800000000E+01 0. -1.
         -5    1    1    2    0  502 -0.89297350290E+02 -0.37084023675E+02 -0.40512407005E+02  0.10491886914E+03  0.41800000000E+01 0.  1.
        -11    1    3    3    0    0  0.46908118541E+02  0.12836828787E+03 -0.50891280130E+03  0.52694499546E+03  0.00000000000E+00 0.  1.
         11    1    3    3    0    0  0.88919512274E+01 -0.14843470939E+02 -0.46388759101E+02  0.49510730121E+02  0.00000000000E+00 0. -1.
</event>
<event>
 7    1  0.6988825E-006  0.1485966E+03  0.7561462E-02  0.1202208E+00
          1   -1    0    0  501    0  0.00000000000E+00  0.00000000000E+00  0.37783860277E+03  0.37783860277E+03  0.00000000000E+00 0. -1.
         -1   -1    0    0    0  501 -0.00000000000E+00 -0.00000000000E+00 -0.70895299497E+02  0.70895299497E+02  0.00000000000E+00 0.  1.
         23    2    1    2    0    0  0.11717302624E+03  0.32326279403E+02  0.12219320246E+03  0.19465866441E+03  0.90478232091E+02 0.  0.
          5    1    1    2  502    0 -0.55571694906E+02  0.47334841025E+02  0.87371336884E+02  0.11392990546E+03  0.41800000000E+01 0.  1.
         -5    1    1    2    0  502 -0.61601331332E+02 -0.79661120428E+02  0.97378763928E+02  0.14014533240E+03  0.41800000000E+01 0.  1.
        -11    1    3    3    0    0  0.20630719978E+02  0.14234266909E+02 -0.12457386883E+02  0.27989774012E+02  0.00000000000E+00 0.  1.
         11    1    3    3    0    0  0.96542306260E+02  0.18092012493E+02  0.13465058935E+03  0.16666889039E+03  0.00000000000E+00 0. -1.
</event>
<event>
 7    1  0.6988825E-006  0.7542066E+02  0.7561462E-02  0.1342573E+00
         -1   -1    0    0    0  501 -0.00000000000E+00  0.00000000000E+00  0.22431133605E+03  0.22431133605E+03  0.00000000000E+00 0.  1.
          1   -1    0    0  501    0  0.00000000000E+00 -0.00000000000E+00 -0.57826399086E+02  0.57826399086E+02  0.00000000000E+00 0. -1.
         23    2    1    2    0    0  0.12045800294E+02 -0.11941455479E+02  0.11296589225E+03  0.14494926241E+03  0.89226095942E+02 0.  0.
          5    1    1    2  502    0 -0.37137962250E+02 -0.16852782056E+02  0.80432996248E+02  0.90278368332E+02  0.41800000000E+01 0. -1.
         -5    1    1    2    0  502  0.25092161956E+02  0.28794237535E+02 -0.26913951538E+02  0.46910104394E+02  0.41800000000E+01 0. -1.
        -11    1    3    3    0    0 -0.23027411922E+02 -0.25008286832E+02  0.99541412305E+02  0.10518635308E+03  0.00000000000E+00 0.  1.
         11    1    3    3    0    0  0.35073212216E+02  0.13066831354E+02  0.13424479949E+02  0.39762909333E+02  0.00000000000E+00 0. -1.
</event>
<event>
 7    1  0.6988825E-006  0.1132404E+03  0.7561462E-02  0.1254684E+00
         -1   -1    0    0    0  501 -0.00000000000E+00  0.00000000000E+00  0.93035856235E+02  0.93035856235E+02  0.00000000000E+00 0.  1.
          1   -1    0    0  501    0  0.00000000000E+00 -0.00000000000E+00 -0.15062578017E+03  0.15062578017E+03  0.00000000000E+00 0. -1.
         23    2    1    2    0    0 -0.24327822281E+02 -0.33275182976E+02 -0.71404109400E+00  0.10020116714E+03  0.91327341488E+02 0.  0.
          5    1    1    2  502    0  0.54127894609E+02  0.64903307772E+02 -0.21587539949E+02  0.87325612597E+02  0.41800000000E+01 0.  1.
         -5    1    1    2    0  502 -0.29800072328E+02 -0.31628124796E+02 -0.35288342896E+02  0.56134856668E+02  0.41800000000E+01 0.  1.
        -11    1    3    3    0    0 -0.58273823994E+02 -0.23971449393E+02 -0.99969620899E+01  0.63799750782E+02  0.00000000000E+00 0. -1.
         11    1    3    3    0    0  0.33946001713E+02 -0.93037335829E+01  0.92829209959E+01  0.36401416361E+02  0.00000000000E+00 0.  1.
</event>
<event>
 7    1  0.6988825E-006  0.1005569E+03  0.7561462E-02  0.1279129E+00
         -1   -1    0    0    0  501 -0.00000000000E+00  0.00000000000E+00  0.53603346573E+03  0.53603346573E+03  0.00000000000E+00 0.  1.
          1   -1    0    0  501    0  0.00000000000E+00 -0.00000000000E+00 -0.34469617081E+02  0.34469617081E+02  0.00000000000E+00 0. -1.
         23    2    1    2    0    0  0.23244862453E+02 -0.35476504514E+02  0.37182441819E+03  0.38535847346E+03  0.91917621274E+02 0.  0.
          5    1    1    2  502    0 -0.14191179467E+00 -0.31476887141E+02 -0.56863322759E+01  0.32258662988E+02  0.41800000000E+01 0.  1.
         -5    1    1    2    0  502 -0.23102950658E+02  0.66953391655E+02  0.13542576273E+03  0.15288594636E+03  0.41800000000E+01 0.  1.
        -11    1    3    3    0    0 -0.69073654829E-01 -0.62624711273E+02  0.27738664441E+03  0.28436808845E+03  0.00000000000E+00 0.  1.
         11    1    3    3    0    0  0.23313936108E+02  0.27148206759E+02  0.94437773782E+02  0.10099038501E+03  0.00000000000E+00 0. -1.
</event>
<event>
 7    1  0.6988825E-006  0.6883189E+02  0.7561462E-02  0.1364111E+00
          1   -1    0    0  501    0  0.00000000000E+00  0.00000000000E+00  0.47951513971E+03  0.47951513971E+03  0.00000000000E+00 0. -1.
         -1   -1    0    0    0  501 -0.00000000000E+00 -0.00000000000E+00 -0.31862710539E+02  0.31862710539E+02  0.00000000000E+00 0.  1.
         23    2    1    2    0    0 -0.48685134656E+02 -0.33655984232E+02  0.18475291638E+03  0.21428042788E+03  0.90991725179E+02 0.  0.
          5    1    1    2  502    0  0.29139549759E+01 -0.18535065685E+01  0.23055279249E+03  0.23061654135E+03  0.41800000000E+01 0. -1.
         -5    1    1    2    0  502  0.45771179681E+02  0.35509490801E+02  0.32346720299E+02  0.66480881014E+02  0.41800000000E+01 0. -1.
        -11    1    3    3    0    0 -0.40369501564E+02 -0.91461114730E+00  0.17430447138E+03  0.17892060226E+03  0.00000000000E+00 0. -1.
         11    1    3    3    0    0 -0.83156330924E+01 -0.32741373085E+02  0.10448445003E+02  0.35359825625E+02  0.00000000000E+00 0.  1.
</event>
<event>
 7    1  0.6988825E-006  0.1077709E+03  0.7561462E-02  0.1264754E+00
          2   -1    0    0  501    0  0.00000000000E+00  0.00000000000E+00  0.15565304959E+02  0.15565304959E+02  0.00000000000E+00 0. -1.
         -2   -1    0    0    0  501 -0.00000000000E+00 -0.00000000000E+00 -0.86699630506E+03  0.86699630506E+03  0.00000000000E+00 0.  1.
         23    2    1    2    0    0  0.36002665995E+02 -0.44609575501E+02 -0.33766065411E+03  0.35068273349E+03  0.75348895468E+02 0.  0.
          5    1    1    2  502    0 -0.46300346978E+02  0.75299129768E+02 -0.23336780595E+03  0.24958302492E+03  0.41800000000E+01 0.  1.
         -5    1    1    2    0  502  0.10297680983E+02 -0.30689554267E+02 -0.28040254004E+03  0.28229585161E+03  0.41800000000E+01 0.  1.
        -11    1    3    3    0    0  0.25732212296E+02 -0.65913179983E+02 -0.26404406557E+03  0.27336049935E+03  0.00000000000E+00 0. -1.
         11    1    3    3    0    0  0.10270453700E+02  0.21303604482E+02 -0.73616588546E+02  0.77322234140E+02  0.00000000000E+00 0.  1.
</event>
<event>
 7    1  0.6988825E-006  0.1473696E+03  0.7561462E-02  0.1203743E+00
         -2   -1    0    0    0  501 -0.00000000000E+00  0.00000000000E+00  0.11649482676E+03  0.11649482676E+03  0.00000000000E+00 0.  1.
          2   -1    0    0  501    0  0.00000000000E+00 -0.00000000000E+00 -0.23912949484E+03  0.23912949484E+03  0.00000000000E+00 0. -1.
         23    2    1    2    0    0  0.11303420532E+03 -0.41715526595E+02 -0.15861093399E+02  0.15174725912E+03  0.90877608006E+02 0.  0.
          5    1    1    2  502    0  0.26001998038E+02  0.14706167228E+02 -0.81774284391E+01  0.31252487779E+02  0.41800000000E+01 0.  1.
         -5    1    1    2    0  502 -0.13903620336E+03  0.27009359367E+02 -0.98596146239E+02  0.17262457470E+03  0.41800000000E+01 0.  1.
        -11    1    3    3    0    0  0.10226063926E+03 -0.44842099511E+02  0.20648068001E+02  0.11355348935E+03  0.00000000000E+00 0.  1.
         11    1    3    3    0    0  0.10773566058E+02  0.31265729160E+01 -0.36509161399E+02  0.38193769778E+02  0.00000000000E+00 0. -1.
</event>
<event>
 7    1  0.6988825E-006  0.1333682E+03  0.7561462E-02  0.1222542E+00
          3   -1    0    0  501    0  0.00000000000E+00  0.00000000000E+00  0.21060691349E+03  0.21060691349E+03  0.00000000000E+00 0. -1.
         -3   -1    0    0    0  501 -0.00000000000E+00 -0.00000000000E+00 -0.12827146166E+03  0.12827146166E+03  0.00000000000E+00 0.  1.
         23    2    1    2    0    0 -0.56637141257E+02 -0.90175327740E+02 -0.28085776184E+02  0.14093931934E+03  0.87952972707E+02 0.  0.
          5    1    1    2  502    0  0.78264425487E+02  0.50077709753E+02  0.17886686838E+02  0.94712740837E+02  0.41800000000E+01 0. -1.
         -5    1    1    2    0  502 -0.21627284229E+02  0.40097617988E+02  0.92534541183E+02  0.10322631498E+03  0.41800000000E+01 0. -1.
        -11    1    3    3    0    0 -0.61204835238E+02 -0.30964819228E+02  0.11526804282E+02  0.69553713799E+02  0.00000000000E+00 0.  1.
         11    1    3    3    0    0  0.45676939803E+01 -0.59210508512E+02 -0.39612580466E+02  0.71385605536E+02  0.00000000000E+00 0. -1.
</event>
<event>
 7    1  0.6988825E-006  0.8893415E+02  0.7561462E-02  0.1305454E+00
          2   -1    0    0  501    0  0.00000000000E+00  0.00000000000E+00  0.73486593203E+03  0.73486593203E+03  0.00000000000E+00 0. -1.
         -2   -1    0    0    0  501 -0.00000000000E+00 -0.00000000000E+00 -0.25581722872E+02  0.25581722872E+02  0.00000000000E+00 0.  1.
         23    2    1    2    0    0 -0.38108722363E+02  0.15199463532E+02  0.11258851435E+03  0.14940254019E+03  0.89228061952E+02 0.  0.
          5    1    1    2  502    0  0.32907202117E+02 -0.61681815868E+02  0.20692502874E+03  0.21845587719E+03  0.41800000000E+01 0.  1.
         -5    1    1    2    0  502  0.52015202464E+01  0.46482352336E+02  0.38977066606E+03  0.39258923752E+03  0.41800000000E+01 0.  1.
        -11    1    3    3    0    0 -0.45929042436E+02  0.25471828800E+01  0.12295133444E+03  0.13127450522E+03  0.00000000000E+00 0. -1.
         11    1    3    3    0    0  0.78203200729E+01  0.12652280652E+02 -0.10362820089E+02  0.18128034972E+02  0.00000000000E+00 0.  1.
</event>
<event>
 7    1  0.6988825E-006  0.1363541E+03  0.7561462E-02  0.1218321E+00
         -1   -1    0    0    0  501 -0.00000000000E+00  0.00000000000E+00  0.26558117746E+03  0.26558117746E+03  0.00000000000E+00 0.  1.
          1   -1    0    0  501    0  0.00000000000E+00 -0.00000000000E+00 -0.20570576105E+03  0.20570576105E+03  0.00000000000E+00 0. -1.
         23    2    1    2    0    0  0.83961261467E+02 -0.18397661396E+01  0.21942341325E+03  0.25184219450E+03  0.90691667102E+02 0.  0.
          5    1    1    2  502    0  0.32451503943E+02 -0.38017693888E+01 -0.24771392032E+02  0.41214655425E+02  0.41800000000E+01 0. -1.
         -5    1    1    2    0  502 -0.11641276541E+03  0.56415355284E+01 -0.13477660481E+03  0.17823008859E+03  0.41800000000E+01 0. -1.
        -11    1    3    3    0    0 -0.67483608356E+01 -0.27948668532E+02  0.60856459583E+02  0.67306590462E+02  0.00000000000E+00 0.  1.
         11    1    3    3    0    0  0.90709622303E+02  0.26108902392E+02  0.15856695367E+03  0.18453560404E+03  0.00000000000E+00 0. -1.
</event>
<event>
 7    1  0.6988825E-006  0.7253977E+02  0.7561462E-02  0.1351663E+00
          1   -1    0    0  501    0  0.00000000000E+00  0.00000000000E+00  0.18178099616E+03  0.18178099616E+03  0.00000000000E+00 0. -1.
         -1   -1    0    0    0  501 -0.00000000000E+00 -0.00000000000E+00 -0.10673564686E+03  0.10673564686E+03  0.00000000000E+00 0.  1.
         23    2    1    2    0    0 -0.18520737162E+02 -0.82066316836E+01 -0.55280387155E+02  0.10673911210E+03  0.89033422594E+02 0.  0.
          5    1    1    2  502    0  0.43310459158E+00  0.44653277412E+02  0.13342160293E+03  0.14075830096E+03  0.41800000000E+01 0.  1.
         -5    1    1    2    0  502  0.18087632570E+02 -0.36446645729E+02 -0.30958664660E+01  0.41019229954E+02  0.41800000000E+01 0.  1.
        -11    1    3    3    0    0  0.79169447104E+01 -0.26184747085E+02 -0.67249845813E+02  0.72600693904E+02  0.00000000000E+00 0.  1.
         11    1    3    3    0    0 -0.26437681872E+02  0.17978115402E+02  0.11969458659E+02  0.34138418194E+02  0.00000000000E+00 0. -1.
</event>
<event>
 7    1  0.6988825E-006  0.1204517E+03  0.7561462E-02  0.1242354E+00
          2   -1    0    0  501    0  0.00000000000E+00  0.00000000000E+00  0.25590045346E+03  0.25590045346E+03  0.00000000000E+00 0. -1.
         -2   -1    0    0    0  501 -0.00000000000E+00 -0.00000000000E+00 -0.73029307877E+02  0.73029307877E+02  0.00000000000E+00 0.  1.
         23    2    1    2    0    0  0.66425343961E+02  0.21226355534E+02  0.34297906979E+02  0.12255667232E+03  0.94767647531E+02 0.  0.
          5    1    1    2  502    0 -0.25674601904E+02  0.52363032963E+02  0.52155173024E+02  0.78349900301E+02  0.41800000000E+01 0. -1.
         -5    1    1    2    0  502 -0.40750742056E+02 -0.73589388497E+02  0.96418065577E+02  0.12802318871E+03  0.41800000000E+01 0. -1.
        -11    1    3    3    0    0 -0.93121929867E+01 -0.12265447063E+02 -0.18709597250E+02  0.24232357688E+02  0.00000000000E+00 0.  1.
         11    1    3    3    0    0  0.75737536947E+02  0.33491802597E+02  0.53007504229E+02  0.98324314636E+02  0.00000000000E+00 0. -1.
</event>
<event>
 7    1  0.6988825E-006  0.5616027E+02  0.7561462E-02  0.1414690E+00
          1   -1    0    0  501    0  0.00000000000E+00  0.00000000000E+00  0.29291926501E+02  0.29291926501E+02  0.00000000000E+00 0. -1.
         -1   -1    0    0    0  501 -0.00000000000E+00 -0.00000000000E+00 -0.43971701725E+03  0.43971701725E+03  0.00000000000E+00 0.  1.
         23    2    1    2    0    0 -0.14742435539E+02 -0.30626859292E+02 -0.18179410353E+03  0.20618655108E+03  0.91150720518E+02 0.  0.
          5    1    1    2  502    0  0.11421210680E+02  0.20653629428E+02 -0.24319942341E+03  0.24437767576E+03  0.41800000000E+01 0.  1.
         -5    1    1    2    0  502  0.33212248581E+01  0.99732298642E+01  0.14568436200E+02  0.18444716907E+02  0.41800000000E+01 0.  1.
        -11    1    3    3    0    0  0.22015395924E+02 -0.33591015995E+02 -0.15624330438E+03  0.16132267100E+03  0.00000000000E+00 0.  1.
         11    1    3    3    0    0 -0.36757831462E+02  0.29641567027E+01 -0.25550799148E+02  0.44863880080E+02  0.00000000000E+00 0. -1.
</event>
<event>
 7    1  0.6988825E-006  0.6508546E+02  0.7561462E-02  0.1377650E+00
         -2   -1    0    0    0  501 -0.00000000000E+00  0.00000000000E+00  0.38043791068E+02  0.38043791068E+02  0.00000000000E+00 0.  1.
          2   -1    0    0  501    0  0.00000000000E+00 -0.00000000000E+00 -0.38831131512E+03  0.38831131512E+03  0.00000000000E+00 0. -1.
         23    2    1    2    0    0 -0.34149998747E+02 -0.35003194169E+02 -0.10869641098E+03  0.14995741469E+03  0.90999288149E+02 0.  0.
          5    1    1    2  502    0 -0.36379559694E+01 -0.12764149273E+02 -0.20450169013E+03  0.20497456402E+03  0.41800000000E+01 0. -1.
         -5    1    1    2    0  502  0.37787954716E+02  0.47767343442E+02 -0.37069422938E+02  0.71423127474E+02  0.41800000000E+01 0. -1.
        -11    1    3    3    0    0 -0.13226044059E+02 -0.31268972181E+02  0.49770364210E+01  0.34313958592E+02  0.00000000000E+00 0.  1.
         11    1    3    3    0    0 -0.20923954688E+02 -0.37342219881E+01 -0.11367344741E+03  0.11564345610E+03  0.00000000000E+00 0. -1.
</event>
<event>
 7    1  0.6988825E-006  0.9552058E+02  0.7561462E-02  0.1290008E+00
         -2   -1    0    0    0  501 -0.00000000000E+00  0.00000000000E+00  0.19522585661E+02  0.19522585661E+02  0.00000000000E+00 0. -1.
          2   -1    0    0  501    0  0.00000000000E+00 -0.00000000000E+00 -0.71621047477E+03  0.71621047477E+03  0.00000000000E+00 0.  1.
         23    2    1    2    0    0  0.44161773394E+02 -0.11974778203E+02 -0.31495782504E+03  0.33143253464E+03  0.92495599479E+02 0.  0.
          5    1    1    2  502    0 -0.83116231808E+02  0.19342794152E+02 -0.18789408263E+03  0.20640763155E+03  0.41800000000E+01 0.  1.
         -5    1    1    2    0  502  0.38954458413E+02 -0.73680159491E+01 -0.19383598143E+03  0.19789289423E+03  0.41800000000E+01 0.  1.
        -11    1    3    3    0    0 -0.10237036036E+02 -0.17667088068E+01  0.12082158757E+01  0.10458391483E+02  0.00000000000E+00 0. -1.
         11    1    3    3    0    0  0.54398809430E+02 -0.10208069396E+02 -0.31616604092E+03  0.32097414316E+03  0.00000000000E+00 0.  1.
</event>
<event>
 7    1  0.6988825E-006  0.1490946E+03  0.7561462E-02  0.1201590E+00
         -4   -1    0    0    0  501 -0.00000000000E+00  0.00000000000E+00  0.92896977873E+02  0.92896977873E+02  0.00000000000E+00 0.  1.
          4   -1    0    0  501    0  0.00000000000E+00 -0.00000000000E+00 -0.28805514119E+03  0.28805514119E+03  0.00000000000E+00 0. -1.
         23    2    1    2    0    0 -0.82521008692E+02  0.73789296987E+02 -0.31142319187E+02  0.14685280869E+03  0.91330860886E+02 0.  0.
          5    1    1    2  502    0  0.48720658913E+02  0.30274951767E+02 -0.54451000813E+02  0.79200121206E+02  0.41800000000E+01 0.  1.
         -5    1    1    2    0  502  0.33800349779E+02 -0.10406424875E+03 -0.10956484332E+03  0.15489918917E+03  0.41800000000E+01 0.  1.
        -11    1    3    3    0    0 -0.94695082615E+02  0.57291912528E+02 -0.13483120767E+01  0.11068577080E+03  0.00000000000E+00 0.  1.
         11    1    3    3    0    0  0.12174073923E+02  0.16497384460E+02 -0.29794007110E+02  0.36167037888E+02  0.00000000000E+00 0. -1.
</event>
<event>
 7    1  0.6988825E-006  0.9988550E+02  0.7561462E-02  0.1280537E+00
         -1   -1    0    0    0  501 -0.00000000000E+00  0.00000000000E+00  0.22421990020E+02  0.22421990020E+02  0.00000000000E+00 0.  1.
          1   -1    0    0  501    0  0.00000000000E+00 -0.00000000000E+00 -0.64440927498E+03  0.64440927498E+03  0.00000000000E+00 0. -1.
         23    2    1    2    0    0 -0.30314799269E+02  0.26232176958E+02 -0.16588033920E+03  0.19322013926E+03  0.90612477727E+02 0.  0.
          5    1    1    2  502    0 -0.65693961505E+01 -0.59652648363E+02 -0.12460288260E+03  0.13836526361E+03  0.41800000000E+01 0. -1.
         -5    1    1    2    0  502  0.36884195420E+02  0.33420471405E+02 -0.33150406317E+03  0.33524586213E+03  0.41800000000E+01 0.  1.
        -11    1    3    3    0    0  0.24620190473E+02  0.24452874735E+02 -0.27345072036E+02  0.44179744526E+02  0.00000000000E+00 0.  1.
         11    1    3    3    0    0 -0.54934989742E+02  0.17793022230E+01 -0.13853526716E+03  0.14904039473E+03  0.00000000000E+00 0. -1.
</event>
<event>
 7    1  0.6988825E-006  0.1336998E+03  0.7561462E-02  0.1222067E+00
          2   -1    0    0  501    0  0.00000000000E+00  0.00000000000E+00  0.34638461793E+03  0.34638461793E+03  0.00000000000E+00 0. -1.
         -2   -1    0    0    0  501 -0.00000000000E+00 -0.00000000000E+00 -0.66088622779E+02  0.66088622779E+02  0.00000000000E+00 0.  1.
         23    2    1    2    0    0 -0.50872342467E+02 -0.87865483705E+02  0.83679140278E+02  0.15828052786E+03  0.87989706947E+02 0.  0.
          5    1    1    2  502    0  0.21814418546E+02 -0.25846043248E+02  0.87430872787E+02  0.93837714829E+02  0.41800000000E+01 0. -1.
         -5    1    1    2    0  502  0.29057923921E+02  0.11371152695E+03  0.10918598208E+03  0.16035499801E+03  0.41800000000E+01 0. -1.
        -11    1    3    3    0    0 -0.40288449509E+02 -0.16176254422E+02 -0.50636641179E+01  0.43708935760E+02  0.00000000000E+00 0.  1.
         11    1    3    3    0    0 -0.10583892958E+02 -0.71689229283E+02  0.88742804396E+02  0.11457159210E+03  0.00000000000E+00 0. -1.
</event>
<event>
 7    1  0.6988825E-006  0.9475888E+02  0.7561462E-02  0.1291720E+00
          1   -1    0    0  501    0  0.00000000000E+00  0.00000000000E+00  0.10346263441E+04  0.10346263441E+04  0.00000000000E+00 0. -1.
         -1   -1    0    0    0  501 -0.00000000000E+00 -0.00000000000E+00 -0.18699586158E+02  0.18699586158E+02  0.00000000000E+00 0.  1.
         23    2    1    2    0    0  0.50001865169E+02 -0.36398715102E+02  0.24328834653E+03  0.26818645014E+03  0.94391204557E+02 0.  0.
          5    1    1    2  502    0 -0.55653632076E+02  0.19543055844E+02  0.13673396939E+03  0.14897284511E+03  0.41800000000E+01 0. -1.
         -5    1    1    2    0  502  0.56517669070E+01  0.16855659258E+02  0.63590444199E+03  0.63616663498E+03  0.41800000000E+01 0. -1.
        -11    1    3    3    0    0  0.15835159559E+02  0.31978044404E+02  0.92162743044E+02  0.98829746573E+02  0.00000000000E+00 0. -1.
         11    1    3    3    0    0  0.34166705610E+02 -0.68376759506E+02  0.15112560349E+03  0.16935670356E+03  0.00000000000E+00 0.  1.
</event>
<event>
 7    1  0.6988825E-006  0.1998779E+03  0.7561462E-02  0.1149842E+00
          2   -1    0    0  501    0  0.00000000000E+00  0.00000000000E+00  0.49088157922E+03  0.49088157922E+03  0.00000000000E+00 0. -1.
         -2   -1    0    0    0  501 -0.00000000000E+00 -0.00000000000E+00 -0.10938679087E+03  0.10938679087E+03  0.00000000000E+00 0.  1.
         23    2    1    2    0    0  0.48708885250E+02  0.16407756292E+03  0.38048288491E+02  0.19666380300E+03  0.89078487842E+02 0.  0.
          5    1    1    2  502    0 -0.44589401657E+02 -0.18353841343E+03  0.32614397571E+03  0.37691103624E+03  0.41800000000E+01 0.  1.
         -5    1    1    2    0  502 -0.41194835925E+01  0.19460850504E+02  0.17302524152E+02  0.26693530854E+02  0.41800000000E+01 0.  1.
        -11    1    3    3    0    0 -0.24036602621E+02  0.39013764085E+02  0.22793662108E+02  0.51179909007E+02  0.00000000000E+00 0.  1.
         11    1    3    3    0    0  0.72745487871E+02  0.12506379884E+03  0.15254626384E+02  0.14548389399E+03  0.00000000000E+00 0. -1.
</event>
<event>
 6    1  0.6988825E-006  0.7533952E+02  0.7561462E-02  0.1342823E+00
          1   -1    0    0  501    0  0.00000000000E+00  0.00000000000E+00  0.53916253026E+03  0.53916253026E+03  0.00000000000E+00 0. -1.
         -1   -1    0    0    0  501 -0.00000000000E+00 -0.00000000000E+00 -0.39552834932E+02  0.39552834932E+02  0.00000000000E+00 0.  1.
          5    1    1    2  502    0 -0.49971754090E+02  0.36955827606E+02  0.32040417488E+03  0.32640345752E+03  0.41800000000E+01 0. -1.
         -5    1    1    2    0  502  0.50942850838E+02 -0.15901953065E+02  0.20160548424E+03  0.20859120268E+03  0.41800000000E+01 0.  1.
        -11    1    1    2    0    0 -0.11183242283E+02 -0.21919004436E+02 -0.76673424111E+01  0.25773936507E+02  0.00000000000E+00 0. -1.
         11    1    1    2    0    0  0.10212145535E+02  0.86512989543E+00 -0.14732621379E+02  0.17946768479E+02  0.00000000000E+00 0.  1.
</event>
<event>
 7    1  0.6988825E-006  0.1293708E+03  0.7561462E-02  0.1228392E+00
          1   -1    0    0  501    0  0.00000000000E+00  0.00000000000E+00  0.51657010832E+03  0.51657010832E+03  0.00000000000E+00 0. -1.
         -1   -1    0    0    0  501 -0.00000000000E+00 -0.00000000000E+00 -0.39331891818E+02  0.39331891818E+02  0.00000000000E+00 0.  1.
         23    2    1    2    0    0  0.84143904146E+02 -0.37476028991E+02  0.20579670481E+03  0.24315613251E+03  0.91038298052E+02 0.  0.
          5    1    1    2  502    0 -0.40698734171E+02  0.79271597482E+02  0.11869706511E+03  0.14848177934E+03  0.41800000000E+01 0. -1.
         -5    1    1    2    0  502 -0.43445169976E+02 -0.41795568491E+02  0.15274444659E+03  0.16426408829E+03  0.41800000000E+01 0. -1.
        -11    1    3    3    0    0  0.70010390301E+00 -0.24674611064E+02  0.12103433328E+03  0.12352585320E+03  0.00000000000E+00 0. -1.
         11    1    3    3    0    0  0.83443800243E+02 -0.12801417927E+02  0.84762371531E+02  0.11963027931E+03  0.00000000000E+00 0.  1.
</event>
<event>
 7    1  0.6988825E-006  0.1523990E+03  0.7561462E-02  0.1197556E+00
          1   -1    0    0  501    0  0.00000000000E+00  0.00000000000E+00  0.64737106291E+03  0.64737106291E+03  0.00000000000E+00 0.  1.
         -1   -1    0    0    0  501 -0.00000000000E+00 -0.00000000000E+00 -0.66059077888E+02  0.66059077888E+02  0.00000000000E+00 0. -1.
         23    2    1    2    0    0 -0.49273600757E+02  0.98130424673E+02  0.43063383276E+02  0.15003138355E+03  0.92722667627E+02 0.  0.
          5    1    1    2  502    0  0.86407782675E+02 -0.95694630224E+02  0.41549964343E+03  0.43506458515E+03  0.41800000000E+01 0.  1.
         -5    1    1    2    0  502 -0.37134181918E+02 -0.24357944491E+01  0.12274895832E+03  0.12833417210E+03  0.41800000000E+01 0.  1.
        -11    1    3    3    0    0 -0.48346405184E+02  0.89549402905E+01 -0.37487751535E+01  0.49311450648E+02  0.00000000000E+00 0. -1.
         11    1    3    3    0    0 -0.92719557305E+00  0.89175484382E+02  0.46812158430E+02  0.10071993290E+03  0.00000000000E+00 0.  1.
</event>
<event>
 7    1  0.6988825E-006  0.9134005E+02  0.7561462E-02  0.1299639E+00
         -1   -1    0    0    0  501 -0.00000000000E+00  0.00000000000E+00  0.35898084739E+02  0.35898084739E+02  0.00000000000E+00 0.  1.
          1   -1    0    0  501    0  0.00000000000E+00 -0.00000000000E+00 -0.31968730401E+03  0.31968730401E+03  0.00000000000E+00 0. -1.
         23    2    1    2    0    0  0.13324322286E+02  0.18291315547E+02 -0.94237713626E+02  0.12735314394E+03  0.82619409419E+02 0.  0.
          5    1    1    2  502    0  0.47789542090E+02 -0.38059036946E+02 -0.11005696585E+03  0.12594577706E+03  0.41800000000E+01 0.  1.
         -5    1    1    2    0  502 -0.61113864376E+02  0.19767721400E+02 -0.79494539796E+02  0.10228646775E+03  0.41800000000E+01 0.  1.
        -11    1    3    3    0    0  0.22076205655E+02  0.33152657269E+02 -0.10119835704E+03  0.10875460913E+03  0.00000000000E+00 0. -1.
         11    1    3    3    0    0 -0.87518833687E+01 -0.14861341722E+02  0.69606434118E+01  0.18598534807E+02  0.00000000000E+00 0.  1.
</event>
<event>
 7    1  0.6988825E-006  0.9522814E+02  0.7561462E-02  0.1290663E+00
         -4   -1    0    0    0  501 -0.00000000000E+00  0.00000000000E+00  0.60854043141E+02  0.60854043141E+02  0.00000000000E+00 0.  1.
          4   -1    0    0  501    0  0.00000000000E+00 -0.00000000000E+00 -0.23539562962E+03  0.23539562962E+03  0.00000000000E+00 0. -1.
         23    2    1    2    0    0 -0.45025961692E+02  0.68051269132E+00 -0.52430517708E+02  0.11572313323E+03  0.92817477096E+02 0.  0.
          5    1    1    2  502    0  0.43163480065E+02 -0.34164332797E+02 -0.14536878518E+01  0.55225657580E+02  0.41800000000E+01 0.  1.
         -5    1    1    2    0  502  0.18624816262E+01  0.33483820105E+02 -0.12065738092E+03  0.12530088195E+03  0.41800000000E+01 0.  1.
        -11    1    3    3    0    0 -0.60554227746E+02 -0.29617424135E+02 -0.44479488833E+02  0.80761570299E+02  0.00000000000E+00 0. -1.
         11    1    3    3    0    0  0.15528266055E+02  0.30297936827E+02 -0.79510288748E+01  0.34961562934E+02  0.00000000000E+00 0.  1.
</event>
<event>
 7    1  0.6988825E-006  0.1454916E+03  0.7561462E-02  0.1206125E+00
         -2   -1    0    0    0  501 -0.00000000000E+00  0.00000000000E+00  0.18158420506E+02  0.18158420506E+02  0.00000000000E+00 0.  1.
          2   -1    0    0  501    0  0.00000000000E+00 -0.00000000000E+00 -0.16173242227E+04  0.16173242227E+04  0.00000000000E+00 0. -1.
         23    2    1    2    0    0 -0.11914229326E+03  0.50162514272E+02 -0.72118166323E+03  0.73925795377E+03  0.98428486465E+02 0.  0.
          5    1    1    2  502    0  0.11094211054E+03 -0.55324570685E+02 -0.87688486647E+03  0.88561475906E+03  0.41800000000E+01 0. -1.
         -5    1    1    2    0  502  0.82001827226E+01  0.51620564129E+01 -0.10992725139E+01  0.10609930403E+02  0.41800000000E+01 0. -1.
        -11    1    3    3    0    0 -0.36642141326E+02  0.63013984059E+02 -0.43798345857E+03  0.44400779125E+03  0.00000000000E+00 0.  1.
         11    1    3    3    0    0 -0.82500151939E+02 -0.12851469787E+02 -0.28319820466E+03  0.29525016252E+03  0.00000000000E+00 0. -1.
</event>
<event>
 7    1  0.6988825E-006  0.2320175E+03  0.7561462E-02  0.1125228E+00
          1   -1    0    0  501    0  0.00000000000E+00  0.00000000000E+00  0.85166821911E+03  0.85166821911E+03  0.00000000000E+00 0. -1.
         -1   -1    0    0    0  501 -0.00000000000E+00 -0.00000000000E+00 -0.12546421240E+03  0.12546421240E+03  0.00000000000E+00 0.  1.
         23    2    1    2    0    0 -0.13724176771E+03 -0.16589223926E+03  0.28758123279E+02  0.23656953801E+03  0.93715413932E+02 0.  0.
          5    1    1    2  502    0  0.15386652367E+03  0.11586800186E+03  0.59269187979E+03  0.62321861151E+03  0.41800000000E+01 0.  1.
         -5    1    1    2    0  502 -0.16624755960E+02  0.50024237400E+02  0.10475400364E+03  0.11734428199E+03  0.41800000000E+01 0.  1.
        -11    1    3    3    0    0 -0.25433333050E+02 -0.57028335622E+02  0.48780145350E+02  0.79237542076E+02  0.00000000000E+00 0.  1.
         11    1    3    3    0    0 -0.11180843466E+03 -0.10886390363E+03 -0.20022022071E+02  0.15733199593E+03  0.00000000000E+00 0. -1.
</event>
<event>
 7    1  0.6988825E-006  0.1072047E+03  0.7561462E-02  0.1265836E+00
          2   -1    0    0  501    0  0.00000000000E+00  0.00000000000E+00  0.76075771464E+03  0.76075771464E+03  0.00000000000E+00 0. -1.
         -2   -1    0    0    0  501 -0.00000000000E+00 -0.00000000000E+00 -0.30666106315E+02  0.30666106315E+02  0.00000000000E+00 0.  1.
         23    2    1    2    0    0  0.15587328210E+02 -0.59355705053E+02  0.10767955455E+03  0.15360733165E+03  0.90742830821E+02 0.  0.
          5    1    1    2  502    0  0.36935048041E+02  0.34024475914E+02  0.49585585970E+03  0.49840984013E+03  0.41800000000E+01 0. -1.
         -5    1    1    2    0  502 -0.52522376250E+02  0.25331229140E+02  0.12655619407E+03  0.13940664918E+03  0.41800000000E+01 0. -1.
        -11    1    3    3    0    0 -0.35846007008E+02 -0.23694393630E+02  0.24342044811E+02  0.49385176455E+02  0.00000000000E+00 0.  1.
         11    1    3    3    0    0  0.51433335218E+02 -0.35661311423E+02  0.83337509736E+02  0.10422215519E+03  0.00000000000E+00 0. -1.
</event>
<event>
 7    1  0.6988825E-006  0.1549798E+03  0.7561462E-02  0.1194484E+00
          2   -1    0    0  501    0  0.00000000000E+00  0.00000000000E+00  0.82231699281E+02  0.82231699281E+02  0.00000000000E+00 0. -1.
         -2   -1    0    0    0  501 -0.00000000000E+00 -0.00000000000E+00 -0.30942034179E+03  0.30942034179E+03  0.00000000000E+00 0.  1.
         23    2    1    2    0    0 -0.30274433778E+02  0.11044850309E+03 -0.10921039535E+03  0.18505835231E+03  0.95938887482E+02 0.  0.
          5    1    1    2  502    0  0.73908855120E+02 -0.72781905773E+02 -0.44092244158E+02  0.11278884284E+03  0.41800000000E+01 0. -1.
         -5    1    1    2    0  502 -0.43634421342E+02 -0.37666597321E+02 -0.73886003000E+02  0.93804845924E+02  0.41800000000E+01 0. -1.
        -11    1    3    3    0    0  0.24516685256E+02  0.84012331395E+02 -0.53535091136E+02  0.10259213257E+03  0.00000000000E+00 0. -1.
         11    1    3    3    0    0 -0.54791119034E+02  0.26436171699E+02 -0.55675304214E+02  0.82466219741E+02  0.00000000000E+00 0.  1.
</event>
<event>
 7    1  0.6988825E-006  0.1181899E+03  0.7561462E-02  0.1246113E+00
         -2   -1    0    0    0  501 -0.00000000000E+00  0.00000000000E+00  0.19824481024E+03  0.19824481024E+03  0.00000000000E+00 0. -1.
          2   -1    0    0  501    0  0.00000000000E+00 -0.00000000000E+00 -0.81345008804E+02  0.81345008804E+02  0.00000000000E+00 0.  1.
         23    2    1    2    0    0  0.85906015337E+01  0.49915354623E+02  0.97175923562E+02  0.14320115921E+03  0.92184981515E+02 0.  0.
          5    1    1    2  502    0 -0.48760209111E+02 -0.72455030711E+02  0.39543819306E+01  0.87523705385E+02  0.41800000000E+01 0. -1.
         -5    1    1    2    0  502  0.40169607577E+02  0.22539676088E+02  0.15769495945E+02  0.48864954451E+02  0.41800000000E+01 0. -1.
        -11    1    3    3    0    0  0.13321566022E+01  0.75800138384E+02  0.84358710853E+02  0.11341881553E+03  0.00000000000E+00 0. -1.
         11    1    3    3    0    0  0.72584449314E+01 -0.25884783761E+02  0.12817212709E+02  0.29782343676E+02  0.00000000000E+00 0.  1.
</event>
<event>
 7    1  0.6988825E-006  0.1197223E+03  0.7561462E-02  0.1243556E+00
          2   -1    0    0  501    0  0.00000000000E+00  0.00000000000E+00  0.13803164635E+04  0.13803164635E+04  0.00000000000E+00 0.  1.
         -2   -1    0    0    0  501 -0.00000000000E+00 -0.00000000000E+00 -0.11597091523E+02  0.11597091523E+02  0.00000000000E+00 0. -1.
         23    2    1    2    0    0 -0.41435204370E+02 -0.54548191760E+02  0.47810437324E+03  0.48995183043E+03  0.82320246850E+02 0.  0.
          5    1    1    2  502    0  0.67998275716E+02 -0.52858044681E+01  0.60829071991E+03  0.61211663721E+03  0.41800000000E+01 0. -1.
         -5    1    1    2    0  502 -0.26563071346E+02  0.59833996228E+02  0.28232427888E+03  0.28984508743E+03  0.41800000000E+01 0. -1.
        -11    1    3    3    0    0 -0.32334313927E+02  0.14808065894E+02  0.12373551932E+03  0.12874496268E+03  0.00000000000E+00 0. -1.
         11    1    3    3    0    0 -0.91008904433E+01 -0.69356257654E+02  0.35436885392E+03  0.36120686775E+03  0.00000000000E+00 0.  1.
</event>
<event>
 7    1  0.6988825E-006  0.1276760E+03  0.7561462E-02  0.1230945E+00
         -2   -1    0    0    0  501 -0.00000000000E+00  0.00000000000E+00  0.28411551786E+02  0.28411551786E+02  0.00000000000E+00 0.  1.
          2   -1    0    0  501    0  0.00000000000E+00 -0.00000000000E+00 -0.68095101961E+03  0.68095101961E+03  0.00000000000E+00 0. -1.
         23    2    1    2    0    0  0.61553439088E+02 -0.60929111280E+02 -0.29240211078E+03  0.31840582806E+03  0.91553779192E+02 0.  0.
          5    1    1    2  502    0 -0.86852455551E+02  0.61818994880E+02 -0.18187650707E+03  0.21085889449E+03  0.41800000000E+01 0. -1.
         -5    1    1    2    0  502  0.25299016462E+02 -0.88988360059E+00 -0.17826084997E+03  0.18009784885E+03  0.41800000000E+01 0. -1.
        -11    1    3    3    0    0  0.68454400690E+02 -0.71957477537E+01 -0.19721888340E+03  0.20888530759E+03  0.00000000000E+00 0.  1.
         11    1    3    3    0    0 -0.69009616020E+01 -0.53733363526E+02 -0.95183227384E+02  0.10952052046E+03  0.00000000000E+00 0. -1.
</event>
<event>
 7    1  0.6988825E-006  0.2487408E+03  0.7561462E-02  0.1114103E+00
         -4   -1    0    0    0  501 -0.00000000000E+00  0.00000000000E+00  0.33944357139E+03  0.33944357139E+03  0.00000000000E+00 0.  1.
          4   -1    0    0  501    0  0.00000000000E+00 -0.00000000000E+00 -0.31966618308E+03  0.31966618308E+03  0.00000000000E+00 0. -1.
         23    2    1    2    0    0  0.23224665891E+03 -0.51131236278E+02  0.20964761401E+03  0.33009369449E+03  0.91960922036E+02 0.  0.
          5    1    1    2  502    0 -0.85430398158E+02  0.67514276723E+02 -0.12983038163E+03  0.16949905866E+03  0.41800000000E+01 0.  1.
         -5    1    1    2    0  502 -0.14681626075E+03 -0.16383040446E+02 -0.60039844076E+02  0.15951700132E+03  0.41800000000E+01 0.  1.
        -11    1    3    3    0    0  0.61601714205E+02  0.30781362708E+01  0.10980402987E+02  0.62648346871E+02  0.00000000000E+00 0. -1.
         11    1    3    3    0    0  0.17064494470E+03 -0.54209372548E+02  0.19866721103E+03  0.26744534762E+03  0.00000000000E+00 0.  1.
</event>
<event>
 7    1  0.6988825E-006  0.1003358E+03  0.7561462E-02  0.1279591E+00
         -1   -1    0    0    0  501 -0.00000000000E+00  0.00000000000E+00  0.79988587061E+02  0.79988587061E+02  0.00000000000E+00 0.  1.
          1   -1    0    0  501    0  0.00000000000E+00 -0.00000000000E+00 -0.22255694053E+03  0.22255694053E+03  0.00000000000E+00 0. -1.
         23    2    1    2    0    0  0.66925190829E+02  0.46069188305E+01 -0.24561889375E+02  0.11795503600E+03  0.93861063487E+02 0.  0.
          5    1    1    2  502    0 -0.62465208624E+02  0.15403738914E+02 -0.14006260299E+03  0.15418878888E+03  0.41800000000E+01 0. -1.
         -5    1    1    2    0  502 -0.44599822051E+01 -0.20010657745E+02  0.22056138896E+02  0.30401702710E+02  0.41800000000E+01 0. -1.
        -11    1    3    3    0    0  0.68888474654E+01  0.43304328444E+02 -0.70445744765E+01  0.44411114723E+02  0.00000000000E+00 0. -1.
         11    1    3    3    0    0  0.60036343364E+02 -0.38697409613E+02 -0.17517314898E+02  0.73543921275E+02  0.00000000000E+00 0.  1.
</event>
<event>
 7    1  0.6988825E-006  0.8619180E+02  0.7561462E-02  0.1312345E+00
         -2   -1    0    0    0  501 -0.00000000000E+00  0.00000000000E+00  0.24420313409E+02  0.24420313409E+02  0.00000000000E+00 0.  1.
          2   -1    0    0  501    0  0.00000000000E+00 -0.00000000000E+00 -0.57589865470E+03  0.57589865470E+03  0.00000000000E+00 0. -1.
         23    2    1    2    0    0 -0.11072083225E+02  0.62956796734E+01 -0.10771998397E+03  0.13908898700E+03  0.87062763280E+02 0.  0.
          5    1    1    2  502    0  0.13468441098E+02  0.38841792899E+02 -0.38384087521E+03  0.38605876970E+03  0.41800000000E+01 0.  1.
         -5    1    1    2    0  502 -0.23963578729E+01 -0.45137472572E+02 -0.59917482111E+02  0.75171211403E+02  0.41800000000E+01 0.  1.
        -11    1    3    3    0    0 -0.27247507237E+01  0.45501255894E+02 -0.72978275707E+02  0.86044275112E+02  0.00000000000E+00 0. -1.
         11    1    3    3    0    0 -0.83473325010E+01 -0.39205576221E+02 -0.34741708263E+02  0.53044711892E+02  0.00000000000E+00 0.  1.
</event>
<event>
 7    1  0.6988825E-006  0.9961453E+02  0.7561462E-02  0.1281109E+00
         -4   -1    0    0    0  501 -0.00000000000E+00  0.00000000000E+00  0.10674034599E+03  0.10674034599E+03  0.00000000000E+00 0.  1.
          4   -1    0    0  501    0  0.00000000000E+00 -0.00000000000E+00 -0.12235543952E+03  0.12235543952E+03  0.00000000000E+00 0. -1.
         23    2    1    2    0    0 -0.46793999222E+02 -0.28200088389E+02  0.23756495260E+02  0.99456990894E+02  0.79639177686E+02 0.  0.
          5    1    1    2  502    0 -0.21072749593E+02 -0.17627627840E+02 -0.38693461978E+02  0.47638749338E+02  0.41800000000E+01 0. -1.
         -5    1    1    2    0  502  0.67866748814E+02  0.45827716229E+02 -0.67812681524E+00  0.82000045277E+02  0.41800000000E+01 0.  1.
        -11    1    3    3    0    0  0.32180873020E+01 -0.38287810206E+02  0.29043179075E+02  0.48164496749E+02  0.00000000000E+00 0. -1.
         11    1    3    3    0    0 -0.50012086524E+02  0.10087721817E+02 -0.52866838156E+01  0.51292494146E+02  0.00000000000E+00 0.  1.
</event>
<event>
 7    1  0.6988825E-006  0.1049501E+03  0.7561462E-02  0.1270218E+00
         -1   -1    0    0    0  501 -0.00000000000E+00  0.00000000000E+00  0.27237737246E+02  0.27237737246E+02  0.00000000000E+00 0.  1.
          1   -1    0    0  501    0  0.00000000000E+00 -0.00000000000E+00 -0.51984622280E+03  0.51984622280E+03  0.00000000000E+00 0. -1.
         23    2    1    2    0    0 -0.31992127616E+02  0.44572669392E+02 -0.16759943265E+03  0.19453730693E+03  0.82127795993E+02 0.  0.
          5    1    1    2  502    0 -0.43700908341E+02 -0.38738813292E+02 -0.17192222473E+03  0.18161825019E+03  0.41800000000E+01 0.  1.
         -5    1    1    2    0  502  0.75693035957E+02 -0.58338560997E+01 -0.15308682817E+03  0.17092840293E+03  0.41800000000E+01 0.  1.
        -11    1    3    3    0    0  0.14153300062E+02  0.14363063036E+02 -0.12000219530E+03  0.12168459376E+03  0.00000000000E+00 0. -1.
         11    1    3    3    0    0 -0.46145427678E+02  0.30209606356E+02 -0.47597237353E+02  0.72852713164E+02  0.00000000000E+00 0.  1.
</event>
<event>
 7    1  0.6988825E-006  0.2957439E+03  0.7561462E-02  0.1087388E+00
          1   -1    0    0  501    0  0.00000000000E+00  0.00000000000E+00  0.14383778520E+04  0.14383778520E+04  0.00000000000E+00 0. -1.
         -1   -1    0    0    0  501 -0.00000000000E+00 -0.00000000000E+00 -0.63659979598E+02  0.63659979598E+02  0.00000000000E+00 0.  1.
         23    2    1    2    0    0 -0.10423125124E+03  0.25784984867E+03  0.55475762309E+03  0.62720403522E+03  0.90984521926E+02 0.  0.
          5    1    1    2  502    0  0.33011399693E+02  0.24100997349E+01  0.64430077435E+02  0.72555278021E+02  0.41800000000E+01 0. -1.
         -5    1    1    2    0  502  0.71219851547E+02 -0.26025994840E+03  0.75553017187E+03  0.80227851834E+03  0.41800000000E+01 0. -1.
        -11    1    3    3    0    0 -0.30008639114E+02  0.13527145954E+02  0.10471994463E+03  0.10977143937E+03  0.00000000000E+00 0.  1.
         11    1    3    3    0    0 -0.74222612125E+02  0.24432270271E+03  0.45003767846E+03  0.51743259585E+03  0.00000000000E+00 0. -1.
</event>
<event>
 7    1  0.6988825E-006  0.8152541E+02  0.7561462E-02  0.1324777E+00
          3   -1    0    0  501    0  0.00000000000E+00  0.00000000000E+00  0.59936367671E+03  0.59936367671E+03  0.00000000000E+00 0. -1.
         -3   -1    0    0    0  501 -0.00000000000E+00 -0.00000000000E+00 -0.28923001514E+02  0.28923001514E+02  0.00000000000E+00 0.  1.
         23    2    1    2    0    0 -0.53083246749E+01 -0.68307377122E+01  0.92849374640E+02  0.13451160180E+03  0.96940844645E+02 0.  0.
          5    1    1    2  502    0  0.41729087243E+02 -0.21655041256E+00  0.53188953300E+02  0.67734044389E+02  0.41800000000E+01 0.  1.
         -5    1    1    2    0  502 -0.36420762568E+02  0.70472881248E+01  0.42440234725E+03  0.42604103203E+03  0.41800000000E+01 0.  1.
        -11    1    3    3    0    0 -0.25587024303E+01 -0.45220663987E+02  0.15076672593E+02  0.47736374663E+02  0.00000000000E+00 0.  1.
         11    1    3    3    0    0 -0.27496222446E+01  0.38389926274E+02  0.77772702046E+02  0.86775227141E+02  0.00000000000E+00 0. -1.
</event>
<event>
 7    1  0.7445531E-006  0.1347693E+03  0.7561462E-02  0.1220546E+00
         -2   -1    0    0    0  501 -0.00000000000E+00  0.00000000000E+00  0.14182532121E+02  0.14182532121E+02  0.00000000000E+00 0. -1.
          2   -1    0    0  501    0  0.00000000000E+00 -0.00000000000E+00 -0.16195801316E+04  0.16195801316E+04  0.00000000000E+00 0.  1.
         23    2    1    2    0    0 -0.77648115038E+01 -0.92831107321E+02 -0.47067170356E+03  0.48836834820E+03  0.91070764798E+02 0.  0.
          5    1    1    2  502    0  0.52706513750E+02  0.81596426601E+02 -0.52721779128E+03  0.53610822161E+03  0.41800000000E+01 0. -1.
         -5    1    1    2    0  502 -0.44941702247E+02  0.11234680720E+02 -0.60750810466E+03  0.60928609395E+03  0.41800000000E+01 0. -1.
        -11    1    3    3    0    0  0.38097945853E+02 -0.51486585405E+02 -0.30281866623E+03  0.30951811994E+03  0.00000000000E+00 0.  1.
         11    1    3    3    0    0 -0.45862757356E+02 -0.41344521916E+02 -0.16785303733E+03  0.17885022825E+03  0.00000000000E+00 0. -1.
</event>
<event>
 7    1  0.6988825E-006  0.1125192E+03  0.7561462E-02  0.1255975E+00
          1   -1    0    0  501    0  0.00000000000E+00  0.00000000000E+00  0.35135540406E+03  0.35135540406E+03  0.00000000000E+00 0. -1.
         -1   -1    0    0    0  501 -0.00000000000E+00 -0.00000000000E+00 -0.43065156143E+02  0.43065156143E+02  0.00000000000E+00 0.  1.
         23    2    1    2    0    0  0.12172302784E+02  0.55818031749E+02  0.12320879716E+03  0.16384422025E+03  0.91655350020E+02 0.  0.
          5    1    1    2  502    0 -0.45280004970E+02 -0.81037624116E+02  0.14758066911E+03  0.17439868597E+03  0.41800000000E+01 0. -1.
         -5    1    1    2    0  502  0.33107702186E+02  0.25219592367E+02  0.37500781639E+02  0.56177653980E+02  0.41800000000E+01 0. -1.
        -11    1    3    3    0    0 -0.98294938237E+01  0.65510547454E+02  0.12311100126E+03  0.13980189343E+03  0.00000000000E+00 0. -1.
         11    1    3    3    0    0  0.22001796608E+02 -0.96925157050E+01  0.97795903504E-01  0.24042326816E+02  0.00000000000E+00 0.  1.
</event>
<event>
 7    1  0.6988825E-006  0.1255436E+03  0.7561462E-02  0.1234222E+00
         -1   -1    0    0    0  501 -0.00000000000E+00  0.00000000000E+00  0.44009818138E+02  0.44009818138E+02  0.00000000000E+00 0.  1.
          1   -1    0    0  501    0  0.00000000000E+00 -0.00000000000E+00 -0.51227795396E+03  0.51227795396E+03  0.00000000000E+00 0. -1.
         23    2    1    2    0    0 -0.28593610503E+01  0.64231454970E+02 -0.62964642613E+02  0.12727402794E+03  0.90001534520E+02 0.  0.
          5    1    1    2  502    0 -0.33724940126E+02  0.26257834077E+02 -0.12164830679E+03  0.12900631140E+03  0.41800000000E+01 0.  1.
         -5    1    1    2    0  502  0.36584301176E+02 -0.90489289047E+02 -0.28365518642E+03  0.30000743275E+03  0.41800000000E+01 0.  1.
        -11    1    3    3    0    0  0.43028449308E+02  0.39039037977E+02 -0.29692636787E+02  0.65246813067E+02  0.00000000000E+00 0.  1.
         11    1    3    3    0    0 -0.45887810358E+02  0.25192416993E+02 -0.33272005826E+02  0.62027214875E+02  0.00000000000E+00 0. -1.
</event>
<event>
 7    1  0.6988825E-006  0.1109616E+03  0.7561462E-02  0.1258799E+00
         -2   -1    0    0    0  501 -0.00000000000E+00  0.00000000000E+00  0.23440380535E+02  0.23440380535E+02  0.00000000000E+00 0.  1.
          2   -1    0    0  501    0  0.00000000000E+00 -0.00000000000E+00 -0.79862269351E+03  0.79862269351E+03  0.00000000000E+00 0. -1.
         23    2    1    2    0    0 -0.21351706161E+02 -0.48624111270E+02 -0.15772194888E+03  0.18982505153E+03  0.91307926700E+02 0.  0.
          5    1    1    2  502    0  0.23515729774E+02 -0.39786849939E+02 -0.24923961735E+03  0.25352286333E+03  0.41800000000E+01 0. -1.
         -5    1    1    2    0  502 -0.21640236132E+01  0.88410961209E+02 -0.36822074674E+03  0.37871515918E+03  0.41800000000E+01 0. -1.
        -11    1    3    3    0    0  0.21967868446E+02 -0.14575761229E+00 -0.32217826532E+01  0.22203341479E+02  0.00000000000E+00 0.  1.
         11    1    3    3    0    0 -0.43319574607E+02 -0.48478353657E+02 -0.15450016623E+03  0.16762171005E+03  0.00000000000E+00 0. -1.
</event>
<event>
 7    1  0.6988825E-006  0.8921288E+02  0.7561462E-02  0.1304769E+00
         -2   -1    0    0    0  501 -0.00000000000E+00  0.00000000000E+00  0.21952700455E+02  0.21952700455E+02  0.00000000000E+00 0.  1.
          2   -1    0    0  501    0  0.00000000000E+00 -0.00000000000E+00 -0.86531280214E+03  0.86531280214E+03  0.00000000000E+00 0. -1.
         23    2    1    2    0    0  0.16762256747E+02 -0.73214220321E+02 -0.24388864079E+03  0.27029334270E+03  0.89081573255E+02 0.  0.
          5    1    1    2  502    0  0.78463470188E+01  0.16676769008E+02 -0.53447987895E+01  0.19639731673E+02  0.41800000000E+01 0. -1.
         -5    1    1    2    0  502 -0.24608603765E+02  0.56537451313E+02 -0.59412666211E+03  0.59733242823E+03  0.41800000000E+01 0. -1.
        -11    1    3    3    0    0  0.33134498169E+00  0.11463231167E+02  0.13976273631E+00  0.11468870559E+02  0.00000000000E+00 0.  1.
         11    1    3    3    0    0  0.16430911765E+02 -0.84677451488E+02 -0.24402840352E+03  0.25882447214E+03  0.00000000000E+00 0. -1.
</event>
<event>
 7    1  0.6988825E-006  0.1257242E+03  0.7561462E-02  0.1233942E+00
         -1   -1    0    0    0  501 -0.00000000000E+00  0.00000000000E+00  0.29420187414E+02  0.29420187414E+02  0.00000000000E+00 0.  1.
          1   -1    0    0  501    0  0.00000000000E+00 -0.00000000000E+00 -0.95799548531E+03  0.95799548531E+03  0.00000000000E+00 0. -1.
         23    2    1    2    0    0  0.89749126194E+02 -0.81656539516E+02 -0.29029148927E+03  0.32576647350E+03  0.84450875757E+02 0.  0.
          5    1    1    2  502    0 -0.60814170853E+02  0.51859326739E+02 -0.13725283058E+03  0.15888223642E+03  0.41800000000E+01 0.  1.
         -5    1    1    2    0  502 -0.28934955340E+02  0.29797212777E+02 -0.50103097804E+03  0.50276696280E+03  0.41800000000E+01 0.  1.
        -11    1    3    3    0    0  0.58339824277E+02 -0.22185596104E+02 -0.21915542323E+03  0.22787021592E+03  0.00000000000E+00 0. -1.
         11    1    3    3    0    0  0.31409301917E+02 -0.59470943412E+02 -0.71136066044E+02  0.97896257587E+02  0.00000000000E+00 0.  1.
</event>
<event>
 7    1  0.6988825E-006  0.1182042E+03  0.7561462E-02  0.1246089E+00
         -2   -1    0    0    0  501 -0.00000000000E+00  0.00000000000E+00  0.28779569425E+02  0.28779569425E+02  0.00000000000E+00 0.  1.
          2   -1    0    0  501    0  0.00000000000E+00 -0.00000000000E+00 -0.66184781981E+03  0.66184781981E+03  0.00000000000E+00 0. -1.
         23    2    1    2    0    0 -0.50356153133E+02  0.10425909439E+02 -0.11774444299E+03  0.15785148022E+03  0.91700022933E+02 0.  0.
          5    1    1    2  502    0  0.42121748090E+02 -0.65899264265E+02 -0.27307046006E+03  0.28408080409E+03  0.41800000000E+01 0. -1.
         -5    1    1    2    0  502  0.82344050427E+01  0.55473354827E+02 -0.24225334733E+03  0.24869510493E+03  0.41800000000E+01 0. -1.
        -11    1    3    3    0    0 -0.56162332590E+01 -0.36548797940E+02 -0.62616872719E+02  0.72720213531E+02  0.00000000000E+00 0.  1.
         11    1    3    3    0    0 -0.44739919874E+02  0.46974707379E+02 -0.55127570272E+02  0.85131266687E+02  0.00000000000E+00 0. -1.
</event>
<event>
 7    1  0.6988825E-006  0.5797655E+02  0.7561462E-02  0.1406525E+00
         -1   -1    0    0    0  501 -0.00000000000E+00  0.00000000000E+00  0.57217293740E+02  0.57217293740E+02  0.00000000000E+00 0.  1.
          1   -1    0    0  501    0  0.00000000000E+00 -0.00000000000E+00 -0.26296257950E+03  0.26296257950E+03  0.00000000000E+00 0. -1.
         23    2    1    2    0    0  0.28551998656E+02  0.26784695017E+01 -0.30362400552E+02  0.10285558315E+03  0.93994706186E+02 0.  0.
          5    1    1    2  502    0 -0.36922188801E+02  0.11069971569E+02  0.23234715085E+01  0.38841514083E+02  0.41800000000E+01 0. -1.
         -5    1    1    2    0  502  0.83701901447E+01 -0.13748441070E+02 -0.17770635671E+03  0.17848277601E+03  0.41800000000E+01 0. -1.
        -11    1    3    3    0    0  0.81845995940E+01  0.27356056195E+02  0.25627266489E+02  0.38367932818E+02  0.00000000000E+00 0.  1.
         11    1    3    3    0    0  0.20367399062E+02 -0.24677586693E+02 -0.55989667040E+02  0.64487650328E+02  0.00000000000E+00 0. -1.
</event>
<event>
 7    1  0.6988825E-006  0.1008910E+03  0.7561462E-02  0.1278433E+00
          2   -1    0    0  501    0  0.00000000000E+00  0.00000000000E+00  0.50231118161E+03  0.50231118161E+03  0.00000000000E+00 0.  1.
         -2   -1    0    0    0  501 -0.00000000000E+00 -0.00000000000E+00 -0.24637117333E+02  0.24637117333E+02  0.00000000000E+00 0. -1.
         23    2    1    2    0    0 -0.20840187989E+02 -0.44220797118E+01  0.21856042152E+03  0.23843748198E+03  0.92897291317E+02 0.  0.
          5    1    1    2  502    0  0.89141991770E+01  0.59392719385E+02  0.76286015265E+02  0.97180175900E+02  0.41800000000E+01 0.  1.
         -5    1    1    2    0  502  0.11925988812E+02 -0.54970639673E+02  0.18282762749E+03  0.19133064107E+03  0.41800000000E+01 0.  1.
        -11    1    3    3    0    0 -0.49569811581E+02 -0.18840493578E+02  0.18287749343E+03  0.19041089261E+03  0.00000000000E+00 0.  1.
         11    1    3    3    0    0  0.28729623592E+02  0.14418413867E+02  0.35682928085E+02  0.48026589373E+02  0.00000000000E+00 0. -1.
</event>
<event>
 7    1  0.6988825E-006  0.1032985E+03  0.7561462E-02  0.1273509E+00
         -2   -1    0    0    0  501 -0.00000000000E+00  0.00000000000E+00  0.40786826639E+02  0.40786826639E+02  0.00000000000E+00 0.  1.
          2   -1    0    0  501    0  0.00000000000E+00 -0.00000000000E+00 -0.28952796992E+03  0.28952796992E+03  0.00000000000E+00 0. -1.
         23    2    1    2    0    0  0.54503187414E+01 -0.35771519282E+01 -0.12384522449E+03  0.15342207435E+03  0.90322706323E+02 0.  0.
          5    1    1    2  502    0  0.54321782678E+02  0.14772035472E+02 -0.91166099094E+02  0.10722779084E+03  0.41800000000E+01 0. -1.
         -5    1    1    2    0  502 -0.59772101419E+02 -0.11194883544E+02 -0.33729819692E+02  0.69664931365E+02  0.41800000000E+01 0. -1.
        -11    1    3    3    0    0 -0.35663484531E+02 -0.24296391902E+02 -0.73240980024E+02  0.85008469833E+02  0.00000000000E+00 0. -1.
         11    1    3    3    0    0  0.41113803273E+02  0.20719239974E+02 -0.50604244469E+02  0.68413604516E+02  0.00000000000E+00 0.  1.
</event>
<event>
 7    1  0.6988825E-006  0.2849436E+03  0.7561462E-02  0.1093019E+00
         -2   -1    0    0    0  501 -0.00000000000E+00  0.00000000000E+00  0.48530972243E+02  0.48530972243E+02  0.00000000000E+00 0.  1.
          2   -1    0    0  501    0  0.00000000000E+00 -0.00000000000E+00 -0.18946429136E+04  0.18946429136E+04  0.00000000000E+00 0. -1.
         23    2    1    2    0    0  0.10421896852E+03  0.31118867337E+02 -0.35133263467E+03  0.37829001158E+03  0.88536632960E+02 0.  0.
          5    1    1    2  502    0  0.67144714388E+02 -0.19510059691E+03 -0.92411579449E+03  0.94687915259E+03  0.41800000000E+01 0. -1.
         -5    1    1    2    0  502 -0.17136368290E+03  0.16398172957E+03 -0.57066351217E+03  0.61800472164E+03  0.41800000000E+01 0.  1.
        -11    1    3    3    0    0  0.10992989784E+02  0.31187352479E+02 -0.18210159312E+03  0.18507967743E+03  0.00000000000E+00 0.  1.
         11    1    3    3    0    0  0.93225978731E+02 -0.68485141679E-01 -0.16923104154E+03  0.19321033415E+03  0.00000000000E+00 0. -1.
</event>
<event>
 7    1  0.6988825E-006  0.1281003E+03  0.7561462E-02  0.1230302E+00
          1   -1    0    0  501    0  0.00000000000E+00  0.00000000000E+00  0.22103620006E+02  0.22103620006E+02  0.00000000000E+00 0. -1.
         -1   -1    0    0    0  501 -0.00000000000E+00 -0.00000000000E+00 -0.84306568156E+03  0.84306568156E+03  0.00000000000E+00 0.  1.
         23    2    1    2    0    0  0.35686116197E+02  0.69217721197E+02 -0.28129949599E+03  0.30575205993E+03  0.91051215760E+02 0.  0.
          5    1    1    2  502    0 -0.76588099551E+02 -0.41821376473E+02 -0.23378030220E+03  0.24957056441E+03  0.41800000000E+01 0. -1.
         -5    1    1    2    0  502  0.40901983354E+02 -0.27396344724E+02 -0.30588226337E+03  0.30984667723E+03  0.41800000000E+01 0. -1.
        -11    1    3    3    0    0  0.66506962659E+02  0.47462586952E+02 -0.18079089222E+03  0.19839662283E+03  0.00000000000E+00 0.  1.
         11    1    3    3    0    0 -0.30820846462E+02  0.21755134245E+02 -0.10050860377E+03  0.10735543710E+03  0.00000000000E+00 0. -1.
</event>
<event>
 7    1  0.6988825E-006  0.8413911E+02  0.7561462E-02  0.1317699E+00
          1   -1    0    0  501    0  0.00000000000E+00  0.00000000000E+00  0.65276062120E+03  0.65276062120E+03  0.00000000000E+00 0. -1.
         -1   -1    0    0    0  501 -0.00000000000E+00 -0.00000000000E+00 -0.18931044139E+02  0.18931044139E+02  0.00000000000E+00 0.  1.
         23    2    1    2    0    0  0.15802903648E+01  0.12881344085E+02  0.18915556713E+03  0.20957636561E+03  0.89297245775E+02 0.  0.
          5    1    1    2  502    0 -0.19290284579E+02  0.29133211381E+02  0.34117468001E+02  0.49013601248E+02  0.41800000000E+01 0. -1.
         -5    1    1    2    0  502  0.17709994214E+02 -0.42014555466E+02  0.41055654194E+03  0.41310169849E+03  0.41800000000E+01 0. -1.
        -11    1    3    3    0    0  0.43960191014E+02  0.71088141085E+01  0.12285647062E+03  0.13067802419E+03  0.00000000000E+00 0.  1.
         11    1    3    3    0    0 -0.42379900649E+02  0.57725299766E+01  0.66299096505E+02  0.78898341420E+02  0.00000000000E+00 0. -1.
</event>
<event>
 7    1  0.6988825E-006  0.1061984E+03  0.7561462E-02  0.1267776E+00
          1   -1    0    0  501    0  0.00000000000E+00  0.00000000000E+00  0.46343692613E+02  0.46343692613E+02  0.00000000000E+00 0. -1.
         -1   -1    0    0    0  501 -0.00000000000E+00 -0.00000000000E+00 -0.31945566894E+03  0.31945566894E+03  0.00000000000E+00 0.  1.
         23    2    1    2    0    0 -0.21588629533E+02 -0.30028783079E+02 -0.18224664580E+03  0.20683137128E+03  0.90540485437E+02 0.  0.
          5    1    1    2  502    0 -0.31606707316E+02  0.55983651538E+02 -0.72199022271E+02  0.96764272352E+02  0.41800000000E+01 0. -1.
         -5    1    1    2    0  502  0.53195336850E+02 -0.25954868459E+02 -0.18666308263E+02  0.62203717923E+02  0.41800000000E+01 0. -1.
        -11    1    3    3    0    0  0.11790117480E+02 -0.48892643724E+02 -0.14460528900E+03  0.15310188467E+03  0.00000000000E+00 0. -1.
         11    1    3    3    0    0 -0.33378747013E+02  0.18863860645E+02 -0.37641356792E+02  0.53729486614E+02  0.00000000000E+00 0.  1.
</event>
<event>
 7    1  0.6988825E-006  0.1448637E+03  0.7561462E-02  0.1206930E+00
         -2   -1    0    0    0  501 -0.00000000000E+00  0.00000000000E+00  0.52585404359E+02  0.52585404359E+02  0.00000000000E+00 0.  1.
          2   -1    0    0  501    0  0.00000000000E+00 -0.00000000000E+00 -0.49925684419E+03  0.49925684419E+03  0.00000000000E+00 0. -1.
         23    2    1    2    0    0 -0.83319495796E+02 -0.81334269045E+02 -0.23986588356E+03  0.28356411730E+03  0.96517173743E+02 0.  0.
          5    1    1    2  502    0  0.98643227852E+02  0.72523670228E+02 -0.95047747224E+02  0.15505391255E+03  0.41800000000E+01 0. -1.
         -5    1    1    2    0  502 -0.15323732055E+02  0.88105988169E+01 -0.11175780905E+03  0.11322421869E+03  0.41800000000E+01 0. -1.
        -11    1    3    3    0    0 -0.85455690874E+02 -0.99275742340E+02 -0.22414614547E+03  0.25961479667E+03  0.00000000000E+00 0. -1.
         11    1    3    3    0    0  0.21361950777E+01  0.17941473295E+02 -0.15719738082E+02  0.23949320633E+02  0.00000000000E+00 0.  1.
</event>
<event>
 7    1  0.6988825E-006  0.4065446E+03  0.7561462E-02  0.1041537E+00
          3   -1    0    0  501    0  0.00000000000E+00  0.00000000000E+00  0.33864279924E+04  0.33864279924E+04  0.00000000000E+00 0. -1.
         -3   -1    0    0    0  501 -0.00000000000E+00 -0.00000000000E+00 -0.51729697262E+02  0.51729697262E+02  0.00000000000E+00 0.  1.
         23    2    1    2    0    0  0.38116084088E+03  0.94753261843E+02  0.20356841368E+04  0.20753124775E+04  0.93006489188E+02 0.  0.
          5    1    1    2  502    0 -0.14809422687E+03 -0.95856003836E+02  0.48462233232E+03  0.51574853455E+03  0.41800000000E+01 0. -1.
         -5    1    1    2    0  502 -0.23306661401E+03  0.11027419930E+01  0.81439182601E+03  0.84709667764E+03  0.41800000000E+01 0. -1.
        -11    1    3    3    0    0  0.27060535230E+03  0.22689171405E+02  0.13914216589E+04  0.14176728424E+04  0.00000000000E+00 0.  1.
         11    1    3    3    0    0  0.11055548859E+03  0.72064090438E+02  0.64426247788E+03  0.65763963505E+03  0.00000000000E+00 0. -1.
</event>
<event>
 7    1  0.6988825E-006  0.1012672E+03  0.7561462E-02  0.1277654E+00
          1   -1    0    0  501    0  0.00000000000E+00  0.00000000000E+00  0.88758660116E+02  0.88758660116E+02  0.00000000000E+00 0. -1.
         -1   -1    0    0    0  501 -0.00000000000E+00 -0.00000000000E+00 -0.17195845249E+03  0.17195845249E+03  0.00000000000E+00 0.  1.
         23    2    1    2    0    0  0.42145762869E+02 -0.58570652854E+01 -0.80762968255E+02  0.12857693018E+03  0.90547221893E+02 0.  0.
          5    1    1    2  502    0 -0.63046233210E+01 -0.55606039710E+02 -0.18483118955E+02  0.59083652678E+02  0.41800000000E+01 0.  1.
         -5    1    1    2    0  502 -0.35841139548E+02  0.61463104995E+02  0.16046294840E+02  0.73056529741E+02  0.41800000000E+01 0.  1.
        -11    1    3    3    0    0 -0.10299770357E+02  0.15422344742E+02 -0.68099303228E+02  0.70579381457E+02  0.00000000000E+00 0.  1.
         11    1    3    3    0    0  0.52445533225E+02 -0.21279410027E+02 -0.12663665027E+02  0.57997548727E+02  0.00000000000E+00 0. -1.
</event>
<event>
 7    1  0.6988825E-006  0.1079586E+03  0.7561462E-02  0.1264398E+00
          2   -1    0    0  501    0  0.00000000000E+00  0.00000000000E+00  0.11510475809E+03  0.11510475809E+03  0.00000000000E+00 0. -1.
         -2   -1    0    0    0  501 -0.00000000000E+00 -0.00000000000E+00 -0.15769203965E+03  0.15769203965E+03  0.00000000000E+00 0.  1.
         23    2    1    2    0    0 -0.50776263572E+02  0.20738623970E+02 -0.77468615494E+02  0.13182078398E+03  0.91471379333E+02 0.  0.
          5    1    1    2  502    0  0.42581735052E+01 -0.64823234906E+02 -0.51433740740E+01  0.65300157137E+02  0.41800000000E+01 0. -1.
         -5    1    1    2    0  502  0.46518090066E+02  0.44084610936E+02  0.40024708006E+02  0.75675856624E+02  0.41800000000E+01 0. -1.
        -11    1    3    3    0    0 -0.37438397520E+02 -0.20896561376E+02 -0.96335049911E-02  0.42875400628E+02  0.00000000000E+00 0. -1.
         11    1    3    3    0    0 -0.13337866051E+02  0.41635185345E+02 -0.77458981989E+02  0.88945383356E+02  0.00000000000E+00 0.  1.
</event>
<event>
 7    1  0.6988825E-006  0.1353943E+03  0.7561462E-02  0.1219664E+00
          1   -1    0    0  501    0  0.00000000000E+00  0.00000000000E+00  0.39543503624E+03  0.39543503624E+03  0.00000000000E+00 0. -1.
         -1   -1    0    0    0  501 -0.00000000000E+00 -0.00000000000E+00 -0.84437480570E+02  0.84437480570E+02  0.00000000000E+00 0.  1.
         23    2    1    2    0    0 -0.68887303367E+02 -0.90160748003E+02  0.24684773749E+02  0.14746258218E+03  0.90892541177E+02 0.  0.
          5    1    1    2  502    0  0.23692066269E+02 -0.17873379999E+02  0.89015402540E+01  0.31264701111E+02  0.41800000000E+01 0. -1.
         -5    1    1    2    0  502  0.45195237098E+02  0.10803412800E+03  0.27741124166E+03  0.30114523352E+03  0.41800000000E+01 0. -1.
        -11    1    3    3    0    0 -0.62301438371E+02 -0.42252666167E+02  0.52404775760E+02  0.91722502930E+02  0.00000000000E+00 0. -1.
         11    1    3    3    0    0 -0.65858649959E+01 -0.47908081836E+02 -0.27720002011E+02  0.55740079247E+02  0.00000000000E+00 0.  1.
</event>
<event>
 7    1  0.6988825E-006  0.1188158E+03  0.7561462E-02  0.1245063E+00
         -2   -1    0    0    0  501 -0.00000000000E+00  0.00000000000E+00  0.25727044150E+02  0.25727044150E+02  0.00000000000E+00 0.  1.
          2   -1    0    0  501    0  0.00000000000E+00 -0.00000000000E+00 -0.65471649640E+03  0.65471649640E+03  0.00000000000E+00 0. -1.
         23    2    1    2    0    0  0.56981448054E+02  0.24581112153E+02 -0.23690742888E+03  0.26128625393E+03  0.91072828766E+02 0.  0.
          5    1    1    2  502    0 -0.50107720650E+02 -0.69701373109E+02 -0.33554447652E+03  0.34637643281E+03  0.41800000000E+01 0. -1.
         -5    1    1    2    0  502 -0.68737274042E+01  0.45120260956E+02 -0.56537546855E+02  0.72780853811E+02  0.41800000000E+01 0.  1.
        -11    1    3    3    0    0  0.79935804878E+02  0.17449722152E+02 -0.20905845872E+03  0.22449869680E+03  0.00000000000E+00 0. -1.
         11    1    3    3    0    0 -0.22954356825E+02  0.71313900007E+01 -0.27848970160E+02  0.36787557130E+02  0.00000000000E+00 0.  1.
</event>
<event>
 7    1  0.6988825E-006  0.8852819E+02  0.7561462E-02  0.1306456E+00
         -1   -1    0    0    0  501 -0.00000000000E+00  0.00000000000E+00  0.41479346803E+02  0.41479346803E+02  0.00000000000E+00 0.  1.
          1   -1    0    0  501    0  0.00000000000E+00 -0.00000000000E+00 -0.45625891002E+03  0.45625891002E+03  0.00000000000E+00 0. -1.
         23    2    1    2    0    0 -0.48765034183E+02 -0.20737493804E+02 -0.70537728021E+02  0.12765908691E+03  0.92266999452E+02 0.  0.
          5    1    1    2  502    0  0.25783265012E+02  0.37821643692E+02 -0.33716921155E+03  0.34028782391E+03  0.41800000000E+01 0. -1.
         -5    1    1    2    0  502  0.22981769171E+02 -0.17084149888E+02 -0.70726236539E+01  0.29791346008E+02  0.41800000000E+01 0. -1.
        -11    1    3    3    0    0 -0.49900172460E+02  0.25405606589E+02 -0.56181193733E+02  0.79320858461E+02  0.00000000000E+00 0. -1.
         11    1    3    3    0    0  0.11351382767E+01 -0.46143100393E+02 -0.14356534288E+02  0.48338228448E+02  0.00000000000E+00 0.  1.
</event>
<event>
 7    1  0.6988825E-006  0.9334389E+02  0.7561462E-02  0.1294950E+00
         -1   -1    0    0    0  501 -0.00000000000E+00  0.00000000000E+00  0.71767607518E+02  0.71767607518E+02  0.00000000000E+00 0.  1.
          1   -1    0    0  501    0  0.00000000000E+00 -0.00000000000E+00 -0.19613654977E+03  0.19613654977E+03  0.00000000000E+00 0. -1.
         23    2    1    2    0    0 -0.93524941497E+01  0.28124993619E+02 -0.13396938129E+02  0.98074398032E+02  0.92523646628E+02 0.  0.
          5    1    1    2  502    0  0.92122326937E+01  0.31034462186E+02 -0.10531026347E+03  0.11025301386E+03  0.41800000000E+01 0.  1.
         -5    1    1    2    0  502  0.14026145603E+00 -0.59159455805E+02 -0.56617406569E+01  0.59576745394E+02  0.41800000000E+01 0.  1.
        -11    1    3    3    0    0  0.88838652720E+01 -0.31322149683E+02 -0.15057103485E+02  0.35870830605E+02  0.00000000000E+00 0.  1.
         11    1    3    3    0    0 -0.18236359422E+02  0.59447143302E+02  0.16601653556E+01  0.62203567428E+02  0.00000000000E+00 0. -1.
</event>
<event>
 7    1  0.6988825E-006  0.1319560E+03  0.7561462E-02  0.1224582E+00
          3   -1    0    0  501    0  0.00000000000E+00  0.00000000000E+00  0.51153194661E+03  0.51153194661E+03  0.00000000000E+00 0. -1.
         -3   -1    0    0    0  501 -0.00000000000E+00 -0.00000000000E+00 -0.46913346135E+02  0.46913346135E+02  0.00000000000E+00 0.  1.
         23    2    1    2    0    0  0.59812587652E+02 -0.91203819499E+02  0.18401089253E+03  0.23243178991E+03  0.90933195589E+02 0.  0.
          5    1    1    2  502    0  0.26750589329E+00  0.68961819294E+02  0.46543490600E+02  0.83304099521E+02  0.41800000000E+01 0.  1.
         -5    1    1    2    0  502 -0.60080093545E+02  0.22242000205E+02  0.23406421735E+03  0.24270940332E+03  0.41800000000E+01 0.  1.
        -11    1    3    3    0    0  0.33773189213E+02  0.20161557863E+01  0.13624020946E+02  0.36473375776E+02  0.00000000000E+00 0.  1.
         11    1    3    3    0    0  0.26039398439E+02 -0.93219975286E+02  0.17038687158E+03  0.19595841413E+03  0.00000000000E+00 0. -1.
</event>
<event>
 7    1  0.6988825E-006  0.1160502E+03  0.7561462E-02  0.1249759E+00
          1   -1    0    0  501    0  0.00000000000E+00  0.00000000000E+00  0.12840716477E+04  0.12840716477E+04  0.00000000000E+00 0. -1.
         -1   -1    0    0    0  501 -0.00000000000E+00 -0.00000000000E+00 -0.18560152204E+02  0.18560152204E+02  0.00000000000E+00 0.  1.
         23    2    1    2    0    0 -0.53860801741E+02  0.91761651039E+01  0.17516943818E+03  0.20452060182E+03  0.90328049509E+02 0.  0.
          5    1    1    2  502    0 -0.19513739416E+02 -0.42947900789E+02  0.31128628158E+03  0.31486811478E+03  0.41800000000E+01 0. -1.
         -5    1    1    2    0  502  0.73374541156E+02  0.33771735685E+02  0.77905577578E+03  0.78324308334E+03  0.41800000000E+01 0.  1.
        -11    1    3    3    0    0  0.14153756086E+02  0.29630376363E+02  0.39345588173E+02  0.51248056777E+02  0.00000000000E+00 0.  1.
         11    1    3    3    0    0 -0.68014557826E+02 -0.20454211259E+02  0.13582385001E+03  0.15327254505E+03  0.00000000000E+00 0. -1.
</event>
<event>
 7    1  0.6988825E-006  0.1446618E+03  0.7561462E-02  0.1207190E+00
          1   -1    0    0  501    0  0.00000000000E+00  0.00000000000E+00  0.10493385521E+04  0.10493385521E+04  0.00000000000E+00 0. -1.
         -1   -1    0    0    0  501 -0.00000000000E+00 -0.00000000000E+00 -0.36987956341E+02  0.36987956341E+02  0.00000000000E+00 0.  1.
         23    2    1    2    0    0  0.10969010614E+03 -0.80062342563E+02  0.23185008480E+03  0.28428624422E+03  0.92856387773E+02 0.  0.
          5    1    1    2  502    0 -0.29526703263E+02  0.18083266433E+02  0.53877222073E+03  0.53989981382E+03  0.41800000000E+01 0. -1.
         -5    1    1    2    0  502 -0.80163402881E+02  0.61979076130E+02  0.24172829026E+03  0.26214045043E+03  0.41800000000E+01 0. -1.
        -11    1    3    3    0    0  0.24126579530E+02  0.12339872639E+02  0.94375243701E+01  0.28695490287E+02  0.00000000000E+00 0.  1.
         11    1    3    3    0    0  0.85563526614E+02 -0.92402215202E+02  0.22241256043E+03  0.25559075394E+03  0.00000000000E+00 0. -1.
</event>
<event>
 7    1  0.6988825E-006  0.1223714E+03  0.7561462E-02  0.1239235E+00
         -2   -1    0    0    0  501 -0.00000000000E+00  0.00000000000E+00  0.13091291213E+03  0.13091291213E+03  0.00000000000E+00 0.  1.
          2   -1    0    0  501    0  0.00000000000E+00 -0.00000000000E+00 -0.23154404679E+03  0.23154404679E+03  0.00000000000E+00 0. -1.
         23    2    1    2    0    0  0.18451132390E+02  0.57032529735E+02  0.80848481178E+02  0.13403984917E+03  0.88527117444E+02 0.  0.
          5    1    1    2  502    0  0.53470860067E+02 -0.17821131486E+02 -0.79570487046E+02  0.97599489817E+02  0.41800000000E+01 0.  1.
         -5    1    1    2    0  502 -0.71921992457E+02 -0.39211398249E+02 -0.10190912879E+03  0.13081761992E+03  0.41800000000E+01 0.  1.
        -11    1    3    3    0    0 -0.32029617110E+02  0.43352369819E+02  0.33317464523E+02  0.63367008635E+02  0.00000000000E+00 0.  1.
         11    1    3    3    0    0  0.50480749499E+02  0.13680159916E+02  0.47531016655E+02  0.70672840537E+02  0.00000000000E+00 0. -1.
</event>
<event>
 7    1  0.6988825E-006  0.1502726E+03  0.7561462E-02  0.1200138E+00
          2   -1    0    0  501    0  0.00000000000E+00  0.00000000000E+00  0.84028356167E+02  0.84028356167E+02  0.00000000000E+00 0. -1.
         -2   -1    0    0    0  501 -0.00000000000E+00 -0.00000000000E+00 -0.38461996879E+03  0.38461996879E+03  0.00000000000E+00 0.  1.
         23    2    1    2    0    0 -0.14138247313E+03  0.60725907750E+01 -0.16510352857E+03  0.23620428365E+03  0.92235613521E+02 0.  0.
          5    1    1    2  502    0  0.83647208788E+02 -0.16219368669E+02 -0.60033601301E+00  0.85309766506E+02  0.41800000000E+01 0. -1.
         -5    1    1    2    0  502  0.57735264340E+02  0.10146777894E+02 -0.13488774804E+03  0.14713427480E+03  0.41800000000E+01 0. -1.
        -11    1    3    3    0    0 -0.55854275662E+02  0.35311845243E+02 -0.27511415781E+02  0.71578659686E+02  0.00000000000E+00 0. -1.
         11    1    3    3    0    0 -0.85528197466E+02 -0.29239254468E+02 -0.13759211279E+03  0.16462562396E+03  0.00000000000E+00 0.  1.
</event>
<event>
 7    1  0.6988825E-006  0.1361740E+03  0.7561462E-02  0.1218572E+00
         -1   -1    0    0    0  501 -0.00000000000E+00  0.00000000000E+00  0.29023116255E+03  0.29023116255E+03  0.00000000000E+00 0.  1.
          1   -1    0    0  501    0  0.00000000000E+00 -0.00000000000E+00 -0.81378531951E+02  0.81378531951E+02  0.00000000000E+00 0. -1.
         23    2    1    2    0    0  0.78986210932E+02  0.61363943594E+02  0.14690227091E+03  0.19988442380E+03  0.91483061750E+02 0.  0.
          5    1    1    2  502    0 -0.55858407322E+02 -0.86100224709E+02  0.19907002762E+01  0.10273677847E+03  0.41800000000E+01 0. -1.
         -5    1    1    2    0  502 -0.23127803610E+02  0.24736281115E+02  0.59959659408E+02  0.68988492226E+02  0.41800000000E+01 0. -1.
        -11    1    3    3    0    0  0.26414980150E+02 -0.23715014385E+02  0.40624082936E+02  0.53948764564E+02  0.00000000000E+00 0.  1.
         11    1    3    3    0    0  0.52571230782E+02  0.85078957978E+02  0.10627818797E+03  0.14593565923E+03  0.00000000000E+00 0. -1.
</event>
<event>
 7    1  0.6988825E-006  0.1139568E+03  0.7561462E-02  0.1253413E+00
         -1   -1    0    0    0  501 -0.00000000000E+00  0.00000000000E+00  0.27879319985E+02  0.27879319985E+02  0.00000000000E+00 0.  1.
          1   -1    0    0  501    0  0.00000000000E+00 -0.00000000000E+00 -0.91560444299E+03  0.91560444299E+03  0.00000000000E+00 0. -1.
         23    2    1    2    0    0  0.71235515112E+02 -0.11124867127E+01 -0.13903814731E+03  0.18107871083E+03  0.91554119891E+02 0.  0.
          5    1    1    2  502    0 -0.87103832712E+02 -0.35339245204E+02 -0.37658286557E+03  0.38815984719E+03  0.41800000000E+01 0.  1.
         -5    1    1    2    0  502  0.15868317600E+02  0.36451731916E+02 -0.37210411012E+03  0.37424520496E+03  0.41800000000E+01 0.  1.
        -11    1    3    3    0    0  0.40931953490E+02  0.29743878537E+02 -0.12619966557E+03  0.13596499078E+03  0.00000000000E+00 0. -1.
         11    1    3    3    0    0  0.30303561621E+02 -0.30856365250E+02 -0.12838481732E+02  0.45113720048E+02  0.00000000000E+00 0.  1.
</event>
<event>
 7    1  0.6988825E-006  0.1643538E+03  0.7561462E-02  0.1183867E+00
         -2   -1    0    0    0  501 -0.00000000000E+00  0.00000000000E+00  0.48744555271E+02  0.48744555271E+02  0.00000000000E+00 0.  1.
          2   -1    0    0  501    0  0.00000000000E+00 -0.00000000000E+00 -0.78240877814E+03  0.78240877814E+03  0.00000000000E+00 0. -1.
         23    2    1    2    0    0  0.28957064207E+02  0.99587381968E+02 -0.15886417068E+03  0.21054655894E+03  0.91300988705E+02 0.  0.
          5    1    1    2  502    0  0.74928548215E+02 -0.32233822703E+02 -0.38772240184E+03  0.39623154841E+03  0.41800000000E+01 0. -1.
         -5    1    1    2    0  502 -0.10388561242E+03 -0.67353559265E+02 -0.18707765034E+03  0.22437522607E+03  0.41800000000E+01 0.  1.
        -11    1    3    3    0    0  0.11604993607E+02  0.10448146498E+03 -0.86999851402E+02  0.13645521809E+03  0.00000000000E+00 0. -1.
         11    1    3    3    0    0  0.17352070600E+02 -0.48940830086E+01 -0.71864319280E+02  0.74091340845E+02  0.00000000000E+00 0.  1.
</event>
<event>
 7    1  0.6988825E-006  0.1112727E+03  0.7561462E-02  0.1258231E+00
          1   -1    0    0  501    0  0.00000000000E+00  0.00000000000E+00  0.38526967443E+03  0.38526967443E+03  0.00000000000E+00 0. -1.
         -1   -1    0    0    0  501 -0.00000000000E+00 -0.00000000000E+00 -0.52458658486E+02  0.52458658486E+02  0.00000000000E+00 0.  1.
         23    2    1    2    0    0 -0.55090759135E+02  0.29244923743E+02  0.49004518790E+02  0.12136755526E+03  0.91860673310E+02 0.  0.
          5    1    1    2  502    0  0.91501353124E+02 -0.42265110590E+02  0.20341426919E+03  0.22705434263E+03  0.41800000000E+01 0.  1.
         -5    1    1    2    0  502 -0.36410593988E+02  0.13020186847E+02  0.80392227961E+02  0.89306435023E+02  0.41800000000E+01 0.  1.
        -11    1    3    3    0    0 -0.11672302758E+02 -0.16170443944E+02 -0.19861448356E+02  0.28146101681E+02  0.00000000000E+00 0.  1.
         11    1    3    3    0    0 -0.43418456377E+02  0.45415367687E+02  0.68865967146E+02  0.93221453578E+02  0.00000000000E+00 0. -1.
</event>
<event>
 7    1  0.6988825E-006  0.1137140E+03  0.7561462E-02  0.1253843E+00
         -1   -1    0    0    0  501 -0.00000000000E+00  0.00000000000E+00  0.24316599509E+03  0.24316599509E+03  0.00000000000E+00 0.  1.
          1   -1    0    0  501    0  0.00000000000E+00 -0.00000000000E+00 -0.82284221673E+02  0.82284221673E+02  0.00000000000E+00 0. -1.
         23    2    1    2    0    0 -0.95983628657E+01 -0.41544434267E+02  0.15111950830E+03  0.18166716353E+03  0.91366207813E+02 0.  0.
          5    1    1    2  502    0  0.24031230912E+02  0.88720819876E+02  0.17524435076E+02  0.93666761251E+02  0.41800000000E+01 0. -1.
         -5    1    1    2    0  502 -0.14432868046E+02 -0.47176385609E+02 -0.77621699567E+01  0.50116291978E+02  0.41800000000E+01 0.  1.
        -11    1    3    3    0    0  0.30076366799E+02 -0.34219701153E+02  0.31396953743E+02  0.55329417954E+02  0.00000000000E+00 0.  1.
         11    1    3    3    0    0 -0.39674729664E+02 -0.73247331136E+01  0.11972255455E+03  0.12633774558E+03  0.00000000000E+00 0. -1.
</event>
<event>
 7    1  0.6988825E-006  0.1131948E+03  0.7561462E-02  0.1254765E+00
          2   -1    0    0  501    0  0.00000000000E+00  0.00000000000E+00  0.63487033546E+03  0.63487033546E+03  0.00000000000E+00 0. -1.
         -2   -1    0    0    0  501 -0.00000000000E+00 -0.00000000000E+00 -0.46943516467E+02  0.46943516467E+02  0.00000000000E+00 0.  1.
         23    2    1    2    0    0  0.70017263648E+02  0.78769631491E+02  0.97988821228E+02  0.16529123088E+03  0.81316110742E+02 0.  0.
          5    1    1    2  502    0 -0.42451372916E+02 -0.31234801949E+02  0.48777983448E+02  0.71933969615E+02  0.41800000000E+01 0.  1.
         -5    1    1    2    0  502 -0.27565890732E+02 -0.47534829543E+02  0.44116001432E+03  0.44458865143E+03  0.41800000000E+01 0.  1.
        -11    1    3    3    0    0 -0.83610635373E+01  0.15782956634E+02 -0.76665651234E+01  0.19436700450E+02  0.00000000000E+00 0.  1.
         11    1    3    3    0    0  0.78378327185E+02  0.62986674857E+02  0.10565538635E+03  0.14585453043E+03  0.00000000000E+00 0. -1.
</event>
<event>
 7    1  0.6988825E-006  0.1298267E+03  0.7561462E-02  0.1227713E+00
          1   -1    0    0  501    0  0.00000000000E+00  0.00000000000E+00  0.12210944910E+04  0.12210944910E+04  0.00000000000E+00 0. -1.
         -1   -1    0    0    0  501 -0.00000000000E+00 -0.00000000000E+00 -0.13330529587E+03  0.13330529587E+03  0.00000000000E+00 0.  1.
         23    2    1    2    0    0 -0.77371657864E+02  0.96932600385E+02 -0.81361868847E+02  0.17205297801E+03  0.87178960089E+02 0.  0.
          5    1    1    2  502    0  0.57458786208E+02 -0.90728617397E+02  0.11455253553E+04  0.11505559553E+04  0.41800000000E+01 0. -1.
         -5    1    1    2    0  502  0.19912871656E+02 -0.62039829883E+01  0.23625708682E+02  0.31790853610E+02  0.41800000000E+01 0. -1.
        -11    1    3    3    0    0 -0.80468562868E+02  0.79198222744E+02 -0.28838320684E+02  0.11652981093E+03  0.00000000000E+00 0. -1.
         11    1    3    3    0    0  0.30969050044E+01  0.17734377641E+02 -0.52523548163E+02  0.55523167080E+02  0.00000000000E+00 0.  1.
</event>
<event>
 7    1  0.6988825E-006  0.1303438E+03  0.7561462E-02  0.1226947E+00
         -1   -1    0    0    0  501 -0.00000000000E+00  0.00000000000E+00  0.25921830847E+02  0.25921830847E+02  0.00000000000E+00 0.  1.
          1   -1    0    0  501    0  0.00000000000E+00 -0.00000000000E+00 -0.16614252379E+04  0.16614252379E+04  0.00000000000E+00 0. -1.
         23    2    1    2    0    0 -0.18454734482E+02 -0.26393462508E+02 -0.95692085302E+02  0.13664460935E+03  0.92073785552E+02 0.  0.
          5    1    1    2  502    0  0.37419689163E+02 -0.63644957938E+02 -0.10289517763E+04  0.10316056146E+04  0.41800000000E+01 0. -1.
         -5    1    1    2    0  502 -0.18964954681E+02  0.90038420446E+02 -0.51085954548E+03  0.51909684479E+03  0.41800000000E+01 0.  1.
        -11    1    3    3    0    0  0.27511241857E+01 -0.57180414187E+02 -0.73524853444E+02  0.93183005558E+02  0.00000000000E+00 0.  1.
         11    1    3    3    0    0 -0.21205858667E+02  0.30786951679E+02 -0.22167231858E+02  0.43461603787E+02  0.00000000000E+00 0. -1.
</event>
<event>
 7    1  0.6988825E-006  0.2716559E+03  0.7561462E-02  0.1100336E+00
         -3   -1    0    0    0  501 -0.00000000000E+00  0.00000000000E+00  0.95691527789E+02  0.95691527789E+02  0.00000000000E+00 0.  1.
          3   -1    0    0  501    0  0.00000000000E+00 -0.00000000000E+00 -0.96334798071E+03  0.96334798071E+03  0.00000000000E+00 0. -1.
         23    2    1    2    0    0 -0.25302810267E+03 -0.18457178788E+02 -0.20542025009E+03  0.33892305599E+03  0.91145326484E+02 0.  0.
          5    1    1    2  502    0  0.20460248028E+03 -0.38233445444E+02 -0.48826400723E+03  0.53079486098E+03  0.41800000000E+01 0. -1.
         -5    1    1    2    0  502  0.48425622394E+02  0.56690624233E+02 -0.17397219559E+03  0.18932159153E+03  0.41800000000E+01 0. -1.
        -11    1    3    3    0    0 -0.66445195999E+02 -0.31255728978E+02 -0.10054383073E+03  0.12450279741E+03  0.00000000000E+00 0.  1.
         11    1    3    3    0    0 -0.18658290667E+03  0.12798550190E+02 -0.10487641937E+03  0.21442025858E+03  0.00000000000E+00 0. -1.
</event>
<event>
 7    1  0.6988825E-006  0.1443460E+03  0.7561462E-02  0.1207598E+00
          2   -1    0    0  501    0  0.00000000000E+00  0.00000000000E+00  0.95443073902E+03  0.95443073902E+03  0.00000000000E+00 0.  1.
         -2   -1    0    0    0  501 -0.00000000000E+00 -0.00000000000E+00 -0.31188966080E+02  0.31188966080E+02  0.00000000000E+00 0. -1.
         23    2    1    2    0    0 -0.28920291657E+02  0.13107277198E+03  0.44953741598E+03  0.47762409247E+03  0.89579185703E+02 0.  0.
          5    1    1    2  502    0 -0.24493848475E+02 -0.32243998749E+02  0.30798113744E+02  0.51045276752E+02  0.41800000000E+01 0. -1.
         -5    1    1    2    0  502  0.53414140132E+02 -0.98828773236E+02  0.44290624321E+03  0.45695033588E+03  0.41800000000E+01 0. -1.
        -11    1    3    3    0    0 -0.30394616269E+02  0.10139339120E+03  0.42807515664E+03  0.44096801721E+03  0.00000000000E+00 0.  1.
         11    1    3    3    0    0  0.14743246120E+01  0.29679380782E+02  0.21462259349E+02  0.36656075254E+02  0.00000000000E+00 0. -1.
</event>
<event>
 7    1  0.6988825E-006  0.7583757E+02  0.7561462E-02  0.1341297E+00
          2   -1    0    0  501    0  0.00000000000E+00  0.00000000000E+00  0.41267473303E+03  0.41267473303E+03  0.00000000000E+00 0. -1.
         -2   -1    0    0    0  501 -0.00000000000E+00 -0.00000000000E+00 -0.47164866685E+02  0.47164866685E+02  0.00000000000E+00 0.  1.
         23    2    1    2    0    0  0.26461917682E+02  0.14625263560E+02  0.53971082042E+02  0.12746018453E+03  0.11144096877E+03 0.  0.
          5    1    1    2  502    0 -0.30815540498E+02  0.15956217097E+02  0.29505491207E+03  0.29711794280E+03  0.41800000000E+01 0. -1.
         -5    1    1    2    0  502  0.43536228155E+01 -0.30581480657E+02  0.16483872233E+02  0.35261472383E+02  0.41800000000E+01 0.  1.
        -11    1    3    3    0    0  0.51179470329E+02 -0.82891220539E+01 -0.12143843121E+02  0.53249607072E+02  0.00000000000E+00 0.  1.
         11    1    3    3    0    0 -0.24717552647E+02  0.22914385614E+02  0.66114925163E+02  0.74210577455E+02  0.00000000000E+00 0. -1.
</event>
<event>
 7    1  0.6988825E-006  0.2106606E+03  0.7561462E-02  0.1141044E+00
          2   -1    0    0  501    0  0.00000000000E+00  0.00000000000E+00  0.11740073578E+04  0.11740073578E+04  0.00000000000E+00 0. -1.
         -2   -1    0    0    0  501 -0.00000000000E+00 -0.00000000000E+00 -0.40250689716E+02  0.40250689716E+02  0.00000000000E+00 0.  1.
         23    2    1    2    0    0 -0.16360927126E+03 -0.92210265321E+02  0.52470885115E+03  0.56475199825E+03  0.91404126688E+02 0.  0.
          5    1    1    2  502    0  0.13769619426E+03  0.23814122684E+02  0.28711473470E+03  0.31934260229E+03  0.41800000000E+01 0.  1.
         -5    1    1    2    0  502  0.25913077001E+02  0.68396142637E+02  0.32193308222E+03  0.33016344697E+03  0.41800000000E+01 0.  1.
        -11    1    3    3    0    0 -0.92567213876E+02 -0.10061753508E+03  0.36445336790E+03  0.38925420335E+03  0.00000000000E+00 0. -1.
         11    1    3    3    0    0 -0.71042057386E+02  0.84072697625E+01  0.16025548325E+03  0.17549779489E+03  0.00000000000E+00 0.  1.
</event>
<event>
 7    1  0.6988825E-006  0.1323651E+03  0.7561462E-02  0.1223988E+00
          1   -1    0    0  501    0  0.00000000000E+00  0.00000000000E+00  0.14840030112E+03  0.14840030112E+03  0.00000000000E+00 0. -1.
         -1   -1    0    0    0  501 -0.00000000000E+00 -0.00000000000E+00 -0.19011139684E+03  0.19011139684E+03  0.00000000000E+00 0.  1.
         23    2    1    2    0    0  0.92966222557E+02  0.16358656840E+02 -0.10609161658E+03  0.16909246951E+03  0.91796012702E+02 0.  0.
          5    1    1    2  502    0 -0.65434656028E+02  0.48310574355E+02  0.13513671132E+02  0.82557237790E+02  0.41800000000E+01 0. -1.
         -5    1    1    2    0  502 -0.27531566529E+02 -0.64669231195E+02  0.50866849723E+02  0.86861990650E+02  0.41800000000E+01 0. -1.
        -11    1    3    3    0    0  0.13836021283E+02 -0.21175939954E+02 -0.69885718597E+02  0.74322739332E+02  0.00000000000E+00 0.  1.
         11    1    3    3    0    0  0.79130201274E+02  0.37534596794E+02 -0.36205897980E+02  0.94769730181E+02  0.00000000000E+00 0. -1.
</event>
<event>
 7    1  0.6988825E-006  0.1080448E+03  0.7561462E-02  0.1264234E+00
         -2   -1    0    0    0  501 -0.00000000000E+00  0.00000000000E+00  0.29490669588E+02  0.29490669588E+02  0.00000000000E+00 0.  1.
          2   -1    0    0  501    0  0.00000000000E+00 -0.00000000000E+00 -0.13343932014E+04  0.13343932014E+04  0.00000000000E+00 0. -1.
         23    2    1    2    0    0  0.12834452742E+02 -0.47218239615E+02 -0.10168284208E+03  0.14503187081E+03  0.91107397332E+02 0.  0.
          5    1    1    2  502    0  0.27582655752E+02  0.85992917332E+02 -0.10759367204E+04  0.10797281526E+04  0.41800000000E+01 0. -1.
         -5    1    1    2    0  502 -0.40417108494E+02 -0.38774677717E+02 -0.12728296928E+03  0.13912384756E+03  0.41800000000E+01 0.  1.
        -11    1    3    3    0    0 -0.14147564248E+02 -0.38731480017E+02 -0.18571372434E+01  0.41276265301E+02  0.00000000000E+00 0.  1.
         11    1    3    3    0    0  0.26982016990E+02 -0.84867595984E+01 -0.99825704834E+02  0.10375560551E+03  0.00000000000E+00 0. -1.
</event>
<event>
 7    1  0.6988825E-006  0.1688726E+03  0.7561462E-02  0.1179029E+00
          1   -1    0    0  501    0  0.00000000000E+00  0.00000000000E+00  0.15262425901E+04  0.15262425901E+04  0.00000000000E+00 0. -1.
         -1   -1    0    0    0  501 -0.00000000000E+00 -0.00000000000E+00 -0.37936586310E+02  0.37936586310E+02  0.00000000000E+00 0.  1.
         23    2    1    2    0    0 -0.63906253292E+01 -0.16193944732E+03  0.27066371260E+03  0.32944633196E+03  0.94925316073E+02 0.  0.
          5    1    1    2  502    0 -0.35436185489E+01  0.14429469774E+03  0.11964247913E+04  0.12051071615E+04  0.41800000000E+01 0. -1.
         -5    1    1    2    0  502  0.99342438781E+01  0.17644749582E+02  0.21217499866E+02  0.29625682942E+02  0.41800000000E+01 0. -1.
        -11    1    3    3    0    0 -0.32243712991E+02 -0.68314112776E+02  0.56649826000E+02  0.94422867027E+02  0.00000000000E+00 0.  1.
         11    1    3    3    0    0  0.25853087662E+02 -0.93625334547E+02  0.21401388660E+03  0.23502346494E+03  0.00000000000E+00 0. -1.
</event>
<event>
 7    1  0.6988825E-006  0.1537888E+03  0.7561462E-02  0.1195893E+00
         -2   -1    0    0    0  501 -0.00000000000E+00  0.00000000000E+00  0.25301969418E+02  0.25301969418E+02  0.00000000000E+00 0.  1.
          2   -1    0    0  501    0  0.00000000000E+00 -0.00000000000E+00 -0.11097655099E+04  0.11097655099E+04  0.00000000000E+00 0. -1.
         23    2    1    2    0    0  0.10579168401E+03  0.72634253408E+02 -0.44505465611E+03  0.47102022517E+03  0.85549929443E+02 0.  0.
          5    1    1    2  502    0 -0.74920311924E+02  0.23093110091E+02 -0.28597435054E+03  0.29655546942E+03  0.41800000000E+01 0.  1.
         -5    1    1    2    0  502 -0.30871372084E+02 -0.95727363499E+02 -0.35343453386E+03  0.36749178476E+03  0.41800000000E+01 0.  1.
        -11    1    3    3    0    0  0.26162081691E+02  0.15735516119E+02 -0.24262208235E+02  0.38996355399E+02  0.00000000000E+00 0.  1.
         11    1    3    3    0    0  0.79629602317E+02  0.56898737289E+02 -0.42079244787E+03  0.43202386977E+03  0.00000000000E+00 0. -1.
</event>
<event>
 7    1  0.6988825E-006  0.1190579E+03  0.7561462E-02  0.1244659E+00
         -2   -1    0    0    0  501 -0.00000000000E+00  0.00000000000E+00  0.36418953015E+02  0.36418953015E+02  0.00000000000E+00 0.  1.
          2   -1    0    0  501    0  0.00000000000E+00 -0.00000000000E+00 -0.92065932043E+03  0.92065932043E+03  0.00000000000E+00 0. -1.
         23    2    1    2    0    0 -0.31862170252E+02 -0.57308956948E+02 -0.86348648709E+02  0.14678341712E+03  0.98943256310E+02 0.  0.
          5    1    1    2  502    0 -0.44140663255E+02  0.31846226798E+02 -0.44807781206E+03  0.45139093741E+03  0.41800000000E+01 0. -1.
         -5    1    1    2    0  502  0.76002833507E+02  0.25462730151E+02 -0.34981390664E+03  0.35890391891E+03  0.41800000000E+01 0. -1.
        -11    1    3    3    0    0 -0.32607474820E+02 -0.76967406386E+02 -0.32903217159E+02  0.89832348067E+02  0.00000000000E+00 0.  1.
         11    1    3    3    0    0  0.74530456782E+00  0.19658449438E+02 -0.53445431550E+02  0.56951069057E+02  0.00000000000E+00 0. -1.
</event>
<event>
 7    1  0.6988825E-006  0.9382168E+02  0.7561462E-02  0.1293852E+00
          2   -1    0    0  501    0  0.00000000000E+00  0.00000000000E+00  0.47142430351E+03  0.47142430351E+03  0.00000000000E+00 0. -1.
         -2   -1    0    0    0  501 -0.00000000000E+00 -0.00000000000E+00 -0.33436653815E+02  0.33436653815E+02  0.00000000000E+00 0.  1.
         23    2    1    2    0    0 -0.62874128378E+02 -0.18213933757E+01  0.18998017405E+03  0.22006053606E+03  0.91529773884E+02 0.  0.
          5    1    1    2  502    0 -0.14394618426E+02  0.34711210646E+02  0.15445741012E+03  0.15901772582E+03  0.41800000000E+01 0. -1.
         -5    1    1    2    0  502  0.77268746804E+02 -0.32889817270E+02  0.93550065523E+02  0.12578269544E+03  0.41800000000E+01 0. -1.
        -11    1    3    3    0    0 -0.19465483791E+02 -0.95165543915E+01 -0.32103268566E+01  0.21903791115E+02  0.00000000000E+00 0.  1.
         11    1    3    3    0    0 -0.43408644587E+02  0.76951610159E+01  0.19319050090E+03  0.19815674495E+03  0.00000000000E+00 0. -1.
</event>
<event>
 7    1  0.6988825E-006  0.1226558E+03  0.7561462E-02  0.1238779E+00
         -2   -1    0    0    0  501 -0.00000000000E+00  0.00000000000E+00  0.47008647754E+03  0.47008647754E+03  0.00000000000E+00 0. -1.
          2   -1    0    0  501    0  0.00000000000E+00 -0.00000000000E+00 -0.38806385132E+02  0.38806385132E+02  0.00000000000E+00 0.  1.
         23    2    1    2    0    0  0.37599493997E+02 -0.64489055188E+02  0.24805859730E+03  0.27482153574E+03  0.91767361410E+02 0.  0.
          5    1    1    2  502    0 -0.49283319655E+02 -0.11704273710E+02  0.22124199708E+02  0.55432736104E+02  0.41800000000E+01 0. -1.
         -5    1    1    2    0  502  0.11683825658E+02  0.76193328898E+02  0.16109729540E+03  0.17863859083E+03  0.41800000000E+01 0. -1.
        -11    1    3    3    0    0  0.67045828340E+02 -0.53796961495E+02  0.19669369501E+03  0.21465708892E+03  0.00000000000E+00 0. -1.
         11    1    3    3    0    0 -0.29446334344E+02 -0.10692093693E+02  0.51364902289E+02  0.60164446819E+02  0.00000000000E+00 0.  1.
</event>
<event>
 7    1  0.6988825E-006  0.1144829E+03  0.7561462E-02  0.1252486E+00
          2   -1    0    0  501    0  0.00000000000E+00  0.00000000000E+00  0.17253192772E+03  0.17253192772E+03  0.00000000000E+00 0. -1.
         -2   -1    0    0    0  501 -0.00000000000E+00 -0.00000000000E+00 -0.12549288699E+03  0.12549288699E+03  0.00000000000E+00 0.  1.
         23    2    1    2    0    0 -0.95773342296E+01  0.26524178557E+02 -0.69576537720E+02  0.12924919655E+03  0.10521027910E+03 0.  0.
          5    1    1    2  502    0  0.36394534786E+02 -0.64738174181E+02  0.80489827268E+02  0.10959780131E+03  0.41800000000E+01 0. -1.
         -5    1    1    2    0  502 -0.26817200556E+02  0.38213995624E+02  0.36125751181E+02  0.59177816838E+02  0.41800000000E+01 0.  1.
        -11    1    3    3    0    0 -0.43538006287E+02  0.50094953731E+02 -0.33327741296E+02  0.74268436907E+02  0.00000000000E+00 0.  1.
         11    1    3    3    0    0  0.33960672058E+02 -0.23570775174E+02 -0.36248796425E+02  0.54980759645E+02  0.00000000000E+00 0. -1.
</event>
<event>
 7    1  0.6988825E-006  0.9166324E+02  0.7561462E-02  0.1298873E+00
         -1   -1    0    0    0  501 -0.00000000000E+00  0.00000000000E+00  0.19178808938E+02  0.19178808938E+02  0.00000000000E+00 0.  1.
          1   -1    0    0  501    0  0.00000000000E+00 -0.00000000000E+00 -0.16277273204E+04  0.16277273204E+04  0.00000000000E+00 0. -1.
         23    2    1    2    0    0 -0.23743387364E+01  0.59452214673E+02 -0.17118099497E+03  0.20287953479E+03  0.91197419289E+02 0.  0.
          5    1    1    2  502    0 -0.14821363456E+02  0.49766967309E+01 -0.23230327674E+02  0.28311849973E+02  0.41800000000E+01 0. -1.
         -5    1    1    2    0  502  0.17195702192E+02 -0.64428911404E+02 -0.14141371888E+04  0.14157147446E+04  0.41800000000E+01 0. -1.
        -11    1    3    3    0    0 -0.40557703983E+02  0.19290053680E+02 -0.11722897436E+03  0.12553750815E+03  0.00000000000E+00 0. -1.
         11    1    3    3    0    0  0.38183365247E+02  0.40162160993E+02 -0.53952020611E+02  0.77342026643E+02  0.00000000000E+00 0.  1.
</event>
<event>
 7    1  0.6988825E-006  0.2261211E+03  0.7561462E-02  0.1129400E+00
         -2   -1    0    0    0  501 -0.00000000000E+00  0.00000000000E+00  0.58298279023E+02  0.58298279023E+02  0.00000000000E+00 0.  1.
          2   -1    0    0  501    0  0.00000000000E+00 -0.00000000000E+00 -0.92333726998E+03  0.92333726998E+03  0.00000000000E+00 0. -1.
         23    2    1    2    0    0  0.13854218819E+03  0.14837690689E+03 -0.35681058800E+03  0.42024941871E+03  0.89922932584E+02 0.  0.
          5    1    1    2  502    0 -0.82396066199E+02 -0.37575930698E+01 -0.19698657681E+03  0.21359872442E+03  0.41800000000E+01 0.  1.
         -5    1    1    2    0  502 -0.56146121990E+02 -0.14461931382E+03 -0.31124182614E+03  0.34778740587E+03  0.41800000000E+01 0.  1.
        -11    1    3    3    0    0  0.85351749134E+02  0.41119523156E+02 -0.10498108212E+03  0.14140991432E+03  0.00000000000E+00 0.  1.
         11    1    3    3    0    0  0.53190439054E+02  0.10725738373E+03 -0.25182950589E+03  0.27883950439E+03  0.00000000000E+00 0. -1.
</event>
<event>
 7    1  0.6988825E-006  0.1111179E+03  0.7561462E-02  0.1258514E+00
          3   -1    0    0  501    0  0.00000000000E+00  0.00000000000E+00  0.18074732589E+03  0.18074732589E+03  0.00000000000E+00 0. -1.
         -3   -1    0    0    0  501 -0.00000000000E+00 -0.00000000000E+00 -0.10407432591E+03  0.10407432591E+03  0.00000000000E+00 0.  1.
         23    2    1    2    0    0 -0.59501151103E+02 -0.46849585258E+02 -0.20594192858E+01  0.11874271239E+03  0.91434785042E+02 0.  0.
          5    1    1    2  502    0  0.13237325537E+02 -0.18627216616E+02 -0.25512019164E+02  0.34504137550E+02  0.41800000000E+01 0.  1.
         -5    1    1    2    0  502  0.46263825566E+02  0.65476801875E+02  0.10424443844E+03  0.13157480186E+03  0.41800000000E+01 0.  1.
        -11    1    3    3    0    0 -0.84207704129E+02 -0.38999650796E+02 -0.17933467499E+01  0.92817704612E+02  0.00000000000E+00 0.  1.
         11    1    3    3    0    0  0.24706553026E+02 -0.78499344623E+01 -0.26607253590E+00  0.25925007774E+02  0.00000000000E+00 0. -1.
</event>
<event>
 7    1  0.6988825E-006  0.1022478E+03  0.7561462E-02  0.1275639E+00
         -3   -1    0    0    0  501 -0.00000000000E+00  0.00000000000E+00  0.19535869372E+02  0.19535869372E+02  0.00000000000E+00 0.  1.
          3   -1    0    0  501    0  0.00000000000E+00 -0.00000000000E+00 -0.64973509157E+03  0.64973509157E+03  0.00000000000E+00 0. -1.
         23    2    1    2    0    0 -0.11153803372E+01  0.30561739786E+02 -0.28718560125E+03  0.30288379210E+03  0.91256550112E+02 0.  0.
          5    1    1    2  502    0  0.15942553671E+02 -0.68995997872E+02 -0.29296290318E+03  0.30142884365E+03  0.41800000000E+01 0. -1.
         -5    1    1    2    0  502 -0.14827173334E+02  0.38434258087E+02 -0.50050717760E+02  0.64958325195E+02  0.41800000000E+01 0. -1.
        -11    1    3    3    0    0 -0.28009636503E+02 -0.20316973795E+02 -0.15324580792E+03  0.15710377719E+03  0.00000000000E+00 0. -1.
         11    1    3    3    0    0  0.26894256166E+02  0.50878713580E+02 -0.13393979333E+03  0.14578001491E+03  0.00000000000E+00 0.  1.
</event>
<event>
 7    1  0.6988825E-006  0.1073788E+03  0.7561462E-02  0.1265502E+00
          1   -1    0    0  501    0  0.00000000000E+00  0.00000000000E+00  0.21516469560E+03  0.21516469560E+03  0.00000000000E+00 0. -1.
         -1   -1    0    0    0  501 -0.00000000000E+00 -0.00000000000E+00 -0.75842959072E+02  0.75842959072E+02  0.00000000000E+00 0.  1.
         23    2    1    2    0    0 -0.42388197891E+02 -0.48331807902E+02  0.38776562552E+02  0.11812451206E+03  0.91197892363E+02 0.  0.
          5    1    1    2  502    0 -0.10631083313E+02  0.54223338498E+02 -0.38773490490E+01  0.55549046850E+02  0.41800000000E+01 0.  1.
         -5    1    1    2    0  502  0.53019281204E+02 -0.58915305959E+01  0.10442252302E+03  0.11733409576E+03  0.41800000000E+01 0.  1.
        -11    1    3    3    0    0 -0.25784311897E+02 -0.72253084616E+02  0.10315125805E+02  0.77406335638E+02  0.00000000000E+00 0. -1.
         11    1    3    3    0    0 -0.16603885994E+02  0.23921276714E+02  0.28461436747E+02  0.40718176426E+02  0.00000000000E+00 0.  1.
</event>
<event>
 7    1  0.6988825E-006  0.1130891E+03  0.7561462E-02  0.1254954E+00
         -3   -1    0    0    0  501 -0.00000000000E+00  0.00000000000E+00  0.22038870964E+03  0.22038870964E+03  0.00000000000E+00 0.  1.
          3   -1    0    0  501    0  0.00000000000E+00 -0.00000000000E+00 -0.10021159634E+03  0.10021159634E+03  0.00000000000E+00 0. -1.
         23    2    1    2    0    0  0.10011974206E+03  0.24000504200E+01  0.60285118358E+02  0.14953023405E+03  0.93248444539E+02 0.  0.
          5    1    1    2  502    0 -0.77140498907E+02 -0.14540413897E+02  0.97451238279E+02  0.12520501767E+03  0.41800000000E+01 0.  1.
         -5    1    1    2    0  502 -0.22979243151E+02  0.12140363477E+02 -0.37559243346E+02  0.45865054255E+02  0.41800000000E+01 0.  1.
        -11    1    3    3    0    0  0.11060748142E+03  0.37484584235E+01  0.73313041163E+02  0.13275115024E+03  0.00000000000E+00 0.  1.
         11    1    3    3    0    0 -0.10487739357E+02 -0.13484080035E+01 -0.13027922806E+02  0.16779083813E+02  0.00000000000E+00 0. -1.
</event>
<event>
 7    1  0.9676604E-006  0.2249955E+03  0.7561462E-02  0.1130213E+00
          2   -1    0    0  501    0  0.00000000000E+00  0.00000000000E+00  0.14150876727E+03  0.14150876727E+03  0.00000000000E+00 0. -1.
         -2   -1    0    0    0  501 -0.00000000000E+00 -0.00000000000E+00 -0.38814305200E+03  0.38814305200E+03  0.00000000000E+00 0.  1.
         23    2    1    2    0    0 -0.11661645788E+03 -0.17054488717E+03 -0.13898692091E+03  0.26522747542E+03  0.91341626580E+02 0.  0.
          5    1    1    2  502    0  0.31648880091E+02  0.13210356814E+03 -0.10376658954E+03  0.17099117472E+03  0.41800000000E+01 0. -1.
         -5    1    1    2    0  502  0.84967577786E+02  0.38441319030E+02 -0.38807742813E+01  0.93433169124E+02  0.41800000000E+01 0. -1.
        -11    1    3    3    0    0 -0.47681708766E+02 -0.13500004823E+03 -0.11618999989E+03  0.18438729471E+03  0.00000000000E+00 0.  1.
         11    1    3    3    0    0 -0.68934749111E+02 -0.35544838940E+02 -0.22796921012E+02  0.80840180714E+02  0.00000000000E+00 0. -1.
</event>
<event>
 7    1  0.6988825E-006  0.2847348E+03  0.7561462E-02  0.1093131E+00
         -1   -1    0    0    0  501 -0.00000000000E+00  0.00000000000E+00  0.79121952191E+02  0.79121952191E+02  0.00000000000E+00 0.  1.
          1   -1    0    0  501    0  0.00000000000E+00 -0.00000000000E+00 -0.16899566214E+04  0.16899566214E+04  0.00000000000E+00 0. -1.
         23    2    1    2    0    0 -0.13798663655E+03  0.24203914370E+03 -0.28415060439E+03  0.40769643191E+03  0.88609004465E+02 0.  0.
          5    1    1    2  502    0 -0.19770099051E+01 -0.23153204473E+01 -0.23150310812E+03  0.23156085754E+03  0.41800000000E+01 0.  1.
         -5    1    1    2    0  502  0.13996364645E+03 -0.23972382325E+03 -0.10951809567E+04  0.11298212841E+04  0.41800000000E+01 0.  1.
        -11    1    3    3    0    0 -0.21146870481E+02  0.10259278852E+03 -0.14388874166E+03  0.17797876380E+03  0.00000000000E+00 0.  1.
         11    1    3    3    0    0 -0.11683976607E+03  0.13944635518E+03 -0.14026186273E+03  0.22971766811E+03  0.00000000000E+00 0. -1.
</event>
<event>
 7    1  0.6988825E-006  0.1582595E+03  0.7561462E-02  0.1190676E+00
         -3   -1    0    0    0  501 -0.00000000000E+00  0.00000000000E+00  0.10292156029E+04  0.10292156029E+04  0.00000000000E+00 0.  1.
          3   -1    0    0  501    0  0.00000000000E+00 -0.00000000000E+00 -0.25921705312E+02  0.25921705312E+02  0.00000000000E+00 0. -1.
         23    2    1    2    0    0 -0.13500443817E+02 -0.96707152235E+02  0.32439128734E+03  0.35092127378E+03  0.91550520565E+02 0.  0.
          5    1    1    2  502    0 -0.21886488130E+01  0.14038821252E+03  0.51637915190E+03  0.53514347732E+03  0.41800000000E+01 0. -1.
         -5    1    1    2    0  502  0.15689092630E+02 -0.43681060281E+02  0.16252345835E+03  0.16907255711E+03  0.41800000000E+01 0.  1.
        -11    1    3    3    0    0 -0.36837362480E+02 -0.79617683984E+01  0.58007521197E+02  0.69175527074E+02  0.00000000000E+00 0. -1.
         11    1    3    3    0    0  0.23336918663E+02 -0.88745383837E+02  0.26638376614E+03  0.28174574671E+03  0.00000000000E+00 0.  1.
</event>
<event>
 7    1  0.6988825E-006  0.1999940E+03  0.7561462E-02  0.1149744E+00
          2   -1    0    0  501    0  0.00000000000E+00  0.00000000000E+00  0.37203972968E+04  0.37203972968E+04  0.00000000000E+00 0. -1.
         -2   -1    0    0    0  501 -0.00000000000E+00 -0.00000000000E+00 -0.13561855698E+02  0.13561855698E+02  0.00000000000E+00 0.  1.
         23    2    1    2    0    0 -0.15351325778E+03 -0.70998673755E+02  0.97536910563E+03  0.99440369883E+03  0.94269252910E+02 0.  0.
          5    1    1    2  502    0  0.10299624695E+03 -0.20590040984E+02  0.14695966165E+04  0.14733512359E+04  0.41800000000E+01 0. -1.
         -5    1    1    2    0  502  0.50517010833E+02  0.91588714739E+02  0.12618697190E+04  0.12662042178E+04  0.41800000000E+01 0. -1.
        -11    1    3    3    0    0 -0.41419012783E+02  0.19825569751E+02  0.16397665899E+03  0.17028485702E+03  0.00000000000E+00 0.  1.
         11    1    3    3    0    0 -0.11209424500E+03 -0.90824243506E+02  0.81139244664E+03  0.82411884182E+03  0.00000000000E+00 0. -1.
</event>
<event>
 7    1  0.6988825E-006  0.2529235E+03  0.7561462E-02  0.1111471E+00
          1   -1    0    0  501    0  0.00000000000E+00  0.00000000000E+00  0.52950598329E+03  0.52950598329E+03  0.00000000000E+00 0. -1.
         -1   -1    0    0    0  501 -0.00000000000E+00 -0.00000000000E+00 -0.13922903402E+03  0.13922903402E+03  0.00000000000E+00 0.  1.
         23    2    1    2    0    0 -0.77600377877E+02  0.22500206915E+03  0.10249594963E+03  0.27489044398E+03  0.91714702915E+02 0.  0.
          5    1    1    2  502    0  0.10827000243E+03 -0.15388439317E+03  0.17517813580E+03  0.25711408275E+03  0.41800000000E+01 0.  1.
         -5    1    1    2    0  502 -0.30669624554E+02 -0.71117675976E+02  0.11260286385E+03  0.13673049058E+03  0.41800000000E+01 0.  1.
        -11    1    3    3    0    0 -0.29264060659E+02  0.44804681607E+02 -0.13515006197E+02  0.55195109681E+02  0.00000000000E+00 0.  1.
         11    1    3    3    0    0 -0.48336317218E+02  0.18019738754E+03  0.11601095583E+03  0.21969533430E+03  0.00000000000E+00 0. -1.
</event>
<event>
 7    1  0.6988825E-006  0.6268504E+02  0.7561462E-02  0.1386897E+00
          1   -1    0    0  501    0  0.00000000000E+00  0.00000000000E+00  0.50100684530E+03  0.50100684530E+03  0.00000000000E+00 0. -1.
         -1   -1    0    0    0  501 -0.00000000000E+00 -0.00000000000E+00 -0.11404380448E+03  0.11404380448E+03  0.00000000000E+00 0.  1.
         23    2    1    2    0    0 -0.14043873338E+02  0.38077410358E+01 -0.86870836769E+02  0.12747989694E+03  0.92156674052E+02 0.  0.
          5    1    1    2  502    0  0.73123673757E+01 -0.38825698837E+02  0.58661094885E+02  0.70848444302E+02  0.41800000000E+01 0. -1.
         -5    1    1    2    0  502  0.67315059621E+01  0.35017957801E+02  0.41517278270E+03  0.41672230854E+03  0.41800000000E+01 0.  1.
        -11    1    3    3    0    0  0.74233606560E+01 -0.17795924681E+02 -0.94201100865E+02  0.96154295915E+02  0.00000000000E+00 0.  1.
         11    1    3    3    0    0 -0.21467233994E+02  0.21603665717E+02  0.73302640962E+01  0.31325601023E+02  0.00000000000E+00 0. -1.
</event>
<event>
 7    1  0.6988825E-006  0.8666214E+02  0.7561462E-02  0.1311142E+00
         -4   -1    0    0    0  501 -0.00000000000E+00  0.00000000000E+00  0.11173983769E+03  0.11173983769E+03  0.00000000000E+00 0.  1.
          4   -1    0    0  501    0  0.00000000000E+00 -0.00000000000E+00 -0.14734965344E+03  0.14734965344E+03  0.00000000000E+00 0. -1.
         23    2    1    2    0    0 -0.19516498938E+02 -0.45282607662E+02  0.75050749132E+01  0.11788588828E+03  0.10681455060E+03 0.  0.
          5    1    1    2  502    0  0.82920256737E+01 -0.14652882098E+01  0.42173743823E+02  0.43208816546E+02  0.41800000000E+01 0.  1.
         -5    1    1    2    0  502  0.11224473264E+02  0.46747895872E+02 -0.85288634485E+02  0.97994786294E+02  0.41800000000E+01 0.  1.
        -11    1    3    3    0    0  0.43196340081E+02 -0.12876532156E+02  0.13467922545E+02  0.47043743627E+02  0.00000000000E+00 0. -1.
         11    1    3    3    0    0 -0.62712839019E+02 -0.32406075506E+02 -0.59628476320E+01  0.70842144656E+02  0.00000000000E+00 0.  1.
</event>
<event>
 7    1  0.6988825E-006  0.1272715E+03  0.7561462E-02  0.1231561E+00
          1   -1    0    0  501    0  0.00000000000E+00  0.00000000000E+00  0.45899379089E+03  0.45899379089E+03  0.00000000000E+00 0. -1.
         -1   -1    0    0    0  501 -0.00000000000E+00 -0.00000000000E+00 -0.40020309096E+02  0.40020309096E+02  0.00000000000E+00 0.  1.
         23    2    1    2    0    0 -0.49963937460E+01  0.80704280548E+02  0.17240405229E+03  0.21094633590E+03  0.90758220201E+02 0.  0.
          5    1    1    2  502    0 -0.57486292677E+02 -0.20721079961E+02  0.86039680846E+02  0.10561409035E+03  0.41800000000E+01 0.  1.
         -5    1    1    2    0  502  0.62482686423E+02 -0.59983200587E+02  0.16052974866E+03  0.18245367374E+03  0.41800000000E+01 0.  1.
        -11    1    3    3    0    0  0.29258642503E+02  0.15955159141E+02  0.10927898795E+03  0.11424768038E+03  0.00000000000E+00 0. -1.
         11    1    3    3    0    0 -0.34255036249E+02  0.64749121406E+02  0.63125064333E+02  0.96698655515E+02  0.00000000000E+00 0.  1.
</event>
<event>
 7    1  0.6988825E-006  0.1537258E+03  0.7561462E-02  0.1195968E+00
         -2   -1    0    0    0  501 -0.00000000000E+00  0.00000000000E+00  0.47303568592E+02  0.47303568592E+02  0.00000000000E+00 0.  1.
          2   -1    0    0  501    0  0.00000000000E+00 -0.00000000000E+00 -0.13458634892E+04  0.13458634892E+04  0.00000000000E+00 0. -1.
         23    2    1    2    0    0  0.11872537093E+03  0.16555781615E+02 -0.96133967339E+02  0.17832215000E+03  0.90483379115E+02 0.  0.
          5    1    1    2  502    0 -0.29829558556E+02  0.42416327869E+02 -0.19651359085E+03  0.20328308150E+03  0.41800000000E+01 0. -1.
         -5    1    1    2    0  502 -0.88895812376E+02 -0.58972109484E+02 -0.10059123624E+04  0.10115618262E+04  0.41800000000E+01 0. -1.
        -11    1    3    3    0    0  0.32215911604E+02  0.46980358969E+02 -0.24746341821E+02  0.62107974712E+02  0.00000000000E+00 0.  1.
         11    1    3    3    0    0  0.86509459328E+02 -0.30424577354E+02 -0.71387625518E+02  0.11621417529E+03  0.00000000000E+00 0. -1.
</event>
<event>
 6    1  0.6988825E-006  0.4294588E+02  0.7561462E-02  0.1487588E+00
          1   -1    0    0  501    0  0.00000000000E+00  0.00000000000E+00  0.81237305781E+02  0.81237305781E+02  0.00000000000E+00 0. -1.
         -1   -1    0    0    0  501 -0.00000000000E+00 -0.00000000000E+00 -0.62040276840E+02  0.62040276840E+02  0.00000000000E+00 0.  1.
          5    1    1    2  502    0  0.65982247509E+01 -0.37600313277E+02  0.63417268103E+02  0.74138670220E+02  0.41800000000E+01 0. -1.
         -5    1    1    2    0  502 -0.15030737023E+02  0.15519261005E+02 -0.36221986928E+02  0.42382487593E+02  0.41800000000E+01 0.  1.
        -11    1    1    2    0    0 -0.87767255735E+00  0.10892015538E+02 -0.26053304062E+01  0.11233612870E+02  0.00000000000E+00 0.  1.
         11    1    1    2    0    0  0.93101848293E+01  0.11189036733E+02 -0.53929218287E+01  0.15522811937E+02  0.00000000000E+00 0. -1.
</event>
<event>
 7    1  0.6988825E-006  0.2121198E+03  0.7561462E-02  0.1139898E+00
         -2   -1    0    0    0  501 -0.00000000000E+00  0.00000000000E+00  0.12062568430E+03  0.12062568430E+03  0.00000000000E+00 0.  1.
          2   -1    0    0  501    0  0.00000000000E+00 -0.00000000000E+00 -0.37837734507E+03  0.37837734507E+03  0.00000000000E+00 0. -1.
         23    2    1    2    0    0 -0.15036302164E+03 -0.10166333936E+03 -0.12677041097E+03  0.24258952388E+03  0.99168881984E+02 0.  0.
          5    1    1    2  502    0  0.14002256876E+03  0.12924766559E+03 -0.11089006655E+03  0.22051158264E+03  0.41800000000E+01 0.  1.
         -5    1    1    2    0  502  0.10340452883E+02 -0.27584326232E+02 -0.20091183247E+02  0.35901922842E+02  0.41800000000E+01 0.  1.
        -11    1    3    3    0    0 -0.15713328792E+03 -0.70905207696E+02 -0.91015175318E+02  0.19494148042E+03  0.00000000000E+00 0. -1.
         11    1    3    3    0    0  0.67702662822E+01 -0.30758131665E+02 -0.35755235651E+02  0.47648043460E+02  0.00000000000E+00 0.  1.
</event>
<event>
 7    1  0.6988825E-006  0.2842079E+03  0.7561462E-02  0.1093413E+00
         -2   -1    0    0    0  501 -0.00000000000E+00  0.00000000000E+00  0.58271125842E+03  0.58271125842E+03  0.00000000000E+00 0. -1.
          2   -1    0    0  501    0  0.00000000000E+00 -0.00000000000E+00 -0.14809880547E+03  0.14809880547E+03  0.00000000000E+00 0.  1.
         23    2    1    2    0    0 -0.10627753405E+03  0.24201541439E+03  0.29332208311E+03  0.40603790984E+03  0.94670823069E+02 0.  0.
          5    1    1    2  502    0  0.80965015309E+02 -0.52052732242E+02  0.74475764530E+02  0.12177410456E+03  0.41800000000E+01 0. -1.
         -5    1    1    2    0  502  0.25312518745E+02 -0.18996268215E+03  0.66814605306E+02  0.20299804949E+03  0.41800000000E+01 0. -1.
        -11    1    3    3    0    0 -0.77400450817E+02  0.65130495682E+02  0.95780008623E+02  0.13930764985E+03  0.00000000000E+00 0.  1.
         11    1    3    3    0    0 -0.28877083237E+02  0.17688491871E+03  0.19754207449E+03  0.26673025999E+03  0.00000000000E+00 0. -1.
</event>
<event>
 7    1  0.6988825E-006  0.1314863E+03  0.7561462E-02  0.1225267E+00
         -2   -1    0    0    0  501 -0.00000000000E+00  0.00000000000E+00  0.33979296560E+02  0.33979296560E+02  0.00000000000E+00 0.  1.
          2   -1    0    0  501    0  0.00000000000E+00 -0.00000000000E+00 -0.55463535810E+03  0.55463535810E+03  0.00000000000E+00 0. -1.
         23    2    1    2    0    0 -0.70148045926E+02 -0.45113259486E+02 -0.16619977058E+03  0.20738538951E+03  0.91817109047E+02 0.  0.
          5    1    1    2  502    0  0.98638066376E+02  0.19172857982E+02 -0.23416128227E+03  0.25484513951E+03  0.41800000000E+01 0. -1.
         -5    1    1    2    0  502 -0.28490020450E+02  0.25940401503E+02 -0.12029500870E+03  0.12638412564E+03  0.41800000000E+01 0.  1.
        -11    1    3    3    0    0  0.13513846670E+02 -0.37236967819E+02 -0.45702470292E+02  0.60480836758E+02  0.00000000000E+00 0. -1.
         11    1    3    3    0    0 -0.83661892597E+02 -0.78762916667E+01 -0.12049730029E+03  0.14690455275E+03  0.00000000000E+00 0.  1.
</event>
<event>
 7    1  0.6988825E-006  0.2832490E+03  0.7561462E-02  0.1093928E+00
          1   -1    0    0  501    0  0.00000000000E+00  0.00000000000E+00  0.10101016650E+04  0.10101016650E+04  0.00000000000E+00 0. -1.
         -1   -1    0    0    0  501 -0.00000000000E+00 -0.00000000000E+00 -0.10380984274E+03  0.10380984274E+03  0.00000000000E+00 0.  1.
         23    2    1    2    0    0  0.19460911269E+03  0.19407451834E+03  0.21761396437E+03  0.36193924446E+03  0.90036402536E+02 0.  0.
          5    1    1    2  502    0 -0.97670829823E+02 -0.12269506467E+03  0.23483097441E+03  0.28241233832E+03  0.41800000000E+01 0.  1.
         -5    1    1    2    0  502 -0.96938282866E+02 -0.71379453670E+02  0.45384688345E+03  0.46955992494E+03  0.41800000000E+01 0.  1.
        -11    1    3    3    0    0  0.10069851814E+03  0.16041584809E+03  0.13932856557E+03  0.23512950699E+03  0.00000000000E+00 0.  1.
         11    1    3    3    0    0  0.93910594549E+02  0.33658670245E+02  0.78285398800E+02  0.12680973747E+03  0.00000000000E+00 0. -1.
</event>
<event>
 7    1  0.6988825E-006  0.9232099E+02  0.7561462E-02  0.1297326E+00
          1   -1    0    0  501    0  0.00000000000E+00  0.00000000000E+00  0.86521026326E+02  0.86521026326E+02  0.00000000000E+00 0. -1.
         -1   -1    0    0    0  501 -0.00000000000E+00 -0.00000000000E+00 -0.21971932427E+03  0.21971932427E+03  0.00000000000E+00 0.  1.
         23    2    1    2    0    0 -0.34682672788E+02  0.74353978828E+02 -0.93298743432E+02  0.15141798633E+03  0.86552579965E+02 0.  0.
          5    1    1    2  502    0 -0.52566209349E+01 -0.45834553826E+02 -0.79238854831E+02  0.91786202139E+02  0.41800000000E+01 0.  1.
         -5    1    1    2    0  502  0.39939293723E+02 -0.28519425001E+02  0.39339300323E+02  0.63036162125E+02  0.41800000000E+01 0.  1.
        -11    1    3    3    0    0  0.70634740116E+01  0.80215448570E+01  0.14577667054E+02  0.18076123028E+02  0.00000000000E+00 0. -1.
         11    1    3    3    0    0 -0.41746146800E+02  0.66332433970E+02 -0.10787641049E+03  0.13334186330E+03  0.00000000000E+00 0.  1.
</event>
<event>
 7    1  0.6988825E-006  0.6475212E+02  0.7561462E-02  0.1378906E+00
          2   -1    0    0  501    0  0.00000000000E+00  0.00000000000E+00  0.47569349681E+02  0.47569349681E+02  0.00000000000E+00 0. -1.
         -2   -1    0    0    0  501 -0.00000000000E+00 -0.00000000000E+00 -0.24167531746E+03  0.24167531746E+03  0.00000000000E+00 0.  1.
         23    2    1    2    0    0  0.39794940736E+01 -0.95305077595E+01 -0.88984483164E+02  0.12552130748E+03  0.87924362024E+02 0.  0.
          5    1    1    2  502    0  0.40812343804E+02 -0.59634143411E+01 -0.10837368393E+03  0.11603248461E+03  0.41800000000E+01 0. -1.
         -5    1    1    2    0  502 -0.44791837877E+02  0.15493922101E+02  0.32521993100E+01  0.47690875048E+02  0.41800000000E+01 0. -1.
        -11    1    3    3    0    0  0.83650127317E+01  0.14121033909E+02 -0.98348255477E+02  0.99708356682E+02  0.00000000000E+00 0.  1.
         11    1    3    3    0    0 -0.43855186581E+01 -0.23651541669E+02  0.93637723131E+01  0.25812950803E+02  0.00000000000E+00 0. -1.
</event>
<event>
 7    1  0.6988825E-006  0.9862422E+02  0.7561462E-02  0.1283216E+00
         -2   -1    0    0    0  501 -0.00000000000E+00  0.00000000000E+00  0.54573500066E+02  0.54573500066E+02  0.00000000000E+00 0.  1.
          2   -1    0    0  501    0  0.00000000000E+00 -0.00000000000E+00 -0.20943505554E+04  0.20943505554E+04  0.00000000000E+00 0. -1.
         23    2    1    2    0    0 -0.48957256149E+02 -0.48139889447E+02 -0.14363726789E+02  0.11932206991E+03  0.96525529450E+02 0.  0.
          5    1    1    2  502    0 -0.38385433068E+01  0.70669651377E+02 -0.12855451301E+04  0.12874986167E+04  0.41800000000E+01 0. -1.
         -5    1    1    2    0  502  0.52795799456E+02 -0.22529761930E+02 -0.73986819847E+03  0.74210336889E+03  0.41800000000E+01 0.  1.
        -11    1    3    3    0    0 -0.11473705342E+02 -0.88062767297E+01  0.39955531640E+02  0.42492833898E+02  0.00000000000E+00 0.  1.
         11    1    3    3    0    0 -0.37483550808E+02 -0.39333612717E+02 -0.54319258428E+02  0.76829236016E+02  0.00000000000E+00 0. -1.
</event>
<event>
 7    1  0.6988825E-006  0.1563570E+03  0.7561462E-02  0.1192872E+00
          1   -1    0    0  501    0  0.00000000000E+00  0.00000000000E+00  0.41071439716E+03  0.41071439716E+03  0.00000000000E+00 0.  1.
         -1   -1    0    0    0  501 -0.00000000000E+00 -0.00000000000E+00 -0.69549885599E+02  0.69549885599E+02  0.00000000000E+00 0. -1.
         23    2    1    2    0    0  0.55044119551E+02  0.11677026873E+03  0.15824532847E+03  0.22380343044E+03  0.91549116518E+02 0.  0.
          5    1    1    2  502    0 -0.34527865951E+02  0.20589854187E+02  0.48526855542E+02  0.63154126796E+02  0.41800000000E+01 0. -1.
         -5    1    1    2    0  502 -0.20516253601E+02 -0.13736012292E+03  0.13439232755E+03  0.19330672553E+03  0.41800000000E+01 0. -1.
        -11    1    3    3    0    0  0.42279157919E+02  0.50503357657E+02  0.18178667093E+02  0.68327009785E+02  0.00000000000E+00 0. -1.
         11    1    3    3    0    0  0.12764961632E+02  0.66266911075E+02  0.14006666138E+03  0.15547642065E+03  0.00000000000E+00 0.  1.
</event>
<event>
 6    1  0.6988825E-006  0.4503863E+02  0.7561462E-02  0.1474101E+00
          2   -1    0    0  501    0  0.00000000000E+00  0.00000000000E+00  0.44491511011E+03  0.44491511011E+03  0.00000000000E+00 0. -1.
         -2   -1    0    0    0  501 -0.00000000000E+00 -0.00000000000E+00 -0.23180530004E+02  0.23180530004E+02  0.00000000000E+00 0.  1.
          5    1    1    2  502    0 -0.13861978092E+02  0.13175210425E+02  0.37096109830E+03  0.37147725294E+03  0.41800000000E+01 0. -1.
         -5    1    1    2    0  502 -0.16343914346E+02 -0.10466003157E+02 -0.49612228019E+01  0.20463305938E+02  0.41800000000E+01 0.  1.
        -11    1    1    2    0    0  0.39515525252E+02 -0.74339454507E+01  0.36669863706E+02  0.54418923042E+02  0.00000000000E+00 0.  1.
         11    1    1    2    0    0 -0.93096328140E+01  0.47247381830E+01  0.19064840912E+02  0.21736158194E+02  0.00000000000E+00 0. -1.
</event>
<event>
 7    1  0.6988825E-006  0.1684102E+03  0.7561462E-02  0.1179516E+00
         -2   -1    0    0    0  501 -0.00000000000E+00  0.00000000000E+00  0.34662745305E+03  0.34662745305E+03  0.00000000000E+00 0. -1.
          2   -1    0    0  501    0  0.00000000000E+00 -0.00000000000E+00 -0.83562490805E+02  0.83562490805E+02  0.00000000000E+00 0.  1.
         23    2    1    2    0    0  0.95094361665E+02 -0.90122936068E+02  0.13584401335E+03  0.20883830200E+03  0.89413417291E+02 0.  0.
          5    1    1    2  502    0 -0.12385523384E+03  0.85229000592E+02  0.96071966858E+02  0.17846959603E+03  0.41800000000E+01 0.  1.
         -5    1    1    2    0  502  0.28760872173E+02  0.48939354759E+01  0.31148982041E+02  0.42882045832E+02  0.41800000000E+01 0.  1.
        -11    1    3    3    0    0  0.94745557217E+01 -0.67803746288E+02  0.74454020970E+02  0.10114601552E+03  0.00000000000E+00 0. -1.
         11    1    3    3    0    0  0.85619805943E+02 -0.22319189780E+02  0.61389992379E+02  0.10769228648E+03  0.00000000000E+00 0.  1.
</event>
<event>
 7    1  0.6988825E-006  0.1010980E+03  0.7561462E-02  0.1278004E+00
         -1   -1    0    0    0  501 -0.00000000000E+00  0.00000000000E+00  0.32253810060E+02  0.32253810060E+02  0.00000000000E+00 0.  1.
          1   -1    0    0  501    0  0.00000000000E+00 -0.00000000000E+00 -0.67698106731E+03  0.67698106731E+03  0.00000000000E+00 0. -1.
         23    2    1    2    0    0 -0.58306656349E+02  0.29086890421E+02 -0.11875783932E+03  0.16468212778E+03  0.93653966493E+02 0.  0.
          5    1    1    2  502    0  0.59241070314E+02 -0.69380205180E+00 -0.91188269140E+02  0.10882443936E+03  0.41800000000E+01 0. -1.
         -5    1    1    2    0  502 -0.93441396505E+00 -0.28393088370E+02 -0.43478114879E+03  0.43572831023E+03  0.41800000000E+01 0. -1.
        -11    1    3    3    0    0 -0.77942132396E+02 -0.12500908658E+01 -0.80696841740E+02  0.11219856949E+03  0.00000000000E+00 0.  1.
         11    1    3    3    0    0  0.19635476047E+02  0.30336981287E+02 -0.38060997584E+02  0.52483558286E+02  0.00000000000E+00 0. -1.
</event>
<event>
 7    1  0.6988825E-006  0.1229216E+03  0.7561462E-02  0.1238354E+00
         -2   -1    0    0    0  501 -0.00000000000E+00  0.00000000000E+00  0.11497028600E+02  0.11497028600E+02  0.00000000000E+00 0.  1.
          2   -1    0    0  501    0  0.00000000000E+00 -0.00000000000E+00 -0.13846357001E+04  0.13846357001E+04  0.00000000000E+00 0. -1.
         23    2    1    2    0    0  0.66447817992E+02  0.20850283108E+01 -0.58099895616E+03  0.59142602078E+03  0.88347558768E+02 0.  0.
          5    1    1    2  502    0 -0.88187394145E+02 -0.35811416477E+02 -0.65027377436E+03  0.65721604367E+03  0.41800000000E+01 0. -1.
         -5    1    1    2    0  502  0.21739576153E+02  0.33726388167E+02 -0.14186594099E+03  0.14749066426E+03  0.41800000000E+01 0. -1.
        -11    1    3    3    0    0  0.25843499196E+02 -0.42614658169E+02 -0.28590928335E+03  0.29022062961E+03  0.00000000000E+00 0.  1.
         11    1    3    3    0    0  0.40604318795E+02  0.44699686479E+02 -0.29508967280E+03  0.30120539117E+03  0.00000000000E+00 0. -1.
</event>
<event>
 7    1  0.6988825E-006  0.7892813E+02  0.7561462E-02  0.1332121E+00
          2   -1    0    0  501    0  0.00000000000E+00  0.00000000000E+00  0.72777924368E+02  0.72777924368E+02  0.00000000000E+00 0. -1.
         -2   -1    0    0    0  501 -0.00000000000E+00 -0.00000000000E+00 -0.18631012152E+03  0.18631012152E+03  0.00000000000E+00 0.  1.
         23    2    1    2    0    0  0.33214397742E+02 -0.19187706270E+01 -0.80889155758E+02  0.12560010836E+03  0.90141299090E+02 0.  0.
          5    1    1    2  502    0  0.26836059820E+02 -0.40321885106E+02 -0.35013485339E+02  0.59911977773E+02  0.41800000000E+01 0.  1.
         -5    1    1    2    0  502 -0.60050457562E+02  0.42240655733E+02  0.23704439449E+01  0.73575959760E+02  0.41800000000E+01 0.  1.
        -11    1    3    3    0    0  0.19798213585E+02 -0.75008960952E+01 -0.99647554464E+02  0.10187182051E+03  0.00000000000E+00 0.  1.
         11    1    3    3    0    0  0.13416184157E+02  0.55821254682E+01  0.18758398706E+02  0.23728287846E+02  0.00000000000E+00 0. -1.
</event>
<event>
 7    1  0.6988825E-006  0.7880550E+02  0.7561462E-02  0.1332476E+00
          2   -1    0    0  501    0  0.00000000000E+00  0.00000000000E+00  0.96688940173E+02  0.96688940173E+02  0.00000000000E+00 0.  1.
         -2   -1    0    0    0  501 -0.00000000000E+00 -0.00000000000E+00 -0.18372984485E+03  0.18372984485E+03  0.00000000000E+00 0. -1.
         23    2    1    2    0    0 -0.53187709057E+02  0.11113745363E+02 -0.97459159219E+02  0.14363895521E+03  0.90451169193E+02 0.  0.
          5    1    1    2  502    0  0.14062371891E+02 -0.66538740157E+01 -0.56648630817E+02  0.58894516859E+02  0.41800000000E+01 0. -1.
         -5    1    1    2    0  502  0.39125337166E+02 -0.44598713476E+01  0.67066885361E+02  0.77885312947E+02  0.41800000000E+01 0. -1.
        -11    1    3    3    0    0 -0.42364713012E+02  0.47671655871E+02 -0.78247905587E+02  0.10094597769E+03  0.00000000000E+00 0. -1.
         11    1    3    3    0    0 -0.10822996045E+02 -0.36557910508E+02 -0.19211253632E+02  0.42692977528E+02  0.00000000000E+00 0.  1.
</event>
<event>
 7    1  0.6988825E-006  0.1717017E+03  0.7561462E-02  0.1176085E+00
          2   -1    0    0  501    0  0.00000000000E+00  0.00000000000E+00  0.25043530889E+03  0.25043530889E+03  0.00000000000E+00 0.  1.
         -2   -1    0    0    0  501 -0.00000000000E+00 -0.00000000000E+00 -0.22136592819E+03  0.22136592819E+03  0.00000000000E+00 0. -1.
         23    2    1    2    0    0  0.13330587649E+03 -0.47831870336E+02 -0.13785138561E+03  0.21967359771E+03  0.95891295167E+02 0.  0.
          5    1    1    2  502    0 -0.15148690381E+03  0.18125093766E+02  0.12366958066E+03  0.19643940193E+03  0.41800000000E+01 0.  1.
         -5    1    1    2    0  502  0.18181027324E+02  0.29706776570E+02  0.43251185650E+02  0.55688237437E+02  0.41800000000E+01 0.  1.
        -11    1    3    3    0    0  0.81323357528E+02  0.51363459749E+01 -0.11701094919E+03  0.14258833318E+03  0.00000000000E+00 0. -1.
         11    1    3    3    0    0  0.51982518958E+02 -0.52968216311E+02 -0.20840436422E+02  0.77085264524E+02  0.00000000000E+00 0.  1.
</event>
<event>
 7    1  0.6988825E-006  0.8495058E+02  0.7561462E-02  0.1315562E+00
         -2   -1    0    0    0  501 -0.00000000000E+00  0.00000000000E+00  0.25058011120E+02  0.25058011120E+02  0.00000000000E+00 0.  1.
          2   -1    0    0  501    0  0.00000000000E+00 -0.00000000000E+00 -0.54017237861E+03  0.54017237861E+03  0.00000000000E+00 0. -1.
         23    2    1    2    0    0  0.41613676123E+01  0.44921433711E+02 -0.20722479082E+03  0.22985468812E+03  0.88633016040E+02 0.  0.
          5    1    1    2  502    0 -0.13864374535E+01 -0.57520258142E+02 -0.47760899600E+02  0.74893779689E+02  0.41800000000E+01 0.  1.
         -5    1    1    2    0  502 -0.27749301588E+01  0.12598824431E+02 -0.26012867707E+03  0.26048192192E+03  0.41800000000E+01 0.  1.
        -11    1    3    3    0    0 -0.41121494315E+02  0.12571338404E+02 -0.76087897257E+02  0.87397848675E+02  0.00000000000E+00 0.  1.
         11    1    3    3    0    0  0.45282861928E+02  0.32350095306E+02 -0.13113689357E+03  0.14245683944E+03  0.00000000000E+00 0. -1.
</event>
<event>
 7    1  0.6988825E-006  0.2303092E+03  0.7561462E-02  0.1126422E+00
          2   -1    0    0  501    0  0.00000000000E+00  0.00000000000E+00  0.29021721985E+04  0.29021721985E+04  0.00000000000E+00 0. -1.
         -2   -1    0    0    0  501 -0.00000000000E+00 -0.00000000000E+00 -0.20548446601E+02  0.20548446601E+02  0.00000000000E+00 0.  1.
         23    2    1    2    0    0 -0.78719005535E+02 -0.20138981659E+03  0.11185979650E+04  0.11429548789E+04  0.91268329128E+02 0.  0.
          5    1    1    2  502    0  0.45760743486E+01  0.13977904510E+03  0.12443067166E+04  0.12521484734E+04  0.41800000000E+01 0. -1.
         -5    1    1    2    0  502  0.74142931187E+02  0.61610771493E+02  0.51871907030E+03  0.52761729284E+03  0.41800000000E+01 0.  1.
        -11    1    3    3    0    0  0.98388547100E+01 -0.16598768933E+02  0.33344562473E+02  0.38525083240E+02  0.00000000000E+00 0.  1.
         11    1    3    3    0    0 -0.88557860245E+02 -0.18479104766E+03  0.10852534025E+04  0.11044297957E+04  0.00000000000E+00 0. -1.
</event>
<event>
 7    1  0.6988825E-006  0.1083333E+03  0.7561462E-02  0.1263688E+00
          2   -1    0    0  501    0  0.00000000000E+00  0.00000000000E+00  0.20601747164E+03  0.20601747164E+03  0.00000000000E+00 0. -1.
         -2   -1    0    0    0  501 -0.00000000000E+00 -0.00000000000E+00 -0.14182540330E+03  0.14182540330E+03  0.00000000000E+00 0.  1.
         23    2    1    2    0    0  0.46750939205E+02 -0.12971143778E+02 -0.94283505549E+02  0.14019115688E+03  0.91707579626E+02 0.  0.
          5    1    1    2  502    0 -0.15655981520E+02 -0.50385084237E+02  0.29558961727E+02  0.60621539813E+02  0.41800000000E+01 0. -1.
         -5    1    1    2    0  502 -0.31094957685E+02  0.63356228014E+02  0.12891661216E+03  0.14703017824E+03  0.41800000000E+01 0. -1.
        -11    1    3    3    0    0  0.43474191079E+02  0.28148101451E+02 -0.82293249606E+02  0.97234252380E+02  0.00000000000E+00 0.  1.
         11    1    3    3    0    0  0.32767481261E+01 -0.41119245229E+02 -0.11990255944E+02  0.42956904498E+02  0.00000000000E+00 0. -1.
</event>
<event>
 7    1  0.6988825E-006  0.1011858E+03  0.7561462E-02  0.1277822E+00
         -2   -1    0    0    0  501 -0.00000000000E+00  0.00000000000E+00  0.24393630551E+02  0.24393630551E+02  0.00000000000E+00 0.  1.
          2   -1    0    0  501    0  0.00000000000E+00 -0.00000000000E+00 -0.11493602671E+04  0.11493602671E+04  0.00000000000E+00 0. -1.
         23    2    1    2    0    0 -0.12509139807E+01  0.84708271284E+02 -0.19284247643E+03  0.22946607152E+03  0.91046149047E+02 0.  0.
          5    1    1    2  502    0 -0.11010874426E+02 -0.55578218545E+02 -0.88819083821E+03  0.89000596358E+03  0.41800000000E+01 0.  1.
         -5    1    1    2    0  502  0.12261788407E+02 -0.29130052738E+02 -0.43933321930E+02  0.54281862563E+02  0.41800000000E+01 0.  1.
        -11    1    3    3    0    0  0.30830540767E+02  0.10063404249E+02 -0.19031027918E+02  0.37602850592E+02  0.00000000000E+00 0.  1.
         11    1    3    3    0    0 -0.32081454748E+02  0.74644867035E+02 -0.17381144851E+03  0.19186322093E+03  0.00000000000E+00 0. -1.
</event>
<event>
 7    1  0.6988825E-006  0.1545033E+03  0.7561462E-02  0.1195046E+00
          1   -1    0    0  501    0  0.00000000000E+00  0.00000000000E+00  0.64516947970E+03  0.64516947970E+03  0.00000000000E+00 0. -1.
         -1   -1    0    0    0  501 -0.00000000000E+00 -0.00000000000E+00 -0.50782834035E+02  0.50782834035E+02  0.00000000000E+00 0.  1.
         23    2    1    2    0    0  0.13126520049E+03  0.53945577500E+02  0.22880365183E+03  0.28432282243E+03  0.91365628501E+02 0.  0.
          5    1    1    2  502    0 -0.11793777463E+03 -0.46844818907E+02  0.15455767428E+03  0.20002325570E+03  0.41800000000E+01 0. -1.
         -5    1    1    2    0  502 -0.13327425860E+02 -0.71007585932E+01  0.21102531955E+03  0.21160623560E+03  0.41800000000E+01 0. -1.
        -11    1    3    3    0    0  0.11147395175E+03  0.27801729735E+01  0.12966876625E+03  0.17102093504E+03  0.00000000000E+00 0. -1.
         11    1    3    3    0    0  0.19791248739E+02  0.51165404527E+02  0.99134885583E+02  0.11330188739E+03  0.00000000000E+00 0.  1.
</event>
<event>
 7    1  0.6988825E-006  0.1645620E+03  0.7561462E-02  0.1183640E+00
         -1   -1    0    0    0  501 -0.00000000000E+00  0.00000000000E+00  0.24602496115E+03  0.24602496115E+03  0.00000000000E+00 0.  1.
          1   -1    0    0  501    0  0.00000000000E+00 -0.00000000000E+00 -0.24530704870E+03  0.24530704870E+03  0.00000000000E+00 0. -1.
         23    2    1    2    0    0  0.15442413566E+03 -0.41134449585E+02  0.15160199344E+03  0.23844174262E+03  0.91282219469E+02 0.  0.
          5    1    1    2  502    0 -0.13414407395E+03  0.36126175271E+02 -0.17317845081E+03  0.22205400546E+03  0.41800000000E+01 0.  1.
         -5    1    1    2    0  502 -0.20280061705E+02  0.50082743137E+01  0.22294369814E+02  0.30836261767E+02  0.41800000000E+01 0.  1.
        -11    1    3    3    0    0  0.57932904286E+02 -0.43287568772E+02  0.11370098480E+03  0.13475143396E+03  0.00000000000E+00 0.  1.
         11    1    3    3    0    0  0.96491231373E+02  0.21531191865E+01  0.37901008639E+02  0.10369030866E+03  0.00000000000E+00 0. -1.
</event>
<event>
 7    1  0.6988825E-006  0.1114277E+03  0.7561462E-02  0.1257949E+00
          1   -1    0    0  501    0  0.00000000000E+00  0.00000000000E+00  0.17984028794E+03  0.17984028794E+03  0.00000000000E+00 0. -1.
         -1   -1    0    0    0  501 -0.00000000000E+00 -0.00000000000E+00 -0.11696474693E+03  0.11696474693E+03  0.00000000000E+00 0.  1.
         23    2    1    2    0    0  0.85837076818E+02  0.23483103288E+02 -0.82137410623E+01  0.12762802737E+03  0.91115245330E+02 0.  0.
          5    1    1    2  502    0 -0.87100571852E+02 -0.15749954299E+02 -0.85690789280E+01  0.89025121124E+02  0.41800000000E+01 0.  1.
         -5    1    1    2    0  502  0.12634950342E+01 -0.77331489894E+01  0.79658360994E+02  0.80151886373E+02  0.41800000000E+01 0.  1.
        -11    1    3    3    0    0  0.12153391123E+02 -0.31279384780E+02 -0.12277223745E+02  0.35732828755E+02  0.00000000000E+00 0. -1.
         11    1    3    3    0    0  0.73683685695E+02  0.54762488068E+02  0.40634826825E+01  0.91895198615E+02  0.00000000000E+00 0.  1.
</event>
<event>
 7    1  0.6988825E-006  0.1452809E+03  0.7561462E-02  0.1206395E+00
          2   -1    0    0  501    0  0.00000000000E+00  0.00000000000E+00  0.17696102891E+04  0.17696102891E+04  0.00000000000E+00 0. -1.
         -2   -1    0    0    0  501 -0.00000000000E+00 -0.00000000000E+00 -0.16557644861E+02  0.16557644861E+02  0.00000000000E+00 0.  1.
         23    2    1    2    0    0 -0.97115758937E+02 -0.41884770357E+02  0.47210971904E+03  0.49479316007E+03  0.10366715882E+03 0.  0.
          5    1    1    2  502    0  0.33038680082E+02 -0.38370536009E+02  0.66284854548E+03  0.66479283921E+03  0.41800000000E+01 0. -1.
         -5    1    1    2    0  502  0.64077078856E+02  0.80255306367E+02  0.61809437968E+03  0.62658193465E+03  0.41800000000E+01 0. -1.
        -11    1    3    3    0    0  0.66300111032E+01 -0.32087363036E+02  0.48332819219E+02  0.58391928616E+02  0.00000000000E+00 0.  1.
         11    1    3    3    0    0 -0.10374577004E+03 -0.97974073210E+01  0.42377689982E+03  0.43640123145E+03  0.00000000000E+00 0. -1.
</event>
<event>
 7    1  0.6988825E-006  0.2936551E+03  0.7561462E-02  0.1088456E+00
         -4   -1    0    0    0  501 -0.00000000000E+00  0.00000000000E+00  0.39058957746E+03  0.39058957746E+03  0.00000000000E+00 0.  1.
          4   -1    0    0  501    0  0.00000000000E+00 -0.00000000000E+00 -0.27312161486E+03  0.27312161486E+03  0.00000000000E+00 0. -1.
         23    2    1    2    0    0 -0.23366778822E+03 -0.17652349110E+03  0.15442341544E+03  0.34312721715E+03  0.90158292738E+02 0.  0.
          5    1    1    2  502    0  0.96881258179E+02  0.78786756444E+02  0.45906427621E+02  0.13310974297E+03  0.41800000000E+01 0.  1.
         -5    1    1    2    0  502  0.13678653004E+03  0.97736734658E+02 -0.82861880458E+02  0.18747423219E+03  0.41800000000E+01 0.  1.
        -11    1    3    3    0    0 -0.14645397895E+03 -0.12733933480E+03  0.14558975601E+03  0.24261172930E+03  0.00000000000E+00 0.  1.
         11    1    3    3    0    0 -0.87213809270E+02 -0.49184156297E+02  0.88336594239E+01  0.10051548785E+03  0.00000000000E+00 0. -1.
</event>
<event>
 7    1  0.6988825E-006  0.9536509E+02  0.7561462E-02  0.1290356E+00
          2   -1    0    0  501    0  0.00000000000E+00  0.00000000000E+00  0.72035027281E+03  0.72035027281E+03  0.00000000000E+00 0. -1.
         -2   -1    0    0    0  501 -0.00000000000E+00 -0.00000000000E+00 -0.44645875146E+02  0.44645875146E+02  0.00000000000E+00 0.  1.
         23    2    1    2    0    0  0.19611994401E+02 -0.57762351244E+02  0.95634526522E+02  0.14459592986E+03  0.89671069599E+02 0.  0.
          5    1    1    2  502    0  0.19069304707E+02  0.55985165182E+02  0.57838568155E+03  0.58141675769E+03  0.41800000000E+01 0. -1.
         -5    1    1    2    0  502 -0.38681299108E+02  0.17771860619E+01  0.16841895963E+01  0.38983460410E+02  0.41800000000E+01 0.  1.
        -11    1    3    3    0    0  0.10013446589E+01 -0.70136046229E+02  0.99678131192E+02  0.12188436122E+03  0.00000000000E+00 0.  1.
         11    1    3    3    0    0  0.18610649742E+02  0.12373694985E+02 -0.40436046701E+01  0.22711568640E+02  0.00000000000E+00 0. -1.
</event>
<event>
 7    1  0.6988825E-006  0.1191666E+03  0.7561462E-02  0.1244478E+00
          1   -1    0    0  501    0  0.00000000000E+00  0.00000000000E+00  0.11118260968E+03  0.11118260968E+03  0.00000000000E+00 0. -1.
         -1   -1    0    0    0  501 -0.00000000000E+00 -0.00000000000E+00 -0.16794515677E+03  0.16794515677E+03  0.00000000000E+00 0.  1.
         23    2    1    2    0    0  0.63724805618E+02  0.28895532820E+02 -0.70107886406E+02  0.13506772859E+03  0.91827952723E+02 0.  0.
          5    1    1    2  502    0  0.32994750287E+02  0.15509326253E+02  0.70363344292E+01  0.37365427195E+02  0.41800000000E+01 0.  1.
         -5    1    1    2    0  502 -0.96719555905E+02 -0.44404859073E+02  0.63090048909E+01  0.10669461067E+03  0.41800000000E+01 0.  1.
        -11    1    3    3    0    0  0.22670634178E+02  0.45506636334E+02  0.15090771857E+01  0.50863434001E+02  0.00000000000E+00 0. -1.
         11    1    3    3    0    0  0.41054171441E+02 -0.16611103514E+02 -0.71616963591E+02  0.84204294586E+02  0.00000000000E+00 0.  1.
</event>
<event>
 7    1  0.6988825E-006  0.9708778E+02  0.7561462E-02  0.1286542E+00
         -3   -1    0    0    0  501 -0.00000000000E+00  0.00000000000E+00  0.14239669114E+02  0.14239669114E+02  0.00000000000E+00 0.  1.
          3   -1    0    0  501    0  0.00000000000E+00 -0.00000000000E+00 -0.87933585598E+03  0.87933585598E+03  0.00000000000E+00 0. -1.
         23    2    1    2    0    0  0.18369488718E+02 -0.42219502296E+01 -0.28770592978E+03  0.30249016658E+03  0.91489539687E+02 0.  0.
          5    1    1    2  502    0 -0.28111215242E+02  0.50259571509E+02 -0.14424911937E+03  0.15537549933E+03  0.41800000000E+01 0. -1.
         -5    1    1    2    0  502  0.97417265242E+01 -0.46037621279E+02 -0.43314113771E+03  0.43570985918E+03  0.41800000000E+01 0. -1.
        -11    1    3    3    0    0 -0.26863713494E+02  0.23879711563E+02 -0.16254891567E+03  0.16647537269E+03  0.00000000000E+00 0. -1.
         11    1    3    3    0    0  0.45233202212E+02 -0.28101661792E+02 -0.12515701410E+03  0.13601479389E+03  0.00000000000E+00 0.  1.
</event>
<event>
 7    1  0.6988825E-006  0.1159589E+03  0.7561462E-02  0.1249917E+00
          1   -1    0    0  501    0  0.00000000000E+00  0.00000000000E+00  0.42760909326E+03  0.42760909326E+03  0.00000000000E+00 0. -1.
         -1   -1    0    0    0  501 -0.00000000000E+00 -0.00000000000E+00 -0.11402993529E+03  0.11402993529E+03  0.00000000000E+00 0.  1.
         23    2    1    2    0    0  0.80820872372E+01  0.36772357560E+02 -0.75926079680E+02  0.12423728977E+03  0.90843867049E+02 0.  0.
          5    1    1    2  502    0 -0.57201022297E+02 -0.66296867502E+02  0.28453740275E+03  0.29773518025E+03  0.41800000000E+01 0. -1.
         -5    1    1    2    0  502  0.49118935060E+02  0.29524509942E+02  0.10496783489E+03  0.11966655853E+03  0.41800000000E+01 0.  1.
        -11    1    3    3    0    0 -0.32758514405E+02  0.14392728154E+01 -0.59249001350E+02  0.67717323731E+02  0.00000000000E+00 0.  1.
         11    1    3    3    0    0  0.40840601642E+02  0.35333084744E+02 -0.16677078329E+02  0.56519966044E+02  0.00000000000E+00 0. -1.
</event>
<event>
 7    1  0.6988825E-006  0.1063902E+03  0.7561462E-02  0.1267405E+00
          2   -1    0    0  501    0  0.00000000000E+00  0.00000000000E+00  0.80862460229E+02  0.80862460229E+02  0.00000000000E+00 0. -1.
         -2   -1    0    0    0  501 -0.00000000000E+00 -0.00000000000E+00 -0.19141763153E+03  0.19141763153E+03  0.00000000000E+00 0.  1.
         23    2    1    2    0    0  0.23393493291E+02  0.31060489706E+02 -0.10053177929E+03  0.14090224995E+03  0.90745775895E+02 0.  0.
          5    1    1    2  502    0  0.13801839151E+02  0.35184014073E+02 -0.34609368296E+02  0.51416790877E+02  0.41800000000E+01 0. -1.
         -5    1    1    2    0  502 -0.37195332443E+02 -0.66244503779E+02  0.24585976290E+02  0.79961050935E+02  0.41800000000E+01 0. -1.
        -11    1    3    3    0    0 -0.29039540039E+02  0.35712593164E+02 -0.49306152027E+02  0.67452063155E+02  0.00000000000E+00 0.  1.
         11    1    3    3    0    0  0.52433033330E+02 -0.46521034584E+01 -0.51225627267E+02  0.73450186792E+02  0.00000000000E+00 0. -1.
</event>
<event>
 7    1  0.6988825E-006  0.1064387E+03  0.7561462E-02  0.1267311E+00
         -2   -1    0    0    0  501 -0.00000000000E+00  0.00000000000E+00  0.29589628476E+02  0.29589628476E+02  0.00000000000E+00 0.  1.
          2   -1    0    0  501    0  0.00000000000E+00 -0.00000000000E+00 -0.41808478622E+03  0.41808478622E+03  0.00000000000E+00 0. -1.
         23    2    1    2    0    0 -0.18156324823E+02  0.29842160258E+02 -0.13433844322E+03  0.16849858328E+03  0.95523549876E+02 0.  0.
          5    1    1    2  502    0  0.58554365818E+02 -0.41905897798E+02 -0.14163953483E+03  0.15894636911E+03  0.41800000000E+01 0. -1.
         -5    1    1    2    0  502 -0.40398040995E+02  0.12063737539E+02 -0.11251717969E+03  0.12022946230E+03  0.41800000000E+01 0.  1.
        -11    1    3    3    0    0 -0.55854909871E+02  0.14693402906E+02 -0.57044575020E+02  0.81177278748E+02  0.00000000000E+00 0.  1.
         11    1    3    3    0    0  0.37698585049E+02  0.15148757352E+02 -0.77293868201E+02  0.87321304534E+02  0.00000000000E+00 0. -1.
</event>
<event>
 7    1  0.6988825E-006  0.1055803E+03  0.7561462E-02  0.1268981E+00
         -3   -1    0    0    0  501 -0.00000000000E+00  0.00000000000E+00  0.38661918913E+02  0.38661918913E+02  0.00000000000E+00 0.  1.
          3   -1    0    0  501    0  0.00000000000E+00 -0.00000000000E+00 -0.37068094126E+03  0.37068094126E+03  0.00000000000E+00 0. -1.
         23    2    1    2    0    0 -0.20219098030E+02 -0.46575508700E+02 -0.14660967440E+03  0.17999152296E+03  0.91238488442E+02 0.  0.
          5    1    1    2  502    0 -0.25002848234E+02 -0.15851137133E+02 -0.15445567241E+01  0.29937585469E+02  0.41800000000E+01 0. -1.
         -5    1    1    2    0  502  0.45221946264E+02  0.62426645833E+02 -0.18386479122E+03  0.19941375174E+03  0.41800000000E+01 0. -1.
        -11    1    3    3    0    0  0.28483961517E+02 -0.47462224009E+02 -0.85307868933E+02  0.10169282803E+03  0.00000000000E+00 0. -1.
         11    1    3    3    0    0 -0.48703059547E+02  0.88671530951E+00 -0.61301805467E+02  0.78298694924E+02  0.00000000000E+00 0.  1.
</event>
<event>
 7    1  0.6988825E-006  0.8614919E+02  0.7561462E-02  0.1312454E+00
          1   -1    0    0  501    0  0.00000000000E+00  0.00000000000E+00  0.52849683652E+03  0.52849683652E+03  0.00000000000E+00 0. -1.
         -1   -1    0    0    0  501 -0.00000000000E+00 -0.00000000000E+00 -0.27916998698E+02  0.27916998698E+02  0.00000000000E+00 0.  1.
         23    2    1    2    0    0  0.28383722741E+02 -0.53568017687E+02  0.21971058008E+03  0.24535210841E+03  0.90828133668E+02 0.  0.
          5    1    1    2  502    0 -0.18033554234E+02  0.26803821090E+00  0.24534564791E+03  0.24604316749E+03  0.41800000000E+01 0. -1.
         -5    1    1    2    0  502 -0.10350168507E+02  0.53299979476E+02  0.35523609838E+02  0.65018559321E+02  0.41800000000E+01 0.  1.
        -11    1    3    3    0    0  0.10316720932E+01 -0.68268509478E+02  0.19183641852E+03  0.20362432371E+03  0.00000000000E+00 0. -1.
         11    1    3    3    0    0  0.27352050648E+02  0.14700491791E+02  0.27874161560E+02  0.41727784703E+02  0.00000000000E+00 0.  1.
</event>
<event>
 7    1  0.6988825E-006  0.8007285E+02  0.7561462E-02  0.1328845E+00
         -1   -1    0    0    0  501 -0.00000000000E+00  0.00000000000E+00  0.13471963874E+03  0.13471963874E+03  0.00000000000E+00 0.  1.
          1   -1    0    0  501    0  0.00000000000E+00 -0.00000000000E+00 -0.11998714324E+03  0.11998714324E+03  0.00000000000E+00 0. -1.
         23    2    1    2    0    0  0.40355877368E+02  0.16262826201E+02  0.55894103562E+02  0.11602906161E+03  0.91899488414E+02 0.  0.
          5    1    1    2  502    0 -0.24136055973E+02  0.25197068386E+02 -0.74852219170E+02  0.82690800987E+02  0.41800000000E+01 0. -1.
         -5    1    1    2    0  502 -0.16219821395E+02 -0.41459894587E+02  0.33690611113E+02  0.55986919387E+02  0.41800000000E+01 0. -1.
        -11    1    3    3    0    0  0.29728986077E+02 -0.24275257318E+02 -0.83936145783E+01  0.39288083393E+02  0.00000000000E+00 0. -1.
         11    1    3    3    0    0  0.10626891291E+02  0.40538083519E+02  0.64287718140E+02  0.76740978216E+02  0.00000000000E+00 0.  1.
</event>
<event>
 7    1  0.6988825E-006  0.1195193E+03  0.7561462E-02  0.1243892E+00
         -2   -1    0    0    0  501 -0.00000000000E+00  0.00000000000E+00  0.17693532160E+02  0.17693532160E+02  0.00000000000E+00 0. -1.
          2   -1    0    0  501    0  0.00000000000E+00 -0.00000000000E+00 -0.90988283589E+03  0.90988283589E+03  0.00000000000E+00 0.  1.
         23    2    1    2    0    0  0.89108056572E+01  0.53164367178E+02 -0.25659397541E+03  0.27754992480E+03  0.91036476993E+02 0.  0.
          5    1    1    2  502    0  0.51720571578E+02 -0.52037535694E+02 -0.29264465180E+03  0.30173048781E+03  0.41800000000E+01 0.  1.
         -5    1    1    2    0  502 -0.60631377235E+02 -0.11268314841E+01 -0.34295067652E+03  0.34829595544E+03  0.41800000000E+01 0.  1.
        -11    1    3    3    0    0 -0.12605050277E+02  0.73850395483E+02 -0.19992789095E+03  0.21350393389E+03  0.00000000000E+00 0.  1.
         11    1    3    3    0    0  0.21515855934E+02 -0.20686028305E+02 -0.56666084462E+02  0.64045990912E+02  0.00000000000E+00 0. -1.
</event>
<event>
 7    1  0.6988825E-006  0.2315598E+03  0.7561462E-02  0.1125547E+00
         -2   -1    0    0    0  501 -0.00000000000E+00  0.00000000000E+00  0.23030905459E+03  0.23030905459E+03  0.00000000000E+00 0.  1.
          2   -1    0    0  501    0  0.00000000000E+00 -0.00000000000E+00 -0.43072044992E+03  0.43072044992E+03  0.00000000000E+00 0. -1.
         23    2    1    2    0    0 -0.19560388081E+02  0.47536336039E+02  0.21421946314E+02  0.10567610452E+03  0.89812177659E+02 0.  0.
          5    1    1    2  502    0 -0.12638815567E+03 -0.14293804308E+03 -0.30682282331E+03  0.36133497942E+03  0.41800000000E+01 0. -1.
         -5    1    1    2    0  502  0.14594854375E+03  0.95401707040E+02  0.84989481657E+02  0.19401842057E+03  0.41800000000E+01 0.  1.
        -11    1    3    3    0    0 -0.39761169010E+02  0.61548268773E+02  0.31698914130E+00  0.73275101038E+02  0.00000000000E+00 0.  1.
         11    1    3    3    0    0  0.20200780929E+02 -0.14011932735E+02  0.21104957172E+02  0.32401003477E+02  0.00000000000E+00 0. -1.
</event>
<event>
 7    1  0.6988825E-006  0.1438731E+03  0.7561462E-02  0.1208210E+00
         -1   -1    0    0    0  501 -0.00000000000E+00  0.00000000000E+00  0.20974153053E+02  0.20974153053E+02  0.00000000000E+00 0.  1.
          1   -1    0    0  501    0  0.00000000000E+00 -0.00000000000E+00 -0.12669264650E+04  0.12669264650E+04  0.00000000000E+00 0. -1.
         23    2    1    2    0    0  0.43354673276E+02  0.10132349902E+03 -0.38692460314E+03  0.41284510786E+03  0.92651796622E+02 0.  0.
          5    1    1    2  502    0  0.17716757691E+02 -0.74941754198E+02 -0.67379715273E+03  0.67819630304E+03  0.41800000000E+01 0.  1.
         -5    1    1    2    0  502 -0.61071430966E+02 -0.26381744819E+02 -0.18523055610E+03  0.19685920718E+03  0.41800000000E+01 0.  1.
        -11    1    3    3    0    0 -0.28505197821E+02  0.42131478670E+02 -0.13932670643E+03  0.14832241544E+03  0.00000000000E+00 0.  1.
         11    1    3    3    0    0  0.71859871096E+02  0.59192020348E+02 -0.24759789671E+03  0.26452269241E+03  0.00000000000E+00 0. -1.
</event>
<event>
 7    1  0.6988825E-006  0.1599501E+03  0.7561462E-02  0.1188753E+00
          2   -1    0    0  501    0  0.00000000000E+00  0.00000000000E+00  0.11859499471E+03  0.11859499471E+03  0.00000000000E+00 0. -1.
         -2   -1    0    0    0  501 -0.00000000000E+00 -0.00000000000E+00 -0.44597713114E+03  0.44597713114E+03  0.00000000000E+00 0.  1.
         23    2    1    2    0    0  0.76964545962E+02  0.13919686741E+03 -0.31161076598E+03  0.36160448901E+03  0.91417874411E+02 0.  0.
          5    1    1    2  502    0 -0.50000524463E+02 -0.10144339988E+03  0.48883809614E+02  0.12327982425E+03  0.41800000000E+01 0.  1.
         -5    1    1    2    0  502 -0.26964021499E+02 -0.37753467537E+02 -0.64655180066E+02  0.79687812593E+02  0.41800000000E+01 0.  1.
        -11    1    3    3    0    0  0.11117706584E+02  0.36460897256E+02 -0.15161625483E+02  0.41022863329E+02  0.00000000000E+00 0.  1.
         11    1    3    3    0    0  0.65846839378E+02  0.10273597016E+03 -0.29644914050E+03  0.32058162568E+03  0.00000000000E+00 0. -1.
</event>
<event>
 7    1  0.6988825E-006  0.1090421E+03  0.7561462E-02  0.1262354E+00
          2   -1    0    0  501    0  0.00000000000E+00  0.00000000000E+00  0.10181122466E+04  0.10181122466E+04  0.00000000000E+00 0. -1.
         -2   -1    0    0    0  501 -0.00000000000E+00 -0.00000000000E+00 -0.12086260111E+02  0.12086260111E+02  0.00000000000E+00 0.  1.
         23    2    1    2    0    0 -0.41272687142E+01 -0.19503929125E+02  0.45994564361E+03  0.46961965728E+03  0.92710246641E+02 0.  0.
          5    1    1    2  502    0  0.35713242677E+02 -0.41209188750E+02  0.30816669365E+03  0.31298213434E+03  0.41800000000E+01 0.  1.
         -5    1    1    2    0  502 -0.31585973962E+02  0.60713117875E+02  0.23791364922E+03  0.24759671508E+03  0.41800000000E+01 0.  1.
        -11    1    3    3    0    0 -0.20783222185E+02  0.33414145485E+02  0.19226292239E+03  0.19624851278E+03  0.00000000000E+00 0. -1.
         11    1    3    3    0    0  0.16655953471E+02 -0.52918074610E+02  0.26768272122E+03  0.27337114450E+03  0.00000000000E+00 0.  1.
</event>
<event>
 7    1  0.6988825E-006  0.2448401E+03  0.7561462E-02  0.1116610E+00
         -3   -1    0    0    0  501 -0.00000000000E+00  0.00000000000E+00  0.75706242882E+02  0.75706242882E+02  0.00000000000E+00 0.  1.
          3   -1    0    0  501    0  0.00000000000E+00 -0.00000000000E+00 -0.80986582323E+03  0.80986582323E+03  0.00000000000E+00 0. -1.
         23    2    1    2    0    0 -0.20463869709E+03  0.86939160735E+02 -0.34692102813E+03  0.42185113930E+03  0.90381247771E+02 0.  0.
          5    1    1    2  502    0  0.13973749578E+03  0.56480599070E+01 -0.24297470179E+03  0.28037946861E+03  0.41800000000E+01 0. -1.
         -5    1    1    2    0  502  0.64901201315E+02 -0.92587220642E+02 -0.14426385042E+03  0.18334145820E+03  0.41800000000E+01 0. -1.
        -11    1    3    3    0    0 -0.20831113188E+03  0.70716862953E+02 -0.29959556118E+03  0.37168791028E+03  0.00000000000E+00 0.  1.
         11    1    3    3    0    0  0.36724347922E+01  0.16222297782E+02 -0.47325466957E+02  0.50163229016E+02  0.00000000000E+00 0. -1.
</event>
<event>
 7    1  0.6988825E-006  0.2393653E+03  0.7561462E-02  0.1120216E+00
          1   -1    0    0  501    0  0.00000000000E+00  0.00000000000E+00  0.58275431000E+03  0.58275431000E+03  0.00000000000E+00 0. -1.
         -1   -1    0    0    0  501 -0.00000000000E+00 -0.00000000000E+00 -0.10182789359E+03  0.10182789359E+03  0.00000000000E+00 0.  1.
         23    2    1    2    0    0 -0.21339057672E+03 -0.46455763327E+02  0.23321007226E+03  0.33144741252E+03  0.88186015231E+02 0.  0.
          5    1    1    2  502    0  0.10982959163E+03  0.79409248248E+02  0.17872489623E+03  0.22433998493E+03  0.41800000000E+01 0. -1.
         -5    1    1    2    0  502  0.10356098509E+03 -0.32953484921E+02  0.68991447923E+02  0.12879480614E+03  0.41800000000E+01 0. -1.
        -11    1    3    3    0    0 -0.17760383239E+03 -0.70693385282E+02  0.20218152018E+03  0.27824098028E+03  0.00000000000E+00 0. -1.
         11    1    3    3    0    0 -0.35786744334E+02  0.24237621954E+02  0.31028552073E+02  0.53206432240E+02  0.00000000000E+00 0.  1.
</event>
<event>
 7    1  0.6988825E-006  0.1192056E+03  0.7561462E-02  0.1244413E+00
          2   -1    0    0  501    0  0.00000000000E+00  0.00000000000E+00  0.47789823536E+03  0.47789823536E+03  0.00000000000E+00 0. -1.
         -2   -1    0    0    0  501 -0.00000000000E+00 -0.00000000000E+00 -0.44525986054E+02  0.44525986054E+02  0.00000000000E+00 0.  1.
         23    2    1    2    0    0 -0.94252123545E+01  0.82742372013E+02  0.10505909511E+03  0.16136465866E+03  0.89810939454E+02 0.  0.
          5    1    1    2  502    0  0.26761508979E+02  0.82369316555E+01  0.20414298228E+03  0.20609671278E+03  0.41800000000E+01 0. -1.
         -5    1    1    2    0  502 -0.17336296624E+02 -0.90979303668E+02  0.12417017192E+03  0.15496284997E+03  0.41800000000E+01 0. -1.
        -11    1    3    3    0    0  0.35426668700E+02  0.21363422059E+02  0.60361902349E+02  0.73177892238E+02  0.00000000000E+00 0. -1.
         11    1    3    3    0    0 -0.44851881055E+02  0.61378949954E+02  0.44697192762E+02  0.88186766425E+02  0.00000000000E+00 0.  1.
</event>
<event>
 7    1  0.6988825E-006  0.1471020E+03  0.7561462E-02  0.1204080E+00
          2   -1    0    0  501    0  0.00000000000E+00  0.00000000000E+00  0.60503880092E+03  0.60503880092E+03  0.00000000000E+00 0. -1.
         -2   -1    0    0    0  501 -0.00000000000E+00 -0.00000000000E+00 -0.10596037790E+03  0.10596037790E+03  0.00000000000E+00 0.  1.
         23    2    1    2    0    0 -0.97200246277E+01  0.12265401084E+03 -0.28594707521E+02  0.15491929497E+03  0.89687487436E+02 0.  0.
          5    1    1    2  502    0 -0.14092755958E+02 -0.12067555240E+03  0.51411069884E+03  0.52828825255E+03  0.41800000000E+01 0. -1.
         -5    1    1    2    0  502  0.23812780585E+02 -0.19784584365E+01  0.13562431696E+02  0.27791631303E+02  0.41800000000E+01 0. -1.
        -11    1    3    3    0    0 -0.46352229847E+02  0.76597989319E+02 -0.34121088781E+02  0.95812472461E+02  0.00000000000E+00 0. -1.
         11    1    3    3    0    0  0.36632205219E+02  0.46056021519E+02  0.55263812605E+01  0.59106822510E+02  0.00000000000E+00 0.  1.
</event>
<event>
 7    1  0.6988825E-006  0.1190528E+03  0.7561462E-02  0.1244668E+00
         -2   -1    0    0    0  501 -0.00000000000E+00  0.00000000000E+00  0.14294112167E+02  0.14294112167E+02  0.00000000000E+00 0.  1.
          2   -1    0    0  501    0  0.00000000000E+00 -0.00000000000E+00 -0.11115841414E+04  0.11115841414E+04  0.00000000000E+00 0. -1.
         23    2    1    2    0    0  0.55027178147E+02 -0.27210892574E+02 -0.40996194188E+03  0.42456816029E+03  0.91765494208E+02 0.  0.
          5    1    1    2  502    0  0.34657381645E+02  0.12804357057E+02 -0.34901667693E+03  0.35099173614E+03  0.41800000000E+01 0. -1.
         -5    1    1    2    0  502 -0.89684559792E+02  0.14406535517E+02 -0.33831141045E+03  0.35031835717E+03  0.41800000000E+01 0. -1.
        -11    1    3    3    0    0 -0.15824926047E+02 -0.35295320983E+02 -0.16214568061E+03  0.16669555995E+03  0.00000000000E+00 0.  1.
         11    1    3    3    0    0  0.70852104194E+02  0.80844284090E+01 -0.24781626128E+03  0.25787260034E+03  0.00000000000E+00 0. -1.
</event>
<event>
 7    1  0.6988825E-006  0.1456819E+03  0.7561462E-02  0.1205882E+00
          1   -1    0    0  501    0  0.00000000000E+00  0.00000000000E+00  0.46608212746E+03  0.46608212746E+03  0.00000000000E+00 0. -1.
         -1   -1    0    0    0  501 -0.00000000000E+00 -0.00000000000E+00 -0.54888468997E+02  0.54888468997E+02  0.00000000000E+00 0.  1.
         23    2    1    2    0    0 -0.90089258253E+02 -0.60483101390E+02  0.12778108917E+03  0.19272694245E+03  0.95086211369E+02 0.  0.
          5    1    1    2  502    0  0.70547455382E+02  0.97357013134E+02  0.17847456091E+03  0.21523469228E+03  0.41800000000E+01 0. -1.
         -5    1    1    2    0  502  0.19541802871E+02 -0.36873911745E+02  0.10493800839E+03  0.11300896173E+03  0.41800000000E+01 0. -1.
        -11    1    3    3    0    0 -0.26113596431E+02  0.15045576695E+02  0.74390455296E+02  0.80263498153E+02  0.00000000000E+00 0. -1.
         11    1    3    3    0    0 -0.63975661822E+02 -0.75528678084E+02  0.53390633870E+02  0.11246344430E+03  0.00000000000E+00 0.  1.
</event>
<event>
 7    1  0.6988825E-006  0.1386561E+03  0.7561462E-02  0.1215149E+00
          3   -1    0    0  501    0  0.00000000000E+00  0.00000000000E+00  0.45327274110E+03  0.45327274110E+03  0.00000000000E+00 0. -1.
         -3   -1    0    0    0  501 -0.00000000000E+00 -0.00000000000E+00 -0.73857720853E+02  0.73857720853E+02  0.00000000000E+00 0.  1.
         23    2    1    2    0    0 -0.11496431417E+03 -0.67244288074E+02  0.89278722165E+02  0.18425332804E+03  0.90774505501E+02 0.  0.
          5    1    1    2  502    0  0.30900452559E+02 -0.16393868165E+01  0.19767126572E+03  0.20012228074E+03  0.41800000000E+01 0. -1.
         -5    1    1    2    0  502  0.84063861615E+02  0.68883674890E+02  0.92465032362E+02  0.14275485318E+03  0.41800000000E+01 0. -1.
        -11    1    3    3    0    0 -0.92335190373E+02 -0.36814766983E+02  0.14562767210E+02  0.10046486270E+03  0.00000000000E+00 0.  1.
         11    1    3    3    0    0 -0.22629123800E+02 -0.30429521090E+02  0.74715954956E+02  0.83788465332E+02  0.00000000000E+00 0. -1.
</event>
<event>
 7    1  0.6988825E-006  0.1375918E+03  0.7561462E-02  0.1216607E+00
         -2   -1    0    0    0  501 -0.00000000000E+00  0.00000000000E+00  0.45961554458E+02  0.45961554458E+02  0.00000000000E+00 0.  1.
          2   -1    0    0  501    0  0.00000000000E+00 -0.00000000000E+00 -0.55733881615E+03  0.55733881615E+03  0.00000000000E+00 0. -1.
         23    2    1    2    0    0 -0.18968009541E+02  0.11725459439E+03 -0.22913836287E+03  0.27252697794E+03  0.87510794031E+02 0.  0.
          5    1    1    2  502    0 -0.51548919388E+01  0.59726495766E+01 -0.14281768336E+03  0.14309650078E+03  0.41800000000E+01 0.  1.
         -5    1    1    2    0  502  0.24122901480E+02 -0.12322724397E+03 -0.13942121546E+03  0.18767689189E+03  0.41800000000E+01 0.  1.
        -11    1    3    3    0    0 -0.13042302629E+02 -0.79502409831E+01 -0.60553624168E+02  0.62450375415E+02  0.00000000000E+00 0. -1.
         11    1    3    3    0    0 -0.59257069121E+01  0.12520483537E+03 -0.16858473870E+03  0.21007660252E+03  0.00000000000E+00 0.  1.
</event>
<event>
 7    1  0.6988825E-006  0.9184923E+02  0.7561462E-02  0.1298434E+00
         -2   -1    0    0    0  501 -0.00000000000E+00  0.00000000000E+00  0.10019221391E+03  0.10019221391E+03  0.00000000000E+00 0.  1.
          2   -1    0    0  501    0  0.00000000000E+00 -0.00000000000E+00 -0.12737423303E+03  0.12737423303E+03  0.00000000000E+00 0. -1.
         23    2    1    2    0    0 -0.11987354678E+02  0.30209957237E+02 -0.40035172026E+02  0.97684293323E+02  0.82964257210E+02 0.  0.
          5    1    1    2  502    0 -0.13584338174E+02  0.41114863586E+02  0.29020293288E+02  0.52293556715E+02  0.41800000000E+01 0.  1.
         -5    1    1    2    0  502  0.25571692852E+02 -0.71324820823E+02 -0.16167140377E+02  0.77588596899E+02  0.41800000000E+01 0.  1.
        -11    1    3    3    0    0 -0.32139449993E+02  0.30282532205E+02  0.86458551430E+01  0.44996964495E+02  0.00000000000E+00 0.  1.
         11    1    3    3    0    0  0.20152095316E+02 -0.72574968794E-01 -0.48681027169E+02  0.52687328827E+02  0.00000000000E+00 0. -1.
</event>
<event>
 7    1  0.6988825E-006  0.1453839E+03  0.7561462E-02  0.1206263E+00
         -2   -1    0    0    0  501 -0.00000000000E+00  0.00000000000E+00  0.43674955807E+02  0.43674955807E+02  0.00000000000E+00 0.  1.
          2   -1    0    0  501    0  0.00000000000E+00 -0.00000000000E+00 -0.63416494563E+03  0.63416494563E+03  0.00000000000E+00 0. -1.
         23    2    1    2    0    0 -0.10445616119E+03 -0.57912943131E+02 -0.19831691754E+03  0.24922198314E+03  0.92287585860E+02 0.  0.
          5    1    1    2  502    0  0.57395212590E+02 -0.32914075046E+02 -0.20252654610E+03  0.21310096443E+03  0.41800000000E+01 0.  1.
         -5    1    1    2    0  502  0.47060948598E+02  0.90827018177E+02 -0.18964652619E+03  0.21551695388E+03  0.41800000000E+01 0.  1.
        -11    1    3    3    0    0 -0.72728774618E+02 -0.52989230311E+02 -0.62250409016E+02  0.10941867578E+03  0.00000000000E+00 0.  1.
         11    1    3    3    0    0 -0.31727386569E+02 -0.49237128197E+01 -0.13606650852E+03  0.13980330736E+03  0.00000000000E+00 0. -1.
</event>
<event>
 7    1  0.6988825E-006  0.1176200E+03  0.7561462E-02  0.1247076E+00
          1   -1    0    0  501    0  0.00000000000E+00  0.00000000000E+00  0.51079521463E+02  0.51079521463E+02  0.00000000000E+00 0. -1.
         -1   -1    0    0    0  501 -0.00000000000E+00 -0.00000000000E+00 -0.42236475447E+03  0.42236475447E+03  0.00000000000E+00 0.  1.
         23    2    1    2    0    0 -0.95559755037E+02 -0.41162573229E+01 -0.13464205887E+03  0.18919900383E+03  0.92299342775E+02 0.  0.
          5    1    1    2  502    0  0.62514275822E+02  0.31615637477E+02 -0.23009352117E+03  0.24055786019E+03  0.41800000000E+01 0.  1.
         -5    1    1    2    0  502  0.33045479215E+02 -0.27499380154E+02 -0.65496529638E+01  0.43687411910E+02  0.41800000000E+01 0.  1.
        -11    1    3    3    0    0 -0.14331823036E+01  0.23679397086E+02 -0.14694568031E+01  0.23768196422E+02  0.00000000000E+00 0. -1.
         11    1    3    3    0    0 -0.94126572733E+02 -0.27795654409E+02 -0.13317260206E+03  0.16543080741E+03  0.00000000000E+00 0.  1.
</event>
<event>
 7    1  0.6988825E-006  0.7395955E+02  0.7561462E-02  0.1347124E+00
          2   -1    0    0  501    0  0.00000000000E+00  0.00000000000E+00  0.43616166529E+03  0.43616166529E+03  0.00000000000E+00 0. -1.
         -2   -1    0    0    0  501 -0.00000000000E+00 -0.00000000000E+00 -0.39697657195E+02  0.39697657195E+02  0.00000000000E+00 0.  1.
         23    2    1    2    0    0 -0.69624285013E+01  0.28528668428E+02  0.65578125009E+02  0.12090044367E+03  0.97232023878E+02 0.  0.
          5    1    1    2  502    0 -0.53950808839E+01 -0.56458729023E+02  0.31535370065E+03  0.32044051538E+03  0.41800000000E+01 0.  1.
         -5    1    1    2    0  502  0.12357509385E+02  0.27930060594E+02  0.15532182430E+02  0.34518363432E+02  0.41800000000E+01 0.  1.
        -11    1    3    3    0    0 -0.14659101663E+02 -0.12015800630E+02 -0.18970969148E+02  0.26817277952E+02  0.00000000000E+00 0.  1.
         11    1    3    3    0    0  0.76966731618E+01  0.40544469059E+02  0.84549094158E+02  0.94083165720E+02  0.00000000000E+00 0. -1.
</event>
<event>
 7    1  0.6988825E-006  0.1576983E+03  0.7561462E-02  0.1191320E+00
          1   -1    0    0  501    0  0.00000000000E+00  0.00000000000E+00  0.82367790508E+03  0.82367790508E+03  0.00000000000E+00 0. -1.
         -1   -1    0    0    0  501 -0.00000000000E+00 -0.00000000000E+00 -0.37448948350E+02  0.37448948350E+02  0.00000000000E+00 0.  1.
         23    2    1    2    0    0  0.89748498609E+02  0.10144925614E+03  0.42950085250E+03  0.45956664696E+03  0.91562962616E+02 0.  0.
          5    1    1    2  502    0  0.22717482385E+02 -0.36482873699E+02  0.16048238946E+03  0.16619011344E+03  0.41800000000E+01 0. -1.
         -5    1    1    2    0  502 -0.11246598099E+03 -0.64966382438E+02  0.19624571477E+03  0.23537009303E+03  0.41800000000E+01 0. -1.
        -11    1    3    3    0    0  0.63253520750E+02  0.38698840669E+02  0.33480296086E+03  0.34291636117E+03  0.00000000000E+00 0. -1.
         11    1    3    3    0    0  0.26494977860E+02  0.62750415468E+02  0.94697891636E+02  0.11665028578E+03  0.00000000000E+00 0.  1.
</event>
<event>
 7    1  0.6988825E-006  0.9480201E+02  0.7561462E-02  0.1291623E+00
         -1   -1    0    0    0  501 -0.00000000000E+00  0.00000000000E+00  0.18904513060E+03  0.18904513060E+03  0.00000000000E+00 0.  1.
          1   -1    0    0  501    0  0.00000000000E+00 -0.00000000000E+00 -0.65527364964E+02  0.65527364964E+02  0.00000000000E+00 0. -1.
         23    2    1    2    0    0  0.13551345461E+02 -0.18882353079E+02  0.83971910622E+02  0.12491710606E+03  0.89514352995E+02 0.  0.
          5    1    1    2  502    0  0.48929162917E+02  0.25243325312E+02 -0.19686645281E+00  0.55215936223E+02  0.41800000000E+01 0. -1.
         -5    1    1    2    0  502 -0.62480508377E+02 -0.63609722336E+01  0.39742721469E+02  0.74439453279E+02  0.41800000000E+01 0.  1.
        -11    1    3    3    0    0 -0.26070531022E+02  0.29000813340E+01  0.74142949349E+02  0.78646423935E+02  0.00000000000E+00 0.  1.
         11    1    3    3    0    0  0.39621876483E+02 -0.21782434413E+02  0.98289612728E+01  0.46270682129E+02  0.00000000000E+00 0. -1.
</event>
<event>
 7    1  0.6988825E-006  0.9649010E+02  0.7561462E-02  0.1287855E+00
         -1   -1    0    0    0  501 -0.00000000000E+00  0.00000000000E+00  0.43074996494E+03  0.43074996494E+03  0.00000000000E+00 0.  1.
          1   -1    0    0  501    0  0.00000000000E+00 -0.00000000000E+00 -0.35822737052E+02  0.35822737052E+02  0.00000000000E+00 0. -1.
         23    2    1    2    0    0  0.25998326135E+02 -0.62811021652E+02  0.16252179727E+03  0.19782497648E+03  0.90001385163E+02 0.  0.
          5    1    1    2  502    0 -0.90178645824E+01  0.69494469263E+02  0.51973366625E+02  0.87347045618E+02  0.41800000000E+01 0. -1.
         -5    1    1    2    0  502 -0.16980461553E+02 -0.66834476118E+01  0.18043206399E+03  0.18140067989E+03  0.41800000000E+01 0.  1.
        -11    1    3    3    0    0  0.22394162759E+02 -0.81758641333E+02  0.15585683276E+03  0.17741850601E+03  0.00000000000E+00 0.  1.
         11    1    3    3    0    0  0.36041633767E+01  0.18947619681E+02  0.66649645106E+01  0.20406470473E+02  0.00000000000E+00 0. -1.
</event>
<event>
 7    1  0.6988825E-006  0.7859157E+02  0.7561462E-02  0.1333097E+00
          2   -1    0    0  501    0  0.00000000000E+00  0.00000000000E+00  0.25154834107E+03  0.25154834107E+03  0.00000000000E+00 0. -1.
         -2   -1    0    0    0  501 -0.00000000000E+00 -0.00000000000E+00 -0.55194015211E+02  0.55194015211E+02  0.00000000000E+00 0.  1.
         23    2    1    2    0    0 -0.11017951265E+02  0.36257763425E+02  0.32032120149E+02  0.10401212359E+03  0.91413590207E+02 0.  0.
          5    1    1    2  502    0 -0.45819992728E+02 -0.40851912880E+02  0.87396988831E+02  0.10688337839E+03  0.41800000000E+01 0. -1.
         -5    1    1    2    0  502  0.56837943993E+02  0.45941494554E+01  0.76925216876E+02  0.95846854294E+02  0.41800000000E+01 0.  1.
        -11    1    3    3    0    0 -0.10742285205E+02  0.24920817354E+02 -0.30288922544E+02  0.40667710261E+02  0.00000000000E+00 0.  1.
         11    1    3    3    0    0 -0.27566605995E+00  0.11336946071E+02  0.62321042693E+02  0.63344413332E+02  0.00000000000E+00 0. -1.
</event>
<event>
 7    1  0.6988825E-006  0.1103281E+03  0.7561462E-02  0.1259963E+00
          2   -1    0    0  501    0  0.00000000000E+00  0.00000000000E+00  0.45769536228E+03  0.45769536228E+03  0.00000000000E+00 0. -1.
         -2   -1    0    0    0  501 -0.00000000000E+00 -0.00000000000E+00 -0.33239685754E+02  0.33239685754E+02  0.00000000000E+00 0.  1.
         23    2    1    2    0    0  0.49408014735E+02  0.34553152115E+02  0.17963065822E+03  0.20947213767E+03  0.89310306504E+02 0.  0.
          5    1    1    2  502    0  0.20323048399E+02 -0.60672638443E+02  0.10651151208E+03  0.12432365003E+03  0.41800000000E+01 0.  1.
         -5    1    1    2    0  502 -0.69731063134E+02  0.26119486327E+02  0.13831350623E+03  0.15713926033E+03  0.41800000000E+01 0.  1.
        -11    1    3    3    0    0 -0.51548870020E+00  0.31959300495E+02  0.11343110620E+02  0.33916497096E+02  0.00000000000E+00 0.  1.
         11    1    3    3    0    0  0.49923503435E+02  0.25938516205E+01  0.16828754760E+03  0.17555564058E+03  0.00000000000E+00 0. -1.
</event>
<event>
 7    1  0.6988825E-006  0.6054704E+02  0.7561462E-02  0.1395550E+00
         -2   -1    0    0    0  501 -0.00000000000E+00  0.00000000000E+00  0.28916175231E+02  0.28916175231E+02  0.00000000000E+00 0. -1.
          2   -1    0    0  501    0  0.00000000000E+00 -0.00000000000E+00 -0.47308050746E+03  0.47308050746E+03  0.00000000000E+00 0.  1.
         23    2    1    2    0    0  0.10722360370E+02 -0.94031651508E+01 -0.94559663040E+02  0.13041275613E+03  0.88671125856E+02 0.  0.
          5    1    1    2  502    0  0.19927185090E+02  0.16399859200E+02 -0.63988648994E+01  0.26915905324E+02  0.41800000000E+01 0. -1.
         -5    1    1    2    0  502 -0.30649545461E+02 -0.69966940491E+01 -0.34320580429E+03  0.34466802124E+03  0.41800000000E+01 0. -1.
        -11    1    3    3    0    0 -0.19379527579E+02 -0.23109386055E+02 -0.92478167475E+02  0.97271893539E+02  0.00000000000E+00 0.  1.
         11    1    3    3    0    0  0.30101887949E+02  0.13706220904E+02 -0.20814955651E+01  0.33140862592E+02  0.00000000000E+00 0. -1.
</event>
<event>
 7    1  0.6988825E-006  0.1187957E+03  0.7561462E-02  0.1245097E+00
         -2   -1    0    0    0  501 -0.00000000000E+00  0.00000000000E+00  0.21376450140E+02  0.21376450140E+02  0.00000000000E+00 0.  1.
          2   -1    0    0  501    0  0.00000000000E+00 -0.00000000000E+00 -0.72930276244E+03  0.72930276244E+03  0.00000000000E+00 0. -1.
         23    2    1    2    0    0  0.16660439992E+02 -0.59466714041E+02 -0.31083381006E+03  0.32978767976E+03  0.91260045516E+02 0.  0.
          5    1    1    2  502    0 -0.90021392156E+01 -0.33233918579E+02 -0.19909486112E+03  0.20209346348E+03  0.41800000000E+01 0. -1.
         -5    1    1    2    0  502 -0.76583007760E+01  0.92700632620E+02 -0.19799764112E+03  0.21879806934E+03  0.41800000000E+01 0. -1.
        -11    1    3    3    0    0  0.54428523601E+02 -0.32557179831E+02 -0.19316139002E+03  0.20330705038E+03  0.00000000000E+00 0.  1.
         11    1    3    3    0    0 -0.37768083610E+02 -0.26909534210E+02 -0.11767242004E+03  0.12648062938E+03  0.00000000000E+00 0. -1.
</event>
<event>
 7    1  0.6988825E-006  0.9922350E+02  0.7561462E-02  0.1281937E+00
         -2   -1    0    0    0  501 -0.00000000000E+00  0.00000000000E+00  0.21480548379E+02  0.21480548379E+02  0.00000000000E+00 0. -1.
          2   -1    0    0  501    0  0.00000000000E+00 -0.00000000000E+00 -0.54971272191E+03  0.54971272191E+03  0.00000000000E+00 0.  1.
         23    2    1    2    0    0  0.58788312495E+01 -0.31183572115E+01 -0.20047260254E+03  0.22031057443E+03  0.91121896535E+02 0.  0.
          5    1    1    2  502    0 -0.33969321480E+02  0.54316623194E+02 -0.20611168531E+03  0.21587892342E+03  0.41800000000E+01 0. -1.
         -5    1    1    2    0  502  0.28090490230E+02 -0.51198265983E+02 -0.12164788568E+03  0.13500377243E+03  0.41800000000E+01 0. -1.
        -11    1    3    3    0    0 -0.24524198694E+02  0.24470465602E+02 -0.15593676868E+03  0.15973889894E+03  0.00000000000E+00 0.  1.
         11    1    3    3    0    0  0.30403029943E+02 -0.27588822814E+02 -0.44535833858E+02  0.60571675488E+02  0.00000000000E+00 0. -1.
</event>
<event>
 7    1  0.6988825E-006  0.1269903E+03  0.7561462E-02  0.1231991E+00
         -1   -1    0    0    0  501 -0.00000000000E+00  0.00000000000E+00  0.60755548365E+02  0.60755548365E+02  0.00000000000E+00 0.  1.
          1   -1    0    0  501    0  0.00000000000E+00 -0.00000000000E+00 -0.67397302320E+03  0.67397302320E+03  0.00000000000E+00 0. -1.
         23    2    1    2    0    0 -0.56961867751E+02 -0.89504587767E+02 -0.51148136702E+02  0.14921515065E+03  0.91614975228E+02 0.  0.
          5    1    1    2  502    0 -0.10597325069E+02  0.60036145504E+02 -0.97158078151E+02  0.11477720425E+03  0.41800000000E+01 0.  1.
         -5    1    1    2    0  502  0.67559192819E+02  0.29468442263E+02 -0.46491125999E+03  0.47073621667E+03  0.41800000000E+01 0.  1.
        -11    1    3    3    0    0 -0.33754388050E+02 -0.89699328005E+02 -0.70516270294E+02  0.11898685866E+03  0.00000000000E+00 0. -1.
         11    1    3    3    0    0 -0.23207479701E+02  0.19474023813E+00  0.19368133592E+02  0.30228291990E+02  0.00000000000E+00 0.  1.
</event>
<event>
 7    1  0.6988825E-006  0.2246426E+03  0.7561462E-02  0.1130468E+00
          4   -1    0    0  501    0  0.00000000000E+00  0.00000000000E+00  0.34576729748E+03  0.34576729748E+03  0.00000000000E+00 0. -1.
         -4   -1    0    0    0  501 -0.00000000000E+00 -0.00000000000E+00 -0.16383164406E+03  0.16383164406E+03  0.00000000000E+00 0.  1.
         23    2    1    2    0    0 -0.10135811157E+03 -0.89425762192E+02 -0.77497072520E+01  0.16843305256E+03  0.10019581581E+03 0.  0.
          5    1    1    2  502    0  0.75589964060E+02 -0.79688540048E+02  0.96798116640E+02  0.14646314849E+03  0.41800000000E+01 0. -1.
         -5    1    1    2    0  502  0.25768147513E+02  0.16911430224E+03  0.92887244029E+02  0.19470274048E+03  0.41800000000E+01 0.  1.
        -11    1    3    3    0    0 -0.10801612457E+03 -0.35182544525E+02 -0.47696391080E+01  0.11370155700E+03  0.00000000000E+00 0.  1.
         11    1    3    3    0    0  0.66580130001E+01 -0.54243217667E+02 -0.29800681441E+01  0.54731495559E+02  0.00000000000E+00 0. -1.
</event>
<event>
 7    1  0.6988825E-006  0.1235227E+03  0.7561462E-02  0.1237396E+00
         -2   -1    0    0    0  501 -0.00000000000E+00  0.00000000000E+00  0.16434909169E+02  0.16434909169E+02  0.00000000000E+00 0. -1.
          2   -1    0    0  501    0  0.00000000000E+00 -0.00000000000E+00 -0.17508623433E+04  0.17508623433E+04  0.00000000000E+00 0.  1.
         23    2    1    2    0    0  0.10925406740E+03  0.14127501616E+02 -0.44650251264E+03  0.46863503313E+03  0.90101403661E+02 0.  0.
          5    1    1    2  502    0 -0.74961517472E+02 -0.57633784693E+01 -0.12170172263E+04  0.12193444333E+04  0.41800000000E+01 0. -1.
         -5    1    1    2    0  502 -0.34292549929E+02 -0.83641231463E+01 -0.70907695243E+02  0.79317786034E+02  0.41800000000E+01 0. -1.
        -11    1    3    3    0    0  0.91341481855E+02 -0.23684162207E+02 -0.36525514697E+03  0.37724730382E+03  0.00000000000E+00 0.  1.
         11    1    3    3    0    0  0.17912585547E+02  0.37811663823E+02 -0.81247365664E+02  0.91387729315E+02  0.00000000000E+00 0. -1.
</event>
<event>
 7    1  0.6988825E-006  0.1984619E+03  0.7561462E-02  0.1151043E+00
          2   -1    0    0  501    0  0.00000000000E+00  0.00000000000E+00  0.13070438368E+03  0.13070438368E+03  0.00000000000E+00 0. -1.
         -2   -1    0    0    0  501 -0.00000000000E+00 -0.00000000000E+00 -0.47075069124E+03  0.47075069124E+03  0.00000000000E+00 0.  1.
         23    2    1    2    0    0 -0.10951412121E+03 -0.12920308556E+03 -0.33994705547E+03  0.39089765847E+03  0.92467285070E+02 0.  0.
          5    1    1    2  502    0  0.12943370613E+03  0.76731890052E+02 -0.17760221651E+02  0.15157099032E+03  0.41800000000E+01 0. -1.
         -5    1    1    2    0  502 -0.19919584922E+02  0.52471195510E+02  0.17660969556E+02  0.58986426128E+02  0.41800000000E+01 0. -1.
        -11    1    3    3    0    0 -0.42801373312E+02 -0.11389229531E+03 -0.18397779774E+03  0.22057026670E+03  0.00000000000E+00 0. -1.
         11    1    3    3    0    0 -0.66712747899E+02 -0.15310790248E+02 -0.15596925773E+03  0.17032739177E+03  0.00000000000E+00 0.  1.
</event>
<event>
 7    1  0.6988825E-006  0.2042212E+03  0.7561462E-02  0.1146226E+00
          1   -1    0    0  501    0  0.00000000000E+00  0.00000000000E+00  0.17024646971E+03  0.17024646971E+03  0.00000000000E+00 0. -1.
         -1   -1    0    0    0  501 -0.00000000000E+00 -0.00000000000E+00 -0.29525998211E+03  0.29525998211E+03  0.00000000000E+00 0.  1.
         23    2    1    2    0    0  0.14543381165E+03  0.97656283758E+02 -0.15057027287E+03  0.24873694649E+03  0.92254637539E+02 0.  0.
          5    1    1    2  502    0 -0.14570741967E+03 -0.32707782908E+02  0.92700680532E+01  0.14967918283E+03  0.41800000000E+01 0. -1.
         -5    1    1    2    0  502  0.27360801830E+00 -0.64948500851E+02  0.16286692417E+02  0.67090322506E+02  0.41800000000E+01 0. -1.
        -11    1    3    3    0    0  0.11723907733E+02  0.51032039427E+02 -0.64294988835E+02  0.82919024656E+02  0.00000000000E+00 0.  1.
         11    1    3    3    0    0  0.13370990392E+03  0.46624244331E+02 -0.86275284030E+02  0.16581792183E+03  0.00000000000E+00 0. -1.
</event>
<event>
 6    1  0.6988825E-006  0.8867389E+02  0.7561462E-02  0.1306095E+00
         -4   -1    0    0    0  501 -0.00000000000E+00  0.00000000000E+00  0.32302054308E+03  0.32302054308E+03  0.00000000000E+00 0.  1.
          4   -1    0    0  501    0  0.00000000000E+00 -0.00000000000E+00 -0.31161595525E+02  0.31161595525E+02  0.00000000000E+00 0. -1.
          5    1    1    2  502    0  0.72015570377E+01 -0.71909363896E+02  0.10100122146E+03  0.12426398584E+03  0.41800000000E+01 0. -1.
         -5    1    1    2    0  502  0.38929053163E+01  0.49007049446E+02  0.25866967038E+02  0.55708329637E+02  0.41800000000E+01 0. -1.
        -11    1    1    2    0    0  0.11680517939E+02  0.29648165445E+02  0.10333626100E+03  0.10813801853E+03  0.00000000000E+00 0. -1.
         11    1    1    2    0    0 -0.22774980293E+02 -0.67458509951E+01  0.61654498049E+02  0.66071804597E+02  0.00000000000E+00 0.  1.
</event>
<event>
 7    1  0.6988825E-006  0.1296231E+03  0.7561462E-02  0.1228016E+00
          1   -1    0    0  501    0  0.00000000000E+00  0.00000000000E+00  0.71192365035E+03  0.71192365035E+03  0.00000000000E+00 0. -1.
         -1   -1    0    0    0  501 -0.00000000000E+00 -0.00000000000E+00 -0.26349479872E+02  0.26349479872E+02  0.00000000000E+00 0.  1.
         23    2    1    2    0    0  0.41563374348E+02  0.69681571547E+02  0.35104975294E+03  0.37202594834E+03  0.92651722585E+02 0.  0.
          5    1    1    2  502    0 -0.67587192087E+01  0.36452664987E+02  0.86083943676E+02  0.93821078809E+02  0.41800000000E+01 0. -1.
         -5    1    1    2    0  502 -0.34804655140E+02 -0.10613423653E+03  0.24844047386E+03  0.27242610308E+03  0.41800000000E+01 0. -1.
        -11    1    3    3    0    0 -0.20472661103E+02  0.30689697904E+02  0.20859039693E+03  0.21182762120E+03  0.00000000000E+00 0. -1.
         11    1    3    3    0    0  0.62036035451E+02  0.38991873643E+02  0.14245935601E+03  0.16019832714E+03  0.00000000000E+00 0.  1.
</event>
<event>
 7    1  0.6988825E-006  0.6975852E+02  0.7561462E-02  0.1360916E+00
          4   -1    0    0  501    0  0.00000000000E+00  0.00000000000E+00  0.10964795491E+03  0.10964795491E+03  0.00000000000E+00 0. -1.
         -4   -1    0    0    0  501 -0.00000000000E+00 -0.00000000000E+00 -0.13832372139E+03  0.13832372139E+03  0.00000000000E+00 0.  1.
         23    2    1    2    0    0  0.48396092637E+02 -0.64641616861E+01 -0.43244616505E+02  0.11289700747E+03  0.92150259198E+02 0.  0.
          5    1    1    2  502    0  0.69664000008E+01 -0.22845302073E+02  0.55201149195E+02  0.60291606615E+02  0.41800000000E+01 0. -1.
         -5    1    1    2    0  502 -0.55362492638E+02  0.29309463759E+02 -0.40632299170E+02  0.74783062205E+02  0.41800000000E+01 0. -1.
        -11    1    3    3    0    0  0.23929765373E+02 -0.12906328104E+02  0.26950067092E+02  0.38282020482E+02  0.00000000000E+00 0. -1.
         11    1    3    3    0    0  0.24466327264E+02  0.64421664178E+01 -0.70194683597E+02  0.74614986988E+02  0.00000000000E+00 0.  1.
</event>
<event>
 7    1  0.6988825E-006  0.1041021E+03  0.7561462E-02  0.1271899E+00
         -2   -1    0    0    0  501 -0.00000000000E+00  0.00000000000E+00  0.20086638070E+03  0.20086638070E+03  0.00000000000E+00 0.  1.
          2   -1    0    0  501    0  0.00000000000E+00 -0.00000000000E+00 -0.98760463363E+02  0.98760463363E+02  0.00000000000E+00 0. -1.
         23    2    1    2    0    0  0.76170732423E+02  0.31957219381E+02  0.83139702630E+02  0.14852932886E+03  0.91244216410E+02 0.  0.
          5    1    1    2  502    0 -0.56680058719E+01 -0.48102567297E+02 -0.35719466956E+02  0.60326909342E+02  0.41800000000E+01 0.  1.
         -5    1    1    2    0  502 -0.70502726552E+02  0.16145347916E+02  0.54685681663E+02  0.90770605867E+02  0.41800000000E+01 0.  1.
        -11    1    3    3    0    0  0.49232789979E+02  0.57671214955E+01  0.96636084513E+02  0.10860782720E+03  0.00000000000E+00 0.  1.
         11    1    3    3    0    0  0.26937942445E+02  0.26190097886E+02 -0.13496381882E+02  0.39921501654E+02  0.00000000000E+00 0. -1.
</event>
<event>
 7    1  0.6988825E-006  0.1238520E+03  0.7561462E-02  0.1236874E+00
          2   -1    0    0  501    0  0.00000000000E+00  0.00000000000E+00  0.10471825002E+04  0.10471825002E+04  0.00000000000E+00 0. -1.
         -2   -1    0    0    0  501 -0.00000000000E+00 -0.00000000000E+00 -0.23664588990E+02  0.23664588990E+02  0.00000000000E+00 0.  1.
         23    2    1    2    0    0 -0.10069118953E+03  0.30630430438E+02  0.31815343993E+03  0.34678682000E+03  0.89233111969E+02 0.  0.
          5    1    1    2  502    0  0.95924444292E+02 -0.18435435579E+02  0.24925973317E+03  0.26774848511E+03  0.41800000000E+01 0.  1.
         -5    1    1    2    0  502  0.47667452418E+01 -0.12194994859E+02  0.45610473815E+03  0.45631178412E+03  0.41800000000E+01 0.  1.
        -11    1    3    3    0    0 -0.93802092279E+02 -0.10590011799E+02  0.24469693095E+03  0.26227384331E+03  0.00000000000E+00 0. -1.
         11    1    3    3    0    0 -0.68890972548E+01  0.41220442237E+02  0.73456508978E+02  0.84512976698E+02  0.00000000000E+00 0.  1.
</event>
<event>
 7    1  0.6988825E-006  0.1012245E+03  0.7561462E-02  0.1277742E+00
          1   -1    0    0  501    0  0.00000000000E+00  0.00000000000E+00  0.12935894767E+04  0.12935894767E+04  0.00000000000E+00 0. -1.
         -1   -1    0    0    0  501 -0.00000000000E+00 -0.00000000000E+00 -0.95485729311E+01  0.95485729311E+01  0.00000000000E+00 0.  1.
         23    2    1    2    0    0 -0.69274582572E+01 -0.76384744222E+01  0.39320170162E+03  0.40349995077E+03  0.89990533657E+02 0.  0.
          5    1    1    2  502    0 -0.10357291879E+02 -0.52057311573E+02  0.24050482037E+03  0.24632758311E+03  0.41800000000E+01 0.  1.
         -5    1    1    2    0  502  0.17284750136E+02  0.59695785995E+02  0.65033438175E+03  0.65331051571E+03  0.41800000000E+01 0.  1.
        -11    1    3    3    0    0 -0.24892364090E+02 -0.41611292420E+02  0.27397377642E+03  0.27823148566E+03  0.00000000000E+00 0. -1.
         11    1    3    3    0    0  0.17964905833E+02  0.33972817997E+02  0.11922792520E+03  0.12526846511E+03  0.00000000000E+00 0.  1.
</event>
<event>
 7    1  0.6988825E-006  0.6272394E+02  0.7561462E-02  0.1386744E+00
         -1   -1    0    0    0  501 -0.00000000000E+00  0.00000000000E+00  0.30387527370E+02  0.30387527370E+02  0.00000000000E+00 0.  1.
          1   -1    0    0  501    0  0.00000000000E+00 -0.00000000000E+00 -0.42987847613E+03  0.42987847613E+03  0.00000000000E+00 0. -1.
         23    2    1    2    0    0  0.14209162055E+02 -0.23017745518E+02 -0.22114026965E+03  0.24074755874E+03  0.91239526979E+02 0.  0.
          5    1    1    2  502    0 -0.38205663784E+01  0.17041524213E+02 -0.19652872991E+03  0.19734747111E+03  0.41800000000E+01 0. -1.
         -5    1    1    2    0  502 -0.10388595677E+02  0.59762213047E+01  0.18178050804E+02  0.22170973642E+02  0.41800000000E+01 0. -1.
        -11    1    3    3    0    0 -0.19137657704E+02 -0.48947290430E+02 -0.11199675039E+03  0.12371483048E+03  0.00000000000E+00 0. -1.
         11    1    3    3    0    0  0.33346819759E+02  0.25929544913E+02 -0.10914351926E+03  0.11703272826E+03  0.00000000000E+00 0.  1.
</event>
<event>
 7    1  0.6988825E-006  0.8896470E+02  0.7561462E-02  0.1305378E+00
         -2   -1    0    0    0  501 -0.00000000000E+00  0.00000000000E+00  0.20569775263E+03  0.20569775263E+03  0.00000000000E+00 0.  1.
          2   -1    0    0  501    0  0.00000000000E+00 -0.00000000000E+00 -0.14559597907E+03  0.14559597907E+03  0.00000000000E+00 0. -1.
         23    2    1    2    0    0  0.43650884001E+02 -0.25937798718E+02  0.15460155040E+03  0.18649874061E+03  0.91115156720E+02 0.  0.
          5    1    1    2  502    0 -0.50491821724E+02  0.57288844881E+00  0.14415162500E+02  0.52678473517E+02  0.41800000000E+01 0. -1.
         -5    1    1    2    0  502  0.68409377231E+01  0.25364910269E+02 -0.10891493934E+03  0.11211651758E+03  0.41800000000E+01 0. -1.
        -11    1    3    3    0    0  0.47847720793E+02  0.21912011187E+02  0.10500719857E+03  0.11745659782E+03  0.00000000000E+00 0.  1.
         11    1    3    3    0    0 -0.41968367923E+01 -0.47849809905E+02  0.49594351833E+02  0.69042142788E+02  0.00000000000E+00 0. -1.
</event>
<event>
 7    1  0.6988825E-006  0.2106117E+03  0.7561462E-02  0.1141082E+00
         -2   -1    0    0    0  501 -0.00000000000E+00  0.00000000000E+00  0.91743710027E+02  0.91743710027E+02  0.00000000000E+00 0.  1.
          2   -1    0    0  501    0  0.00000000000E+00 -0.00000000000E+00 -0.60586896012E+03  0.60586896012E+03  0.00000000000E+00 0. -1.
         23    2    1    2    0    0 -0.19109623065E+03  0.31197543306E+02 -0.13176135083E+03  0.25113683700E+03  0.90650985928E+02 0.  0.
          5    1    1    2  502    0  0.19520309481E+03 -0.51677212021E+02 -0.30182414071E+03  0.36316672036E+03  0.41800000000E+01 0. -1.
         -5    1    1    2    0  502 -0.41068641686E+01  0.20479668715E+02 -0.80539758564E+02  0.83309112788E+02  0.41800000000E+01 0. -1.
        -11    1    3    3    0    0 -0.22802323421E+02 -0.96670296000E+01 -0.57681743462E+02  0.62774046735E+02  0.00000000000E+00 0. -1.
         11    1    3    3    0    0 -0.16829390723E+03  0.40864572906E+02 -0.74079607365E+02  0.18836279026E+03  0.00000000000E+00 0.  1.
</event>
<event>
 7    1  0.6988825E-006  0.7783920E+02  0.7561462E-02  0.1335298E+00
          2   -1    0    0  501    0  0.00000000000E+00  0.00000000000E+00  0.36351446834E+03  0.36351446834E+03  0.00000000000E+00 0. -1.
         -2   -1    0    0    0  501 -0.00000000000E+00 -0.00000000000E+00 -0.40941426472E+02  0.40941426472E+02  0.00000000000E+00 0.  1.
         23    2    1    2    0    0 -0.29609036850E+02  0.62449619345E+01  0.61548188559E+02  0.11343050957E+03  0.90347143694E+02 0.  0.
          5    1    1    2  502    0 -0.59462215361E+01 -0.40595027962E+02  0.22735500936E+03  0.23106511317E+03  0.41800000000E+01 0. -1.
         -5    1    1    2    0  502  0.35555258386E+02  0.34350066027E+02  0.33669843956E+02  0.59960272073E+02  0.41800000000E+01 0. -1.
        -11    1    3    3    0    0 -0.31289237834E+02 -0.20899458325E+02 -0.82500417227E+01  0.38520993639E+02  0.00000000000E+00 0.  1.
         11    1    3    3    0    0  0.16802009843E+01  0.27144420260E+02  0.69798230281E+02  0.74909515931E+02  0.00000000000E+00 0. -1.
</event>
<event>
 7    1  0.6988825E-006  0.7743734E+02  0.7561462E-02  0.1336485E+00
          2   -1    0    0  501    0  0.00000000000E+00  0.00000000000E+00  0.53868665040E+03  0.53868665040E+03  0.00000000000E+00 0. -1.
         -2   -1    0    0    0  501 -0.00000000000E+00 -0.00000000000E+00 -0.26131252983E+02  0.26131252983E+02  0.00000000000E+00 0.  1.
         23    2    1    2    0    0  0.41849330189E+02  0.88149257243E+00  0.17992906768E+03  0.20699192667E+03  0.93375825791E+02 0.  0.
          5    1    1    2  502    0 -0.43067305057E+02  0.67536667180E+01  0.25707699599E+02  0.50781522207E+02  0.41800000000E+01 0.  1.
         -5    1    1    2    0  502  0.12179748678E+01 -0.76351592905E+01  0.30691863013E+03  0.30704445451E+03  0.41800000000E+01 0.  1.
        -11    1    3    3    0    0  0.14108238862E+02  0.46669726023E+02  0.88542874960E+02  0.10107891193E+03  0.00000000000E+00 0. -1.
         11    1    3    3    0    0  0.27741091327E+02 -0.45788233450E+02  0.91386192723E+02  0.10591301474E+03  0.00000000000E+00 0.  1.
</event>
<event>
 7    1  0.6988825E-006  0.7314169E+02  0.7561462E-02  0.1349724E+00
         -2   -1    0    0    0  501 -0.00000000000E+00  0.00000000000E+00  0.47327081034E+02  0.47327081034E+02  0.00000000000E+00 0.  1.
          2   -1    0    0  501    0  0.00000000000E+00 -0.00000000000E+00 -0.33686049318E+03  0.33686049318E+03  0.00000000000E+00 0. -1.
         23    2    1    2    0    0 -0.51489761836E+02  0.28814962855E+02 -0.84827716805E+02  0.13713801261E+03  0.90164268459E+02 0.  0.
          5    1    1    2  502    0  0.46662500651E+02  0.99639442302E+01 -0.20206020273E+03  0.20765949792E+03  0.41800000000E+01 0.  1.
         -5    1    1    2    0  502  0.48272611857E+01 -0.38778907085E+02 -0.26454926111E+01  0.39390063676E+02  0.41800000000E+01 0.  1.
        -11    1    3    3    0    0 -0.14293209326E+02  0.64362453463E+01  0.18981853936E+02  0.24617714473E+02  0.00000000000E+00 0.  1.
         11    1    3    3    0    0 -0.37196552510E+02  0.22378717508E+02 -0.10380957074E+03  0.11252029814E+03  0.00000000000E+00 0. -1.
</event>
<event>
 7    1  0.6988825E-006  0.1344172E+03  0.7561462E-02  0.1221045E+00
          2   -1    0    0  501    0  0.00000000000E+00  0.00000000000E+00  0.26971140945E+03  0.26971140945E+03  0.00000000000E+00 0. -1.
         -2   -1    0    0    0  501 -0.00000000000E+00 -0.00000000000E+00 -0.94324699986E+02  0.94324699986E+02  0.00000000000E+00 0.  1.
         23    2    1    2    0    0  0.59585164905E+02 -0.61841079046E+02 -0.11820216945E+02  0.12351372233E+03  0.87984152779E+02 0.  0.
          5    1    1    2  502    0 -0.95265119032E+02  0.62746979806E+02  0.13040487034E+03  0.17330761376E+03  0.41800000000E+01 0. -1.
         -5    1    1    2    0  502  0.35679954127E+02 -0.90590075995E+00  0.56802056072E+02  0.67214773351E+02  0.41800000000E+01 0. -1.
        -11    1    3    3    0    0 -0.13246790432E+02 -0.40863141416E+02  0.11032035519E+02  0.44350643635E+02  0.00000000000E+00 0. -1.
         11    1    3    3    0    0  0.72831955337E+02 -0.20977937630E+02 -0.22852252464E+02  0.79163078692E+02  0.00000000000E+00 0.  1.
</event>
<event>
 7    1  0.6988825E-006  0.9359791E+02  0.7561462E-02  0.1294366E+00
          1   -1    0    0  501    0  0.00000000000E+00  0.00000000000E+00  0.36974789054E+02  0.36974789054E+02  0.00000000000E+00 0. -1.
         -1   -1    0    0    0  501 -0.00000000000E+00 -0.00000000000E+00 -0.43403042029E+03  0.43403042029E+03  0.00000000000E+00 0.  1.
         23    2    1    2    0    0  0.59875898669E+02 -0.26635851651E+02 -0.17815228533E+03  0.21049671979E+03  0.90972745598E+02 0.  0.
          5    1    1    2  502    0 -0.76868049747E+02  0.19198557834E+02 -0.22653015797E+03  0.24002222098E+03  0.41800000000E+01 0.  1.
         -5    1    1    2    0  502  0.16992151078E+02  0.74372938172E+01  0.76268120632E+01  0.20486268567E+02  0.41800000000E+01 0.  1.
        -11    1    3    3    0    0  0.10189990946E+02  0.18883827040E+02 -0.11873137922E+03  0.12065477715E+03  0.00000000000E+00 0.  1.
         11    1    3    3    0    0  0.49685907723E+02 -0.45519678691E+02 -0.59420906112E+02  0.89841942641E+02  0.00000000000E+00 0. -1.
</event>
<event>
 7    1  0.6988825E-006  0.1356906E+03  0.7561462E-02  0.1219248E+00
          1   -1    0    0  501    0  0.00000000000E+00  0.00000000000E+00  0.76689720543E+03  0.76689720543E+03  0.00000000000E+00 0. -1.
         -1   -1    0    0    0  501 -0.00000000000E+00 -0.00000000000E+00 -0.27364833344E+02  0.27364833344E+02  0.00000000000E+00 0.  1.
         23    2    1    2    0    0 -0.76336149892E+02  0.40630540571E+02  0.23074584536E+03  0.26324636656E+03  0.92611855321E+02 0.  0.
          5    1    1    2  502    0 -0.25399425022E+02 -0.34122213713E+02  0.23458117551E+03  0.23844340327E+03  0.41800000000E+01 0. -1.
         -5    1    1    2    0  502  0.10173557491E+03 -0.65083268584E+01  0.27420535122E+03  0.29257226895E+03  0.41800000000E+01 0. -1.
        -11    1    3    3    0    0 -0.18692775231E+02  0.62287536687E+02  0.11331815052E+03  0.13065282358E+03  0.00000000000E+00 0. -1.
         11    1    3    3    0    0 -0.57643374660E+02 -0.21656996115E+02  0.11742769484E+03  0.13259354298E+03  0.00000000000E+00 0.  1.
</event>
<event>
 7    1  0.6988825E-006  0.1739646E+03  0.7561462E-02  0.1173775E+00
         -1   -1    0    0    0  501 -0.00000000000E+00  0.00000000000E+00  0.60317224206E+03  0.60317224206E+03  0.00000000000E+00 0.  1.
          1   -1    0    0  501    0  0.00000000000E+00 -0.00000000000E+00 -0.61013292500E+02  0.61013292500E+02  0.00000000000E+00 0. -1.
         23    2    1    2    0    0  0.58837883920E+02  0.13697511391E+03  0.34733596527E+03  0.38881779691E+03  0.91175259845E+02 0.  0.
          5    1    1    2  502    0 -0.92359026182E-01 -0.10917013748E+03  0.17673302057E+03  0.20777430160E+03  0.41800000000E+01 0.  1.
         -5    1    1    2    0  502 -0.58745524894E+02 -0.27804976435E+02  0.18089963721E+02  0.67593436050E+02  0.41800000000E+01 0.  1.
        -11    1    3    3    0    0 -0.23860226900E+02  0.31890358819E+02  0.61833988225E+02  0.73550985807E+02  0.00000000000E+00 0.  1.
         11    1    3    3    0    0  0.82698110820E+02  0.10508475509E+03  0.28550197705E+03  0.31526681110E+03  0.00000000000E+00 0. -1.
</event>
<event>
 7    1  0.6988825E-006  0.8636008E+02  0.7561462E-02  0.1311914E+00
         -4   -1    0    0    0  501 -0.00000000000E+00  0.00000000000E+00  0.13051880899E+03  0.13051880899E+03  0.00000000000E+00 0. -1.
          4   -1    0    0  501    0  0.00000000000E+00 -0.00000000000E+00 -0.13365804394E+03  0.13365804394E+03  0.00000000000E+00 0.  1.
         23    2    1    2    0    0  0.18237353650E+02 -0.73372160966E+02 -0.85858561216E+01  0.11790860636E+03  0.90070236236E+02 0.  0.
          5    1    1    2  502    0  0.87569360642E+01 -0.57525496062E+01  0.50128634171E+02  0.51382177066E+02  0.41800000000E+01 0.  1.
         -5    1    1    2    0  502 -0.26994289714E+02  0.79124710573E+02 -0.44682013002E+02  0.94886069506E+02  0.41800000000E+01 0.  1.
        -11    1    3    3    0    0 -0.25208890755E+01 -0.24571093745E+02  0.39325250280E+02  0.46438872070E+02  0.00000000000E+00 0. -1.
         11    1    3    3    0    0  0.20758242725E+02 -0.48801067221E+02 -0.47911106402E+02  0.71469734291E+02  0.00000000000E+00 0.  1.
</event>
<event>
 7    1  0.6988825E-006  0.9624154E+02  0.7561462E-02  0.1288404E+00
         -2   -1    0    0    0  501 -0.00000000000E+00  0.00000000000E+00  0.13401615468E+03  0.13401615468E+03  0.00000000000E+00 0.  1.
          2   -1    0    0  501    0  0.00000000000E+00 -0.00000000000E+00 -0.11418506639E+03  0.11418506639E+03  0.00000000000E+00 0. -1.
         23    2    1    2    0    0 -0.56738258314E+02 -0.17088377337E+02  0.25334347428E+02  0.10966907067E+03  0.88736876804E+02 0.  0.
          5    1    1    2  502    0 -0.18694636588E+02  0.27669604992E+02 -0.42119889666E+02  0.53913393356E+02  0.41800000000E+01 0. -1.
         -5    1    1    2    0  502  0.75432894902E+02 -0.10581227655E+02  0.36616630537E+02  0.84618757045E+02  0.41800000000E+01 0. -1.
        -11    1    3    3    0    0 -0.33845257034E+02  0.19738795738E+02  0.47004792209E+02  0.61192907853E+02  0.00000000000E+00 0. -1.
         11    1    3    3    0    0 -0.22893001280E+02 -0.36827173075E+02 -0.21670444781E+02  0.48476162815E+02  0.00000000000E+00 0.  1.
</event>
<event>
 7    1  0.6988825E-006  0.1281411E+03  0.7561462E-02  0.1230240E+00
          1   -1    0    0  501    0  0.00000000000E+00  0.00000000000E+00  0.12325886359E+04  0.12325886359E+04  0.00000000000E+00 0. -1.
         -1   -1    0    0    0  501 -0.00000000000E+00 -0.00000000000E+00 -0.18544039291E+02  0.18544039291E+02  0.00000000000E+00 0.  1.
         23    2    1    2    0    0 -0.66795285817E+01  0.82353709144E+02  0.29909457366E+03  0.32398180777E+03  0.93165971603E+02 0.  0.
          5    1    1    2  502    0  0.35645449969E+02 -0.94022844349E+02  0.83768773511E+03  0.84371150716E+03  0.41800000000E+01 0.  1.
         -5    1    1    2    0  502 -0.28965921387E+02  0.11669135204E+02  0.77262287895E+02  0.83439360311E+02  0.41800000000E+01 0.  1.
        -11    1    3    3    0    0 -0.47789615203E+02  0.61949827156E+02  0.17590344866E+03  0.19251922413E+03  0.00000000000E+00 0.  1.
         11    1    3    3    0    0  0.41110086621E+02  0.20403881988E+02  0.12319112499E+03  0.13146258365E+03  0.00000000000E+00 0. -1.
</event>
<event>
 7    1  0.6988825E-006  0.1156206E+03  0.7561462E-02  0.1250502E+00
         -2   -1    0    0    0  501 -0.00000000000E+00  0.00000000000E+00  0.75354920278E+02  0.75354920278E+02  0.00000000000E+00 0.  1.
          2   -1    0    0  501    0  0.00000000000E+00 -0.00000000000E+00 -0.21228064723E+03  0.21228064723E+03  0.00000000000E+00 0. -1.
         23    2    1    2    0    0 -0.50989593540E+02  0.17134049289E+02 -0.78691963706E+02  0.13954059171E+03  0.10190994696E+03 0.  0.
          5    1    1    2  502    0  0.41984369203E+02 -0.63012199745E+02 -0.65981331708E+02  0.10051981451E+03  0.41800000000E+01 0. -1.
         -5    1    1    2    0  502  0.90052243368E+01  0.45878150456E+02  0.77475684658E+01  0.47575161290E+02  0.41800000000E+01 0. -1.
        -11    1    3    3    0    0 -0.58778387315E+02 -0.26261894392E+02 -0.22677075747E+02  0.68255664064E+02  0.00000000000E+00 0.  1.
         11    1    3    3    0    0  0.77887937751E+01  0.43395943681E+02 -0.56014887959E+02  0.71284927646E+02  0.00000000000E+00 0. -1.
</event>
<event>
 7    1  0.6988825E-006  0.1866236E+03  0.7561462E-02  0.1161542E+00
          2   -1    0    0  501    0  0.00000000000E+00  0.00000000000E+00  0.38008319585E+02  0.38008319585E+02  0.00000000000E+00 0. -1.
         -2   -1    0    0    0  501 -0.00000000000E+00 -0.00000000000E+00 -0.11492633073E+04  0.11492633073E+04  0.00000000000E+00 0.  1.
         23    2    1    2    0    0  0.54934466583E+02 -0.15593723778E+03 -0.74748179732E+03  0.77089015053E+03  0.90600050293E+02 0.  0.
          5    1    1    2  502    0  0.85261229281E+01 -0.16343232088E+02 -0.31493068235E+02  0.36729848272E+02  0.41800000000E+01 0. -1.
         -5    1    1    2    0  502 -0.63460589512E+02  0.17228046987E+03 -0.33228012214E+03  0.37965162806E+03  0.41800000000E+01 0.  1.
        -11    1    3    3    0    0  0.29568308303E+02 -0.13381755856E+03 -0.69613262324E+03  0.70949422336E+03  0.00000000000E+00 0. -1.
         11    1    3    3    0    0  0.25366158280E+02 -0.22119679224E+02 -0.51349174073E+02  0.61395927168E+02  0.00000000000E+00 0.  1.
</event>
<event>
 7    1  0.6988825E-006  0.9049186E+02  0.7561462E-02  0.1301665E+00
          1   -1    0    0  501    0  0.00000000000E+00  0.00000000000E+00  0.26147976528E+03  0.26147976528E+03  0.00000000000E+00 0. -1.
         -1   -1    0    0    0  501 -0.00000000000E+00 -0.00000000000E+00 -0.54430758100E+02  0.54430758100E+02  0.00000000000E+00 0.  1.
         23    2    1    2    0    0  0.31112239560E+02  0.94548742121E+01  0.51576173115E+02  0.11372822807E+03  0.96003344363E+02 0.  0.
          5    1    1    2  502    0 -0.87498917036E+01 -0.41419603221E+02  0.73276727947E+00  0.42545898553E+02  0.41800000000E+01 0.  1.
         -5    1    1    2    0  502 -0.22362347856E+02  0.31964729009E+02  0.15474006678E+03  0.15963639676E+03  0.41800000000E+01 0.  1.
        -11    1    3    3    0    0  0.64642684093E+02  0.10884106998E+01  0.44407754132E+02  0.78434111658E+02  0.00000000000E+00 0. -1.
         11    1    3    3    0    0 -0.33530444533E+02  0.83664635123E+01  0.71684189832E+01  0.35294116407E+02  0.00000000000E+00 0.  1.
</event>
<event>
 7    1  0.6988825E-006  0.8961942E+02  0.7561462E-02  0.1303776E+00
         -2   -1    0    0    0  501 -0.00000000000E+00  0.00000000000E+00  0.98741898226E+02  0.98741898226E+02  0.00000000000E+00 0.  1.
          2   -1    0    0  501    0  0.00000000000E+00 -0.00000000000E+00 -0.13673920702E+03  0.13673920702E+03  0.00000000000E+00 0. -1.
         23    2    1    2    0    0 -0.25666698519E+02 -0.67975273245E+01  0.38001190217E+01  0.10094823618E+03  0.97319677834E+02 0.  0.
          5    1    1    2  502    0  0.59754564240E+02 -0.38265443303E+02 -0.20154208033E+02  0.73881774479E+02  0.41800000000E+01 0. -1.
         -5    1    1    2    0  502 -0.34087865721E+02  0.45062970628E+02 -0.21643219779E+02  0.60651094579E+02  0.41800000000E+01 0. -1.
        -11    1    3    3    0    0  0.12660927919E+02 -0.59505429244E+00 -0.40268172412E+02  0.42215860701E+02  0.00000000000E+00 0. -1.
         11    1    3    3    0    0 -0.38327626437E+02 -0.62024730321E+01  0.44068291434E+02  0.58732375483E+02  0.00000000000E+00 0.  1.
</event>
<event>
 7    1  0.6988825E-006  0.8068608E+02  0.7561462E-02  0.1327116E+00
          1   -1    0    0  501    0  0.00000000000E+00  0.00000000000E+00  0.38427510015E+03  0.38427510015E+03  0.00000000000E+00 0. -1.
         -1   -1    0    0    0  501 -0.00000000000E+00 -0.00000000000E+00 -0.46553620916E+02  0.46553620916E+02  0.00000000000E+00 0.  1.
         23    2    1    2    0    0  0.49524707087E+02  0.11456507346E+02  0.69054470258E+02  0.13014036020E+03  0.97898137456E+02 0.  0.
          5    1    1    2  502    0 -0.78402666591E+01  0.37518913779E+02  0.19280271647E+02  0.43108467234E+02  0.41800000000E+01 0. -1.
         -5    1    1    2    0  502 -0.41684440428E+02 -0.48975421126E+02  0.24938673733E+03  0.25757989364E+03  0.41800000000E+01 0. -1.
        -11    1    3    3    0    0  0.14085793375E+02  0.17448762099E+02 -0.22510374953E+02  0.31773980776E+02  0.00000000000E+00 0.  1.
         11    1    3    3    0    0  0.35438913712E+02 -0.59922547529E+01  0.91564845212E+02  0.98366379423E+02  0.00000000000E+00 0. -1.
</event>
<event>
 7    1  0.6988825E-006  0.1464364E+03  0.7561462E-02  0.1204922E+00
          4   -1    0    0  501    0  0.00000000000E+00  0.00000000000E+00  0.23541079660E+03  0.23541079660E+03  0.00000000000E+00 0. -1.
         -4   -1    0    0    0  501 -0.00000000000E+00 -0.00000000000E+00 -0.12961482260E+03  0.12961482260E+03  0.00000000000E+00 0.  1.
         23    2    1    2    0    0 -0.89692155228E+02  0.80046064867E+02 -0.18151639774E+02  0.15180458031E+03  0.90901558665E+02 0.  0.
          5    1    1    2  502    0 -0.78771986769E+01 -0.63525152144E+02  0.14801397701E+02  0.65833494422E+02  0.41800000000E+01 0.  1.
         -5    1    1    2    0  502  0.97569353905E+02 -0.16520912723E+02  0.10914621608E+03  0.14738754447E+03  0.41800000000E+01 0.  1.
        -11    1    3    3    0    0 -0.80692591457E+02  0.42760854385E+02 -0.48031842507E+02  0.10318353976E+03  0.00000000000E+00 0.  1.
         11    1    3    3    0    0 -0.89995637714E+01  0.37285210482E+02  0.29880202733E+02  0.48621040549E+02  0.00000000000E+00 0. -1.
</event>
<event>
 7    1  0.6988825E-006  0.8228324E+02  0.7561462E-02  0.1322694E+00
         -2   -1    0    0    0  501 -0.00000000000E+00  0.00000000000E+00  0.10787847003E+02  0.10787847003E+02  0.00000000000E+00 0.  1.
          2   -1    0    0  501    0  0.00000000000E+00 -0.00000000000E+00 -0.12363263034E+04  0.12363263034E+04  0.00000000000E+00 0. -1.
         23    2    1    2    0    0 -0.31080945826E+02 -0.11817913131E+02 -0.40941286304E+03  0.42078858522E+03  0.91315128918E+02 0.  0.
          5    1    1    2  502    0  0.48506280147E+02  0.74195201575E+01 -0.80087364114E+03  0.80238642185E+03  0.41800000000E+01 0.  1.
         -5    1    1    2    0  502 -0.17425334321E+02  0.43983929739E+01 -0.15251952217E+02  0.23939143330E+02  0.41800000000E+01 0.  1.
        -11    1    3    3    0    0  0.30811001194E+02 -0.16217830068E+02 -0.13130639119E+03  0.13584441164E+03  0.00000000000E+00 0.  1.
         11    1    3    3    0    0 -0.61891947020E+02  0.43999169361E+01 -0.27810647185E+03  0.28494417359E+03  0.00000000000E+00 0. -1.
</event>
<event>
 7    1  0.6988825E-006  0.2129782E+03  0.7561462E-02  0.1139229E+00
          2   -1    0    0  501    0  0.00000000000E+00  0.00000000000E+00  0.14056200425E+03  0.14056200425E+03  0.00000000000E+00 0.  1.
         -2   -1    0    0    0  501 -0.00000000000E+00 -0.00000000000E+00 -0.43886805189E+03  0.43886805189E+03  0.00000000000E+00 0. -1.
         23    2    1    2    0    0 -0.20183690851E+03 -0.15927071759E+02 -0.25323144578E+03  0.33720861109E+03  0.92691277949E+02 0.  0.
          5    1    1    2  502    0  0.11585700782E+03 -0.19987023055E+01  0.37233052714E+02  0.12178100708E+03  0.41800000000E+01 0. -1.
         -5    1    1    2    0  502  0.85979900690E+02  0.17925774065E+02 -0.82307654576E+02  0.12044043798E+03  0.41800000000E+01 0. -1.
        -11    1    3    3    0    0 -0.89198426420E+02  0.38291953469E+02 -0.98554856556E+02  0.13833182109E+03  0.00000000000E+00 0. -1.
         11    1    3    3    0    0 -0.11263848209E+03 -0.54219025228E+02 -0.15467658923E+03  0.19887678999E+03  0.00000000000E+00 0.  1.
</event>
<event>
 7    1  0.6988825E-006  0.1202519E+03  0.7561462E-02  0.1242682E+00
          2   -1    0    0  501    0  0.00000000000E+00  0.00000000000E+00  0.22082408748E+03  0.22082408748E+03  0.00000000000E+00 0. -1.
         -2   -1    0    0    0  501 -0.00000000000E+00 -0.00000000000E+00 -0.10818634602E+03  0.10818634602E+03  0.00000000000E+00 0.  1.
         23    2    1    2    0    0  0.94665469822E+02 -0.17969632483E+02 -0.42313735879E+01  0.13277165703E+03  0.91246641142E+02 0.  0.
          5    1    1    2  502    0 -0.90786201784E+02  0.41269135227E+02  0.13376335907E+03  0.16689932471E+03  0.41800000000E+01 0. -1.
         -5    1    1    2    0  502 -0.38792680376E+01 -0.23299502744E+02 -0.16894244028E+02  0.29339451766E+02  0.41800000000E+01 0. -1.
        -11    1    3    3    0    0  0.49972615513E+02 -0.42605877854E+02 -0.33730526682E+02  0.73825954510E+02  0.00000000000E+00 0.  1.
         11    1    3    3    0    0  0.44692854309E+02  0.24636245371E+02  0.29499153095E+02  0.58945702520E+02  0.00000000000E+00 0. -1.
</event>
<event>
 7    1  0.6988825E-006  0.1710207E+03  0.7561462E-02  0.1176788E+00
          2   -1    0    0  501    0  0.00000000000E+00  0.00000000000E+00  0.99409934947E+03  0.99409934947E+03  0.00000000000E+00 0. -1.
         -2   -1    0    0    0  501 -0.00000000000E+00 -0.00000000000E+00 -0.36192707365E+02  0.36192707365E+02  0.00000000000E+00 0.  1.
         23    2    1    2    0    0 -0.13231304225E+03 -0.81895352771E+02  0.42814069034E+03  0.46415385053E+03  0.88998630778E+02 0.  0.
          5    1    1    2  502    0  0.95600925488E+01  0.38849618661E+02  0.29482699133E+03  0.29755859163E+03  0.41800000000E+01 0. -1.
         -5    1    1    2    0  502  0.12275294970E+03  0.43045734110E+02  0.23493896043E+03  0.26857961467E+03  0.41800000000E+01 0. -1.
        -11    1    3    3    0    0 -0.12982959404E+03 -0.49141690644E+02  0.28135300378E+03  0.31373578372E+03  0.00000000000E+00 0.  1.
         11    1    3    3    0    0 -0.24834482092E+01 -0.32753662126E+02  0.14678768656E+03  0.15041806681E+03  0.00000000000E+00 0. -1.
</event>
<event>
 7    1  0.6988825E-006  0.1003105E+03  0.7561462E-02  0.1279644E+00
          2   -1    0    0  501    0  0.00000000000E+00  0.00000000000E+00  0.43897441607E+03  0.43897441607E+03  0.00000000000E+00 0. -1.
         -2   -1    0    0    0  501 -0.00000000000E+00 -0.00000000000E+00 -0.25870948841E+02  0.25870948841E+02  0.00000000000E+00 0.  1.
         23    2    1    2    0    0  0.18012935241E+02 -0.33642758315E+02  0.11276711420E+03  0.13727032287E+03  0.68340460007E+02 0.  0.
          5    1    1    2  502    0 -0.67968608846E+02  0.36868905208E+02  0.21538671658E+03  0.22888415856E+03  0.41800000000E+01 0. -1.
         -5    1    1    2    0  502  0.49955673606E+02 -0.32261468936E+01  0.84949636458E+02  0.98690883487E+02  0.41800000000E+01 0. -1.
        -11    1    3    3    0    0  0.16420333670E+02 -0.51996288496E+02  0.10269704660E+03  0.11627521127E+03  0.00000000000E+00 0. -1.
         11    1    3    3    0    0  0.15926015712E+01  0.18353530181E+02  0.10070067600E+02  0.20995111606E+02  0.00000000000E+00 0.  1.
</event>
<event>
 6    1  0.6988825E-006  0.5035098E+02  0.7561462E-02  0.1443458E+00
          4   -1    0    0  501    0  0.00000000000E+00  0.00000000000E+00  0.57626545573E+03  0.57626545573E+03  0.00000000000E+00 0. -1.
         -4   -1    0    0    0  501 -0.00000000000E+00 -0.00000000000E+00 -0.25888834407E+02  0.25888834407E+02  0.00000000000E+00 0.  1.
          5    1    1    2  502    0 -0.22509083925E+02 -0.37885571719E+02  0.53913553955E+03  0.54094969988E+03  0.41800000000E+01 0. -1.
         -5    1    1    2    0  502  0.21008616901E+02  0.13969277873E+02 -0.17579674382E+01  0.25633290033E+02  0.41800000000E+01 0.  1.
        -11    1    1    2    0    0 -0.79980134451E+01  0.17937660474E+02  0.14269132138E+02  0.24276243827E+02  0.00000000000E+00 0.  1.
         11    1    1    2    0    0  0.94984804687E+01  0.59786333715E+01 -0.12700829265E+01  0.11295056390E+02  0.00000000000E+00 0. -1.
</event>
<event>
 7    1  0.6988825E-006  0.1638719E+03  0.7561462E-02  0.1184393E+00
          1   -1    0    0  501    0  0.00000000000E+00  0.00000000000E+00  0.15267496493E+04  0.15267496493E+04  0.00000000000E+00 0. -1.
         -1   -1    0    0    0  501 -0.00000000000E+00 -0.00000000000E+00 -0.32915012195E+02  0.32915012195E+02  0.00000000000E+00 0.  1.
         23    2    1    2    0    0 -0.56157476547E+02  0.49089403673E+02  0.17390093499E+03  0.21565944633E+03  0.10346028163E+03 0.  0.
          5    1    1    2  502    0  0.18751058295E+02 -0.14699650621E+03  0.79054437986E+03  0.80432422813E+03  0.41800000000E+01 0. -1.
         -5    1    1    2    0  502  0.37406418252E+02  0.97907102534E+02  0.52938932229E+03  0.53968098707E+03  0.41800000000E+01 0.  1.
        -11    1    3    3    0    0 -0.36983198699E+02  0.31348690962E+02  0.18197104734E+03  0.18831877092E+03  0.00000000000E+00 0. -1.
         11    1    3    3    0    0 -0.19174277848E+02  0.17740712711E+02 -0.80701123501E+01  0.27340675409E+02  0.00000000000E+00 0.  1.
</event>
<event>
 7    1  0.6988825E-006  0.1290695E+03  0.7561462E-02  0.1228843E+00
         -1   -1    0    0    0  501 -0.00000000000E+00  0.00000000000E+00  0.25961587686E+03  0.25961587686E+03  0.00000000000E+00 0.  1.
          1   -1    0    0  501    0  0.00000000000E+00 -0.00000000000E+00 -0.97777516262E+02  0.97777516262E+02  0.00000000000E+00 0. -1.
         23    2    1    2    0    0  0.56462464534E+02 -0.42175140823E+02  0.17924276780E+03  0.21276656747E+03  0.90415098419E+02 0.  0.
          5    1    1    2  502    0 -0.96025979164E+02  0.20531876650E+02 -0.12089391974E+02  0.99026119946E+02  0.41800000000E+01 0.  1.
         -5    1    1    2    0  502  0.39563514631E+02  0.21643264172E+02 -0.53150152221E+01  0.45600705705E+02  0.41800000000E+01 0.  1.
        -11    1    3    3    0    0  0.16865007833E+02 -0.66155285494E+02  0.10306129334E+03  0.12362273445E+03  0.00000000000E+00 0.  1.
         11    1    3    3    0    0  0.39597456701E+02  0.23980144671E+02  0.76181474458E+02  0.89143833024E+02  0.00000000000E+00 0. -1.
</event>
<event>
 7    1  0.6988825E-006  0.1345196E+03  0.7561462E-02  0.1220899E+00
         -2   -1    0    0    0  501 -0.00000000000E+00  0.00000000000E+00  0.72464117472E+02  0.72464117472E+02  0.00000000000E+00 0.  1.
          2   -1    0    0  501    0  0.00000000000E+00 -0.00000000000E+00 -0.26264332160E+03  0.26264332160E+03  0.00000000000E+00 0. -1.
         23    2    1    2    0    0  0.11551541422E+02 -0.83953168246E+02 -0.98198376823E+02  0.15821610389E+03  0.90597139862E+02 0.  0.
          5    1    1    2  502    0 -0.65023866540E+02  0.36439028844E+02 -0.24793111669E+02  0.78664330094E+02  0.41800000000E+01 0. -1.
         -5    1    1    2    0  502  0.53472325117E+02  0.47514139402E+02 -0.67187715639E+02  0.98227005092E+02  0.41800000000E+01 0. -1.
        -11    1    3    3    0    0 -0.64484734101E+01  0.18041296134E+02 -0.75986424600E+01  0.20610932602E+02  0.00000000000E+00 0.  1.
         11    1    3    3    0    0  0.18000014832E+02 -0.10199446438E+03 -0.90599734363E+02  0.13760517129E+03  0.00000000000E+00 0. -1.
</event>
<event>
 7    1  0.6988825E-006  0.6710596E+02  0.7561462E-02  0.1370220E+00
          1   -1    0    0  501    0  0.00000000000E+00  0.00000000000E+00  0.25774397601E+03  0.25774397601E+03  0.00000000000E+00 0. -1.
         -1   -1    0    0    0  501 -0.00000000000E+00 -0.00000000000E+00 -0.50968946770E+02  0.50968946770E+02  0.00000000000E+00 0.  1.
         23    2    1    2    0    0  0.14960149338E+02 -0.13310069064E+02  0.79369991184E+02  0.12904378237E+03  0.99758399451E+02 0.  0.
          5    1    1    2  502    0  0.67591743476E+01 -0.12517661095E+02  0.14192309977E+03  0.14269553926E+03  0.41800000000E+01 0.  1.
         -5    1    1    2    0  502 -0.21719323685E+02  0.25827730159E+02 -0.14518061709E+02  0.36973601154E+02  0.41800000000E+01 0.  1.
        -11    1    3    3    0    0 -0.33087556527E+02 -0.16985142508E+02  0.70975655536E+02  0.80130051428E+02  0.00000000000E+00 0. -1.
         11    1    3    3    0    0  0.48047705865E+02  0.36750734444E+01  0.83943356480E+01  0.48913730942E+02  0.00000000000E+00 0.  1.
</event>
<event>
 7    1  0.6988825E-006  0.1844325E+03  0.7561462E-02  0.1163581E+00
          2   -1    0    0  501    0  0.00000000000E+00  0.00000000000E+00  0.52798286938E+02  0.52798286938E+02  0.00000000000E+00 0. -1.
         -2   -1    0    0    0  501 -0.00000000000E+00 -0.00000000000E+00 -0.79672382364E+03  0.79672382364E+03  0.00000000000E+00 0.  1.
         23    2    1    2    0    0  0.15467480619E+03 -0.11699726106E+02 -0.51695307841E+03  0.54748809045E+03  0.91877878985E+02 0.  0.
          5    1    1    2  502    0 -0.46227919759E+02  0.63729846370E+02 -0.93829104993E+02  0.12255564951E+03  0.41800000000E+01 0. -1.
         -5    1    1    2    0  502 -0.10844688643E+03 -0.52030120263E+02 -0.13314335329E+03  0.17947837061E+03  0.41800000000E+01 0. -1.
        -11    1    3    3    0    0  0.13718313772E+03  0.14733188753E+02 -0.47663375377E+03  0.49620158742E+03  0.00000000000E+00 0.  1.
         11    1    3    3    0    0  0.17491668465E+02 -0.26432914859E+02 -0.40319324648E+02  0.51286503036E+02  0.00000000000E+00 0. -1.
</event>
<event>
 7    1  0.6988825E-006  0.9290316E+02  0.7561462E-02  0.1295970E+00
          2   -1    0    0  501    0  0.00000000000E+00  0.00000000000E+00  0.83326237279E+03  0.83326237279E+03  0.00000000000E+00 0. -1.
         -2   -1    0    0    0  501 -0.00000000000E+00 -0.00000000000E+00 -0.20218620813E+02  0.20218620813E+02  0.00000000000E+00 0.  1.
         23    2    1    2    0    0  0.33286602178E+02  0.38046399736E+02  0.20056738137E+03  0.22632137246E+03  0.91861650033E+02 0.  0.
          5    1    1    2  502    0  0.18060452017E+02 -0.20358491340E+02  0.51307167785E+03  0.51380995232E+03  0.41800000000E+01 0.  1.
         -5    1    1    2    0  502 -0.51347054196E+02 -0.17687908396E+02  0.99404692756E+02  0.11334966881E+03  0.41800000000E+01 0.  1.
        -11    1    3    3    0    0  0.58605770499E+02  0.48831125147E+02  0.13231835756E+03  0.15273265161E+03  0.00000000000E+00 0.  1.
         11    1    3    3    0    0 -0.25319168321E+02 -0.10784725411E+02  0.68249023811E+02  0.73588720860E+02  0.00000000000E+00 0. -1.
</event>
<event>
 7    1  0.6988825E-006  0.6994466E+02  0.7561462E-02  0.1360281E+00
          1   -1    0    0  501    0  0.00000000000E+00  0.00000000000E+00  0.55980455120E+03  0.55980455120E+03  0.00000000000E+00 0. -1.
         -1   -1    0    0    0  501 -0.00000000000E+00 -0.00000000000E+00 -0.39348467836E+02  0.39348467836E+02  0.00000000000E+00 0.  1.
         23    2    1    2    0    0  0.29339102385E+02  0.18608761121E+01  0.48246462936E+02  0.10977271983E+03  0.94117389699E+02 0.  0.
          5    1    1    2  502    0 -0.91777125179E+01 -0.31856444666E+02  0.27752581564E+02  0.43436639572E+02  0.41800000000E+01 0.  1.
         -5    1    1    2    0  502 -0.20161389867E+02  0.29995568554E+02  0.44445703886E+03  0.44594365963E+03  0.41800000000E+01 0.  1.
        -11    1    3    3    0    0 -0.16262049573E+01  0.28922512787E+02  0.60318075759E+02  0.66913575243E+02  0.00000000000E+00 0. -1.
         11    1    3    3    0    0  0.30965307343E+02 -0.27061636675E+02 -0.12071612823E+02  0.42859144585E+02  0.00000000000E+00 0.  1.
</event>
<event>
 7    1  0.1144184E-005  0.1948769E+03  0.7561462E-02  0.1154135E+00
          2   -1    0    0  501    0  0.00000000000E+00  0.00000000000E+00  0.15438365286E+04  0.15438365286E+04  0.00000000000E+00 0. -1.
         -2   -1    0    0    0  501 -0.00000000000E+00 -0.00000000000E+00 -0.35461627495E+02  0.35461627495E+02  0.00000000000E+00 0.  1.
         23    2    1    2    0    0 -0.10380159092E+03 -0.14494743306E+03  0.35555210971E+03  0.40608347312E+03  0.81865473802E+02 0.  0.
          5    1    1    2  502    0 -0.19858033278E+01  0.91470246651E+02  0.65973997971E+03  0.66606686050E+03  0.41800000000E+01 0.  1.
         -5    1    1    2    0  502  0.10578739424E+03  0.53477186410E+02  0.49308281173E+03  0.50714782250E+03  0.41800000000E+01 0.  1.
        -11    1    3    3    0    0 -0.13565008726E+02 -0.33606653533E+02  0.20430487525E+02  0.41603142236E+02  0.00000000000E+00 0.  1.
         11    1    3    3    0    0 -0.90236582189E+02 -0.11134077953E+03  0.33512162218E+03  0.36448033089E+03  0.00000000000E+00 0. -1.
</event>
<event>
 7    1  0.6988825E-006  0.1492772E+03  0.7561462E-02  0.1201364E+00
         -1   -1    0    0    0  501 -0.00000000000E+00  0.00000000000E+00  0.20797678051E+02  0.20797678051E+02  0.00000000000E+00 0.  1.
          1   -1    0    0  501    0  0.00000000000E+00 -0.00000000000E+00 -0.11950227122E+04  0.11950227122E+04  0.00000000000E+00 0. -1.
         23    2    1    2    0    0 -0.69704877644E+02 -0.16135288447E+02 -0.36043775739E+03  0.37899209023E+03  0.92738934672E+02 0.  0.
          5    1    1    2  502    0 -0.12501998122E+02  0.77698550446E+02 -0.51167910303E+03  0.51771260519E+03  0.41800000000E+01 0. -1.
         -5    1    1    2    0  502  0.82206875766E+02 -0.61563261999E+02 -0.30210817372E+03  0.31911569482E+03  0.41800000000E+01 0.  1.
        -11    1    3    3    0    0 -0.90299684893E+02 -0.26214962916E+02 -0.29764845566E+03  0.31214717768E+03  0.00000000000E+00 0. -1.
         11    1    3    3    0    0  0.20594807249E+02  0.10079674469E+02 -0.62789301723E+02  0.66844912550E+02  0.00000000000E+00 0.  1.
</event>
<event>
 7    1  0.6988825E-006  0.2563420E+03  0.7561462E-02  0.1109361E+00
         -1   -1    0    0    0  501 -0.00000000000E+00  0.00000000000E+00  0.26173172871E+03  0.26173172871E+03  0.00000000000E+00 0.  1.
          1   -1    0    0  501    0  0.00000000000E+00 -0.00000000000E+00 -0.30449449973E+03  0.30449449973E+03  0.00000000000E+00 0. -1.
         23    2    1    2    0    0 -0.20105442193E+03 -0.13375999442E+03  0.78335438191E+02  0.26852250185E+03  0.87483006555E+02 0.  0.
          5    1    1    2  502    0  0.22733255975E+02  0.82018315527E+02 -0.50250516910E+02  0.98926193998E+02  0.41800000000E+01 0. -1.
         -5    1    1    2    0  502  0.17832116595E+03  0.51741678894E+02 -0.70847692295E+02  0.19877753260E+03  0.41800000000E+01 0. -1.
        -11    1    3    3    0    0 -0.13235078416E+03 -0.94411726745E+02  0.94029932637E+02  0.18780823317E+03  0.00000000000E+00 0.  1.
         11    1    3    3    0    0 -0.68703637773E+02 -0.39348267677E+02 -0.15694494445E+02  0.80714268679E+02  0.00000000000E+00 0. -1.
</event>
<event>
 7    1  0.6988825E-006  0.9549094E+02  0.7561462E-02  0.1290074E+00
          1   -1    0    0  501    0  0.00000000000E+00  0.00000000000E+00  0.75403974166E+02  0.75403974166E+02  0.00000000000E+00 0. -1.
         -1   -1    0    0    0  501 -0.00000000000E+00 -0.00000000000E+00 -0.18781471563E+03  0.18781471563E+03  0.00000000000E+00 0.  1.
         23    2    1    2    0    0  0.14618384123E+02 -0.90882939601E+01 -0.99403206158E+02  0.13628061429E+03  0.91624855779E+02 0.  0.
          5    1    1    2  502    0  0.14637942860E+02 -0.54152325879E+02 -0.94721481173E+01  0.57043297234E+02  0.41800000000E+01 0.  1.
         -5    1    1    2    0  502 -0.29256326983E+02  0.63240619839E+02 -0.35353871858E+01  0.69894778265E+02  0.41800000000E+01 0.  1.
        -11    1    3    3    0    0 -0.23252371394E+02 -0.13355222029E+02  0.30320306948E+01  0.26985698824E+02  0.00000000000E+00 0. -1.
         11    1    3    3    0    0  0.37870755517E+02  0.42669280686E+01 -0.10243523685E+03  0.10929491547E+03  0.00000000000E+00 0.  1.
</event>
<event>
 6    1  0.1911748E-005  0.7856379E+02  0.7561462E-02  0.1333177E+00
          2   -1    0    0  501    0  0.00000000000E+00  0.00000000000E+00  0.83723494858E+02  0.83723494858E+02  0.00000000000E+00 0. -1.
         -2   -1    0    0    0  501 -0.00000000000E+00 -0.00000000000E+00 -0.10722896679E+03  0.10722896679E+03  0.00000000000E+00 0.  1.
          5    1    1    2  502    0 -0.58477524635E+02  0.23062308980E+02  0.24118622987E+02  0.67458664067E+02  0.41800000000E+01 0. -1.
         -5    1    1    2    0  502  0.27037242107E+02 -0.46403339304E+02  0.82028752493E+01  0.54488915585E+02  0.41800000000E+01 0.  1.
        -11    1    1    2    0    0  0.21413131429E+02  0.10167622320E+02 -0.36913338398E+02  0.43869092684E+02  0.00000000000E+00 0.  1.
         11    1    1    2    0    0  0.10027151100E+02  0.13173408004E+02 -0.18913631772E+02  0.25135789314E+02  0.00000000000E+00 0. -1.
</event>
<event>
 7    1  0.6988825E-006  0.1766607E+03  0.7561462E-02  0.1171075E+00
         -1   -1    0    0    0  501 -0.00000000000E+00  0.00000000000E+00  0.27790869710E+03  0.27790869710E+03  0.00000000000E+00 0.  1.
          1   -1    0    0  501    0  0.00000000000E+00 -0.00000000000E+00 -0.41290013098E+03  0.41290013098E+03  0.00000000000E+00 0. -1.
         23    2    1    2    0    0 -0.18671768428E+01 -0.17472482027E+03  0.20741369627E+03  0.28655751037E+03  0.92533865064E+02 0.  0.
          5    1    1    2  502    0 -0.74943906373E+01  0.14017084013E+03 -0.13869546573E+03  0.19737764546E+03  0.41800000000E+01 0.  1.
         -5    1    1    2    0  502  0.93615674801E+01  0.34553980138E+02 -0.20370966442E+03  0.20687367224E+03  0.41800000000E+01 0.  1.
        -11    1    3    3    0    0 -0.13905923867E+02 -0.65557734191E+02  0.14618511882E+03  0.16081442782E+03  0.00000000000E+00 0.  1.
         11    1    3    3    0    0  0.12038747024E+02 -0.10916708608E+03  0.61228577445E+02  0.12574308255E+03  0.00000000000E+00 0. -1.
</event>
<event>
 7    1  0.6988825E-006  0.2043882E+03  0.7561462E-02  0.1146089E+00
          2   -1    0    0  501    0  0.00000000000E+00  0.00000000000E+00  0.19588122040E+04  0.19588122040E+04  0.00000000000E+00 0. -1.
         -2   -1    0    0    0  501 -0.00000000000E+00 -0.00000000000E+00 -0.24467287863E+02  0.24467287863E+02  0.00000000000E+00 0.  1.
         23    2    1    2    0    0  0.16695879009E+03 -0.82977297871E+02  0.86424791882E+03  0.88988326613E+03  0.10103114675E+03 0.  0.
          5    1    1    2  502    0 -0.49011617538E+02 -0.12449848426E+02  0.52864738168E+03  0.53107689080E+03  0.41800000000E+01 0. -1.
         -5    1    1    2    0  502 -0.11794717255E+03  0.95427146297E+02  0.54144961559E+03  0.56231933488E+03  0.41800000000E+01 0. -1.
        -11    1    3    3    0    0  0.10740440711E+03 -0.97394093141E+02  0.50314058479E+03  0.52361413666E+03  0.00000000000E+00 0.  1.
         11    1    3    3    0    0  0.59554382977E+02  0.14416795270E+02  0.36110733403E+03  0.36626912948E+03  0.00000000000E+00 0. -1.
</event>
<event>
 7    1  0.6988825E-006  0.1195583E+03  0.7561462E-02  0.1243827E+00
         -2   -1    0    0    0  501 -0.00000000000E+00  0.00000000000E+00  0.12461841558E+03  0.12461841558E+03  0.00000000000E+00 0.  1.
          2   -1    0    0  501    0  0.00000000000E+00 -0.00000000000E+00 -0.16146117797E+03  0.16146117797E+03  0.00000000000E+00 0. -1.
         23    2    1    2    0    0  0.81507771056E+02  0.24027828479E+02  0.33745008666E+02  0.11919441535E+03  0.76470450212E+02 0.  0.
          5    1    1    2  502    0 -0.94599706930E+02  0.16327516462E+02 -0.15663751138E+02  0.97357679947E+02  0.41800000000E+01 0.  1.
         -5    1    1    2    0  502  0.13091935873E+02 -0.40355344941E+02 -0.54924019918E+02  0.69527498259E+02  0.41800000000E+01 0.  1.
        -11    1    3    3    0    0 -0.35285335966E+01  0.14388808565E+02  0.30085393454E+02  0.33535343453E+02  0.00000000000E+00 0.  1.
         11    1    3    3    0    0  0.85036304653E+02  0.96390199140E+01  0.36596152122E+01  0.85659071892E+02  0.00000000000E+00 0. -1.
</event>
<event>
 7    1  0.6988825E-006  0.1243022E+03  0.7561462E-02  0.1236164E+00
          4   -1    0    0  501    0  0.00000000000E+00  0.00000000000E+00  0.10792231277E+03  0.10792231277E+03  0.00000000000E+00 0. -1.
         -4   -1    0    0    0  501 -0.00000000000E+00 -0.00000000000E+00 -0.19613370425E+03  0.19613370425E+03  0.00000000000E+00 0.  1.
         23    2    1    2    0    0 -0.51922448376E+02  0.73954469772E+02 -0.31409846182E+01  0.12784853674E+03  0.90389038696E+02 0.  0.
          5    1    1    2  502    0 -0.34087068015E+02 -0.52616022931E+02 -0.19161930383E+02  0.65688857891E+02  0.41800000000E+01 0. -1.
         -5    1    1    2    0  502  0.86009516391E+02 -0.21338446841E+02 -0.65908476477E+02  0.11051862239E+03  0.41800000000E+01 0. -1.
        -11    1    3    3    0    0 -0.42714705798E+02  0.30120961397E+02 -0.43160811735E+02  0.67784025230E+02  0.00000000000E+00 0.  1.
         11    1    3    3    0    0 -0.92077425780E+01  0.43833508375E+02  0.40019827116E+02  0.60064511505E+02  0.00000000000E+00 0. -1.
</event>
<event>
 7    1  0.6988825E-006  0.1143485E+03  0.7561462E-02  0.1252723E+00
         -1   -1    0    0    0  501 -0.00000000000E+00  0.00000000000E+00  0.64534463318E+02  0.64534463318E+02  0.00000000000E+00 0.  1.
          1   -1    0    0  501    0  0.00000000000E+00 -0.00000000000E+00 -0.39114719693E+03  0.39114719693E+03  0.00000000000E+00 0. -1.
         23    2    1    2    0    0  0.19212692415E+02 -0.78097251967E+02 -0.31268995608E+02  0.12501168256E+03  0.90453647663E+02 0.  0.
          5    1    1    2  502    0  0.50774205000E+02  0.49037073351E+02 -0.11490652051E+03  0.13492084832E+03  0.41800000000E+01 0.  1.
         -5    1    1    2    0  502 -0.69986897415E+02  0.29060178616E+02 -0.18043721750E+03  0.19574912937E+03  0.41800000000E+01 0.  1.
        -11    1    3    3    0    0  0.22247052817E+02 -0.68033248127E+02 -0.60642845535E+02  0.93813692627E+02  0.00000000000E+00 0. -1.
         11    1    3    3    0    0 -0.30343604015E+01 -0.10064003840E+02  0.29373849927E+02  0.31197989933E+02  0.00000000000E+00 0.  1.
</event>
<event>
 7    1  0.6988825E-006  0.8902273E+02  0.7561462E-02  0.1305236E+00
          1   -1    0    0  501    0  0.00000000000E+00  0.00000000000E+00  0.77255956473E+02  0.77255956473E+02  0.00000000000E+00 0. -1.
         -1   -1    0    0    0  501 -0.00000000000E+00 -0.00000000000E+00 -0.17043830524E+03  0.17043830524E+03  0.00000000000E+00 0.  1.
         23    2    1    2    0    0  0.33674886369E+02  0.19023189039E+02 -0.37416570588E+02  0.10537886763E+03  0.90602573338E+02 0.  0.
          5    1    1    2  502    0 -0.42906958397E+02  0.24009629178E+02  0.21080549477E+02  0.53659401212E+02  0.41800000000E+01 0.  1.
         -5    1    1    2    0  502  0.92320720283E+01 -0.43032818216E+02 -0.76846327658E+02  0.88655992872E+02  0.41800000000E+01 0.  1.
        -11    1    3    3    0    0  0.37131849501E+02 -0.22107382158E+02 -0.46112601127E+02  0.63197172214E+02  0.00000000000E+00 0.  1.
         11    1    3    3    0    0 -0.34569631317E+01  0.41130571197E+02  0.86960305391E+01  0.42181695416E+02  0.00000000000E+00 0. -1.
</event>
<event>
 7    1  0.6988825E-006  0.8708570E+02  0.7561462E-02  0.1310067E+00
         -2   -1    0    0    0  501 -0.00000000000E+00  0.00000000000E+00  0.19669851033E+02  0.19669851033E+02  0.00000000000E+00 0.  1.
          2   -1    0    0  501    0  0.00000000000E+00 -0.00000000000E+00 -0.93093699524E+03  0.93093699524E+03  0.00000000000E+00 0. -1.
         23    2    1    2    0    0  0.65601294203E+01  0.37153998197E+02 -0.15605770794E+03  0.18417849365E+03  0.90245523079E+02 0.  0.
          5    1    1    2  502    0 -0.17245343888E+02 -0.69183461942E+02 -0.24802078208E+03  0.25809985284E+03  0.41800000000E+01 0.  1.
         -5    1    1    2    0  502  0.10685214468E+02  0.32029463745E+02 -0.50718865418E+03  0.50832849977E+03  0.41800000000E+01 0.  1.
        -11    1    3    3    0    0  0.28621500092E+02  0.39955548187E+01 -0.67860755621E+01  0.29685106491E+02  0.00000000000E+00 0.  1.
         11    1    3    3    0    0 -0.22061370672E+02  0.33158443378E+02 -0.14927163238E+03  0.15449338716E+03  0.00000000000E+00 0. -1.
</event>
<event>
 7    1  0.6988825E-006  0.1116853E+03  0.7561462E-02  0.1257480E+00
         -1   -1    0    0    0  501 -0.00000000000E+00  0.00000000000E+00  0.10112416029E+03  0.10112416029E+03  0.00000000000E+00 0.  1.
          1   -1    0    0  501    0  0.00000000000E+00 -0.00000000000E+00 -0.18463876731E+03  0.18463876731E+03  0.00000000000E+00 0. -1.
         23    2    1    2    0    0 -0.14408370162E+02 -0.37403016671E+02  0.39651534760E+02  0.10569728801E+03  0.89404058618E+02 0.  0.
          5    1    1    2  502    0  0.79934305872E+01 -0.44479696954E+02 -0.65237942125E+02  0.79472006810E+02  0.41800000000E+01 0. -1.
         -5    1    1    2    0  502  0.64149395751E+01  0.81882713624E+02 -0.57928199660E+02  0.10059363278E+03  0.41800000000E+01 0. -1.
        -11    1    3    3    0    0  0.29126212475E+02 -0.42912717278E+02  0.32584012093E+02  0.61249942052E+02  0.00000000000E+00 0. -1.
         11    1    3    3    0    0 -0.43534582637E+02  0.55097006077E+01  0.70675226670E+01  0.44447345959E+02  0.00000000000E+00 0.  1.
</event>
<event>
 7    1  0.6988825E-006  0.1328006E+03  0.7561462E-02  0.1223358E+00
         -1   -1    0    0    0  501 -0.00000000000E+00  0.00000000000E+00  0.40144793330E+02  0.40144793330E+02  0.00000000000E+00 0.  1.
          1   -1    0    0  501    0  0.00000000000E+00 -0.00000000000E+00 -0.59454802632E+03  0.59454802632E+03  0.00000000000E+00 0. -1.
         23    2    1    2    0    0 -0.67331143050E+02  0.78841061227E+02 -0.18254576839E+03  0.22889133431E+03  0.91207947044E+02 0.  0.
          5    1    1    2  502    0  0.88627257034E+02 -0.10115817641E+02 -0.22895142320E+03  0.24575057892E+03  0.41800000000E+01 0.  1.
         -5    1    1    2    0  502 -0.21296113984E+02 -0.68725243586E+02 -0.14290604139E+03  0.16005090641E+03  0.41800000000E+01 0.  1.
        -11    1    3    3    0    0 -0.61373330784E+02  0.66300713863E+02 -0.19193176116E+03  0.21213267389E+03  0.00000000000E+00 0. -1.
         11    1    3    3    0    0 -0.59578122657E+01  0.12540347365E+02  0.93859927623E+01  0.16758660423E+02  0.00000000000E+00 0.  1.
</event>
<event>
 7    1  0.6988825E-006  0.1663403E+03  0.7561462E-02  0.1181719E+00
         -2   -1    0    0    0  501 -0.00000000000E+00  0.00000000000E+00  0.15959978222E+03  0.15959978222E+03  0.00000000000E+00 0.  1.
          2   -1    0    0  501    0  0.00000000000E+00 -0.00000000000E+00 -0.20240679197E+03  0.20240679197E+03  0.00000000000E+00 0. -1.
         23    2    1    2    0    0  0.64498907320E+02  0.10962188621E+03  0.45877615138E+02  0.16278148571E+03  0.90642095845E+02 0.  0.
          5    1    1    2  502    0  0.32124916615E+02 -0.28239014819E+01 -0.27898592991E+02  0.42846103416E+02  0.41800000000E+01 0.  1.
         -5    1    1    2    0  502 -0.96623823935E+02 -0.10679798473E+03 -0.60786031900E+02  0.15637898506E+03  0.41800000000E+01 0.  1.
        -11    1    3    3    0    0  0.87766896151E+02  0.88860133029E+02  0.34339800492E+02  0.12953135991E+03  0.00000000000E+00 0. -1.
         11    1    3    3    0    0 -0.23267988830E+02  0.20761753180E+02  0.11537814646E+02  0.33250125807E+02  0.00000000000E+00 0.  1.
</event>
<event>
 7    1  0.6988825E-006  0.1381137E+03  0.7561462E-02  0.1215890E+00
          1   -1    0    0  501    0  0.00000000000E+00  0.00000000000E+00  0.57442986560E+03  0.57442986560E+03  0.00000000000E+00 0. -1.
         -1   -1    0    0    0  501 -0.00000000000E+00 -0.00000000000E+00 -0.39424483015E+02  0.39424483015E+02  0.00000000000E+00 0.  1.
         23    2    1    2    0    0 -0.59408557383E+02  0.83354343248E+02  0.24927098707E+03  0.28556519855E+03  0.94520550125E+02 0.  0.
          5    1    1    2  502    0  0.90546160739E+02 -0.74296078293E+02  0.15975241000E+03  0.19813333736E+03  0.41800000000E+01 0. -1.
         -5    1    1    2    0  502 -0.31137603357E+02 -0.90582649558E+01  0.12598198551E+03  0.13015581270E+03  0.41800000000E+01 0. -1.
        -11    1    3    3    0    0 -0.11549823284E+01  0.65346251179E+02  0.18837430861E+03  0.19938993624E+03  0.00000000000E+00 0. -1.
         11    1    3    3    0    0 -0.58253575054E+02  0.18008092069E+02  0.60896678460E+02  0.86175262309E+02  0.00000000000E+00 0.  1.
</event>
<event>
 7    1  0.1273114E-005  0.2425057E+03  0.7561462E-02  0.1118135E+00
         -2   -1    0    0    0  501 -0.00000000000E+00  0.00000000000E+00  0.18128409051E+04  0.18128409051E+04  0.00000000000E+00 0.  1.
          2   -1    0    0  501    0  0.00000000000E+00 -0.00000000000E+00 -0.39707982774E+02  0.39707982774E+02  0.00000000000E+00 0. -1.
         23    2    1    2    0    0  0.10737065833E+03 -0.19946810450E+03  0.11860323438E+04  0.12109487031E+04  0.91695462379E+02 0.  0.
          5    1    1    2  502    0 -0.35999409393E+02  0.14924156440E+03  0.47657907055E+03  0.50071357572E+03  0.41800000000E+01 0.  1.
         -5    1    1    2    0  502 -0.71371248938E+02  0.50226540101E+02  0.11052150791E+03  0.14088660907E+03  0.41800000000E+01 0.  1.
        -11    1    3    3    0    0  0.98936403014E+01 -0.11397310698E+03  0.58722092195E+03  0.59826095010E+03  0.00000000000E+00 0.  1.
         11    1    3    3    0    0  0.97477018030E+02 -0.85494997518E+02  0.59881142189E+03  0.61268775296E+03  0.00000000000E+00 0. -1.
</event>
<event>
 7    1  0.6988825E-006  0.1216863E+03  0.7561462E-02  0.1240341E+00
         -1   -1    0    0    0  501 -0.00000000000E+00  0.00000000000E+00  0.38505041551E+03  0.38505041551E+03  0.00000000000E+00 0.  1.
          1   -1    0    0  501    0  0.00000000000E+00 -0.00000000000E+00 -0.71750111891E+02  0.71750111891E+02  0.00000000000E+00 0. -1.
         23    2    1    2    0    0  0.40238577051E+02 -0.58938744028E+02  0.28835619335E+03  0.31063929658E+03  0.90854607515E+02 0.  0.
          5    1    1    2  502    0 -0.14200650141E+02 -0.38239592875E+02  0.19273919765E+02  0.45308733273E+02  0.41800000000E+01 0. -1.
         -5    1    1    2    0  502 -0.26037926910E+02  0.97178336903E+02  0.56701905034E+01  0.10085249755E+03  0.41800000000E+01 0. -1.
        -11    1    3    3    0    0  0.15402558903E+02 -0.71989344909E+02  0.26199543509E+03  0.27214208166E+03  0.00000000000E+00 0.  1.
         11    1    3    3    0    0  0.24836018148E+02  0.13050600881E+02  0.26360758258E+02  0.38497214921E+02  0.00000000000E+00 0. -1.
</event>
<event>
 7    1  0.6988825E-006  0.1550132E+03  0.7561462E-02  0.1194445E+00
         -2   -1    0    0    0  501 -0.00000000000E+00  0.00000000000E+00  0.34001726353E+02  0.34001726353E+02  0.00000000000E+00 0.  1.
          2   -1    0    0  501    0  0.00000000000E+00 -0.00000000000E+00 -0.91019645741E+03  0.91019645741E+03  0.00000000000E+00 0. -1.
         23    2    1    2    0    0 -0.87069775271E+02 -0.87694088009E+02 -0.57508079955E+03  0.59550281503E+03  0.92920814983E+02 0.  0.
          5    1    1    2  502    0  0.32324630872E+02 -0.18151979645E+02 -0.15835311925E+03  0.16268853341E+03  0.41800000000E+01 0.  1.
         -5    1    1    2    0  502  0.54745144399E+02  0.10584606765E+03 -0.14276081226E+03  0.18600683533E+03  0.41800000000E+01 0.  1.
        -11    1    3    3    0    0 -0.98306049089E+02 -0.97580485827E+02 -0.49397098217E+03  0.51302374383E+03  0.00000000000E+00 0.  1.
         11    1    3    3    0    0  0.11236273818E+02  0.98863978174E+01 -0.81109817375E+02  0.82479071198E+02  0.00000000000E+00 0. -1.
</event>
<event>
 7    1  0.6988825E-006  0.8009829E+02  0.7561462E-02  0.1328773E+00
         -2   -1    0    0    0  501 -0.00000000000E+00  0.00000000000E+00  0.13344585720E+02  0.13344585720E+02  0.00000000000E+00 0.  1.
          2   -1    0    0  501    0  0.00000000000E+00 -0.00000000000E+00 -0.11027772557E+04  0.11027772557E+04  0.00000000000E+00 0. -1.
         23    2    1    2    0    0  0.14794442943E+02  0.19897893563E+01 -0.21495577727E+03  0.23363269886E+03  0.90307347383E+02 0.  0.
          5    1    1    2  502    0 -0.45045245326E+02 -0.14531890432E+02 -0.79512882438E+03  0.79654728028E+03  0.41800000000E+01 0. -1.
         -5    1    1    2    0  502  0.30250802383E+02  0.12542101076E+02 -0.79348068337E+02  0.85941862285E+02  0.41800000000E+01 0.  1.
        -11    1    3    3    0    0  0.44056390488E+02  0.16450610511E+02 -0.65377091897E+02  0.80534168363E+02  0.00000000000E+00 0.  1.
         11    1    3    3    0    0 -0.29261947545E+02 -0.14460821154E+02 -0.14957868538E+03  0.15309853050E+03  0.00000000000E+00 0. -1.
</event>
<event>
 7    1  0.6988825E-006  0.3438825E+03  0.7561462E-02  0.1065154E+00
          2   -1    0    0  501    0  0.00000000000E+00  0.00000000000E+00  0.91557945995E+03  0.91557945995E+03  0.00000000000E+00 0.  1.
         -2   -1    0    0    0  501 -0.00000000000E+00 -0.00000000000E+00 -0.13396550816E+03  0.13396550816E+03  0.00000000000E+00 0. -1.
         23    2    1    2    0    0 -0.32016851678E+03 -0.86085852522E+02  0.34322186536E+03  0.48584880818E+03  0.91264244932E+02 0.  0.
          5    1    1    2  502    0  0.31166180168E+03  0.10621463890E+03  0.38992325557E+03  0.51036481636E+03  0.41800000000E+01 0. -1.
         -5    1    1    2    0  502  0.85067151049E+01 -0.20128786382E+02  0.48468830859E+02  0.53331343579E+02  0.41800000000E+01 0. -1.
        -11    1    3    3    0    0 -0.29529048106E+03 -0.94372459131E+02  0.33885457199E+03  0.45926577295E+03  0.00000000000E+00 0.  1.
         11    1    3    3    0    0 -0.24878035722E+02  0.82866066089E+01  0.43672933736E+01  0.26583035227E+02  0.00000000000E+00 0. -1.
</event>
<event>
 7    1  0.6988825E-006  0.4642545E+02  0.7561462E-02  0.1465634E+00
          1   -1    0    0  501    0  0.00000000000E+00  0.00000000000E+00  0.23319227080E+03  0.23319227080E+03  0.00000000000E+00 0. -1.
         -1   -1    0    0    0  501 -0.00000000000E+00 -0.00000000000E+00 -0.95340426532E+02  0.95340426532E+02  0.00000000000E+00 0.  1.
         23    2    1    2    0    0 -0.97172249073E+01  0.15819252071E+02 -0.43235130129E+02  0.10323964825E+03  0.91893826219E+02 0.  0.
          5    1    1    2  502    0  0.26974313593E+02 -0.21473020022E+02  0.19745782678E+03  0.20048882747E+03  0.41800000000E+01 0. -1.
         -5    1    1    2    0  502 -0.17257088685E+02  0.56537679509E+01 -0.16370852386E+02  0.24804221612E+02  0.41800000000E+01 0.  1.
        -11    1    3    3    0    0 -0.26641765600E+01 -0.11225358965E+02  0.26071245296E+02  0.28509934268E+02  0.00000000000E+00 0. -1.
         11    1    3    3    0    0 -0.70530483473E+01  0.27044611035E+02 -0.69306375426E+02  0.74729713981E+02  0.00000000000E+00 0.  1.
</event>
<event>
 7    1  0.6988825E-006  0.9673647E+02  0.7561462E-02  0.1287312E+00
          2   -1    0    0  501    0  0.00000000000E+00  0.00000000000E+00  0.22355097825E+03  0.22355097825E+03  0.00000000000E+00 0. -1.
         -2   -1    0    0    0  501 -0.00000000000E+00 -0.00000000000E+00 -0.69873762428E+02  0.69873762428E+02  0.00000000000E+00 0.  1.
         23    2    1    2    0    0 -0.22986860006E+02  0.59709033778E+02  0.41507355759E+02  0.11363762273E+03  0.84244194280E+02 0.  0.
          5    1    1    2  502    0  0.38231546629E+02 -0.85635203261E+02  0.41053242335E+02  0.10245916407E+03  0.41800000000E+01 0. -1.
         -5    1    1    2    0  502 -0.15244686623E+02  0.25926169483E+02  0.71116617725E+02  0.77327953878E+02  0.41800000000E+01 0. -1.
        -11    1    3    3    0    0 -0.27998225761E+02  0.39530254777E+02 -0.17163271778E+02  0.51391824122E+02  0.00000000000E+00 0.  1.
         11    1    3    3    0    0  0.50113657549E+01  0.20178779001E+02  0.58670627537E+02  0.62245798608E+02  0.00000000000E+00 0. -1.
</event>
<event>
 7    1  0.6988825E-006  0.7490099E+02  0.7561462E-02  0.1344178E+00
          2   -1    0    0  501    0  0.00000000000E+00  0.00000000000E+00  0.24152999146E+03  0.24152999146E+03  0.00000000000E+00 0. -1.
         -2   -1    0    0    0  501 -0.00000000000E+00 -0.00000000000E+00 -0.86321284744E+02  0.86321284744E+02  0.00000000000E+00 0.  1.
         23    2    1    2    0    0  0.26767292152E+02  0.35441758554E+02 -0.15723888232E+02  0.11142954620E+03  0.10097869541E+03 0.  0.
          5    1    1    2  502    0  0.32749911484E+01 -0.35955251755E+02  0.18088078598E+03  0.18449617024E+03  0.41800000000E+01 0. -1.
         -5    1    1    2    0  502 -0.30042283300E+02  0.51349320061E+00 -0.99481910333E+01  0.31925559760E+02  0.41800000000E+01 0. -1.
        -11    1    3    3    0    0  0.37514545536E+02  0.51550590733E+02 -0.43779431756E+02  0.77339790384E+02  0.00000000000E+00 0.  1.
         11    1    3    3    0    0 -0.10747253384E+02 -0.16108832179E+02  0.28055543523E+02  0.34089755820E+02  0.00000000000E+00 0. -1.
</event>
<event>
 7    1  0.6988825E-006  0.1018943E+03  0.7561462E-02  0.1276362E+00
         -2   -1    0    0    0  501 -0.00000000000E+00  0.00000000000E+00  0.30115472381E+02  0.30115472381E+02  0.00000000000E+00 0.  1.
          2   -1    0    0  501    0  0.00000000000E+00 -0.00000000000E+00 -0.91147409895E+03  0.91147409895E+03  0.00000000000E+00 0. -1.
         23    2    1    2    0    0 -0.28071315906E+02 -0.20149146447E+02 -0.71449683411E+02  0.12134951432E+03  0.91796843551E+02 0.  0.
          5    1    1    2  502    0  0.59373093187E+02  0.45354075604E+02 -0.31848891569E+03  0.32716176149E+03  0.41800000000E+01 0.  1.
         -5    1    1    2    0  502 -0.31301777281E+02 -0.25204929156E+02 -0.49142002747E+03  0.49307829552E+03  0.41800000000E+01 0.  1.
        -11    1    3    3    0    0  0.16766903869E+02 -0.37024615940E+02 -0.59355759003E+02  0.71937871651E+02  0.00000000000E+00 0. -1.
         11    1    3    3    0    0 -0.44838219775E+02  0.16875469493E+02 -0.12093924407E+02  0.49411642664E+02  0.00000000000E+00 0.  1.
</event>
<event>
 7    1  0.6988825E-006  0.9344428E+02  0.7561462E-02  0.1294719E+00
          2   -1    0    0  501    0  0.00000000000E+00  0.00000000000E+00  0.61950307391E+02  0.61950307391E+02  0.00000000000E+00 0.  1.
         -2   -1    0    0    0  501 -0.00000000000E+00 -0.00000000000E+00 -0.32872823199E+03  0.32872823199E+03  0.00000000000E+00 0. -1.
         23    2    1    2    0    0 -0.27126953122E+02 -0.67965630248E+02 -0.19983835789E+03  0.23103841091E+03  0.89934306868E+02 0.  0.
          5    1    1    2  502    0  0.22535861426E+02  0.18694354840E+02  0.35254641188E+02  0.46018540594E+02  0.41800000000E+01 0.  1.
         -5    1    1    2    0  502  0.45910916959E+01  0.49271275407E+02 -0.10219420790E+03  0.11362158787E+03  0.41800000000E+01 0.  1.
        -11    1    3    3    0    0  0.19082724273E+02 -0.57066699736E+02 -0.67425975373E+02  0.90371570416E+02  0.00000000000E+00 0.  1.
         11    1    3    3    0    0 -0.46209677395E+02 -0.10898930512E+02 -0.13241238252E+03  0.14066684050E+03  0.00000000000E+00 0. -1.
</event>
<event>
 7    1  0.6988825E-006  0.8377757E+02  0.7561462E-02  0.1318661E+00
         -1   -1    0    0    0  501 -0.00000000000E+00  0.00000000000E+00  0.12953935156E+04  0.12953935156E+04  0.00000000000E+00 0.  1.
          1   -1    0    0  501    0  0.00000000000E+00 -0.00000000000E+00 -0.97844606573E+01  0.97844606573E+01  0.00000000000E+00 0. -1.
         23    2    1    2    0    0  0.29490099194E+02  0.19691285921E+01  0.49550706274E+03  0.50469491554E+03  0.91193010340E+02 0.  0.
          5    1    1    2  502    0 -0.37718639467E+02 -0.26066318109E+02  0.75753301891E+03  0.75893075826E+03  0.41800000000E+01 0. -1.
         -5    1    1    2    0  502  0.82285402724E+01  0.24097189516E+02  0.32568973317E+02  0.41552302470E+02  0.41800000000E+01 0. -1.
        -11    1    3    3    0    0  0.59383220638E+02 -0.15120858707E+02  0.33062994830E+03  0.33626056857E+03  0.00000000000E+00 0. -1.
         11    1    3    3    0    0 -0.29893121444E+02  0.17089987300E+02  0.16487711443E+03  0.16843434697E+03  0.00000000000E+00 0.  1.
</event>
<event>
 7    1  0.6988825E-006  0.1213987E+03  0.7561462E-02  0.1240807E+00
          2   -1    0    0  501    0  0.00000000000E+00  0.00000000000E+00  0.22001111546E+04  0.22001111546E+04  0.00000000000E+00 0. -1.
         -2   -1    0    0    0  501 -0.00000000000E+00 -0.00000000000E+00 -0.13830530644E+02  0.13830530644E+02  0.00000000000E+00 0.  1.
         23    2    1    2    0    0  0.15637229383E+02  0.38366514162E+02  0.43717566967E+03  0.44869653166E+03  0.92138477419E+02 0.  0.
          5    1    1    2  502    0 -0.60764646169E+02  0.23947471550E+02  0.15554227577E+04  0.15567990401E+04  0.41800000000E+01 0. -1.
         -5    1    1    2    0  502  0.45127416786E+02 -0.62313985712E+02  0.19368219659E+03  0.20844611351E+03  0.41800000000E+01 0.  1.
        -11    1    3    3    0    0 -0.36702780892E+02  0.29768039646E+02  0.23296836899E+03  0.23771304394E+03  0.00000000000E+00 0. -1.
         11    1    3    3    0    0  0.52340010274E+02  0.85984745153E+01  0.20420730068E+03  0.21098348772E+03  0.00000000000E+00 0.  1.
</event>
<event>
 7    1  0.6988825E-006  0.1741742E+03  0.7561462E-02  0.1173563E+00
          2   -1    0    0  501    0  0.00000000000E+00  0.00000000000E+00  0.46714351914E+03  0.46714351914E+03  0.00000000000E+00 0. -1.
         -2   -1    0    0    0  501 -0.00000000000E+00 -0.00000000000E+00 -0.13278873747E+03  0.13278873747E+03  0.00000000000E+00 0.  1.
         23    2    1    2    0    0 -0.96092506878E+02 -0.71416247523E+02 -0.47140126423E+02  0.15698016048E+03  0.89925129847E+02 0.  0.
          5    1    1    2  502    0  0.13138133480E+03  0.90941203073E+02  0.36629412358E+03  0.39965011563E+03  0.41800000000E+01 0. -1.
         -5    1    1    2    0  502 -0.35288827920E+02 -0.19524955550E+02  0.15200784514E+02  0.43301980498E+02  0.41800000000E+01 0.  1.
        -11    1    3    3    0    0 -0.10250226857E+03 -0.31066882210E+02 -0.23075595270E+02  0.10956436158E+03  0.00000000000E+00 0.  1.
         11    1    3    3    0    0  0.64097616882E+01 -0.40349365313E+02 -0.24064531152E+02  0.47415798903E+02  0.00000000000E+00 0. -1.
</event>
<event>
 7    1  0.6988825E-006  0.1124885E+03  0.7561462E-02  0.1256030E+00
          1   -1    0    0  501    0  0.00000000000E+00  0.00000000000E+00  0.14900792596E+04  0.14900792596E+04  0.00000000000E+00 0. -1.
         -1   -1    0    0    0  501 -0.00000000000E+00 -0.00000000000E+00 -0.12190844725E+02  0.12190844725E+02  0.00000000000E+00 0.  1.
         23    2    1    2    0    0  0.69282544807E+02  0.10087803428E+02  0.41993271829E+03  0.43464677248E+03  0.87592774526E+02 0.  0.
          5    1    1    2  502    0 -0.86505974447E+02 -0.26995019965E+02  0.10070868863E+04  0.10111644197E+04  0.41800000000E+01 0.  1.
         -5    1    1    2    0  502  0.17223429640E+02  0.16907216537E+02  0.50868810292E+02  0.56458912141E+02  0.41800000000E+01 0.  1.
        -11    1    3    3    0    0  0.81313890755E+02  0.29858275576E+02  0.36294676187E+03  0.37314047945E+03  0.00000000000E+00 0.  1.
         11    1    3    3    0    0 -0.12031345947E+02 -0.19770472148E+02  0.56985956414E+02  0.61506293033E+02  0.00000000000E+00 0. -1.
</event>
<event>
 7    1  0.6988825E-006  0.1230421E+03  0.7561462E-02  0.1238161E+00
         -2   -1    0    0    0  501 -0.00000000000E+00  0.00000000000E+00  0.28344124731E+02  0.28344124731E+02  0.00000000000E+00 0.  1.
          2   -1    0    0  501    0  0.00000000000E+00 -0.00000000000E+00 -0.93142060533E+03  0.93142060533E+03  0.00000000000E+00 0. -1.
         23    2    1    2    0    0  0.56771894620E+02 -0.67715012382E+02 -0.18049087317E+03  0.22112697445E+03  0.92259485202E+02 0.  0.
          5    1    1    2  502    0 -0.29009027202E+01  0.81343806499E+02 -0.25413694055E+03  0.26688628111E+03  0.41800000000E+01 0.  1.
         -5    1    1    2    0  502 -0.53870991900E+02 -0.13628794117E+02 -0.46844866688E+03  0.47175147450E+03  0.41800000000E+01 0.  1.
        -11    1    3    3    0    0 -0.95099028658E+01  0.47668179591E+01  0.46006556888E+01  0.11589945588E+02  0.00000000000E+00 0.  1.
         11    1    3    3    0    0  0.66281797486E+02 -0.72481830341E+02 -0.18509152886E+03  0.20953702886E+03  0.00000000000E+00 0. -1.
</event>
<event>
 7    1  0.6988825E-006  0.9241850E+02  0.7561462E-02  0.1297098E+00
         -1   -1    0    0    0  501 -0.00000000000E+00  0.00000000000E+00  0.32203629558E+02  0.32203629558E+02  0.00000000000E+00 0.  1.
          1   -1    0    0  501    0  0.00000000000E+00 -0.00000000000E+00 -0.37781117699E+03  0.37781117699E+03  0.00000000000E+00 0. -1.
         23    2    1    2    0    0 -0.29605930014E+01 -0.38086098360E+01 -0.10902281138E+03  0.14235331501E+03  0.91406904954E+02 0.  0.
          5    1    1    2  502    0  0.45480281772E+02 -0.12893886566E+02 -0.20859045252E+03  0.21392091441E+03  0.41800000000E+01 0. -1.
         -5    1    1    2    0  502 -0.42519688771E+02  0.16702496402E+02 -0.27994283531E+02  0.53740577124E+02  0.41800000000E+01 0. -1.
        -11    1    3    3    0    0 -0.41927080221E+02  0.19350750308E+02 -0.56765717841E+02  0.73175667509E+02  0.00000000000E+00 0.  1.
         11    1    3    3    0    0  0.38966487220E+02 -0.23159360144E+02 -0.52257093535E+02  0.69177647497E+02  0.00000000000E+00 0. -1.
</event>
<event>
 7    1  0.6988825E-006  0.1775159E+03  0.7561462E-02  0.1170229E+00
         -1   -1    0    0    0  501 -0.00000000000E+00  0.00000000000E+00  0.37746378044E+02  0.37746378044E+02  0.00000000000E+00 0.  1.
          1   -1    0    0  501    0  0.00000000000E+00 -0.00000000000E+00 -0.15612076378E+04  0.15612076378E+04  0.00000000000E+00 0. -1.
         23    2    1    2    0    0  0.50028795532E+02  0.16950020535E+03 -0.32374484513E+03  0.37985729872E+03  0.90816532893E+02 0.  0.
          5    1    1    2  502    0 -0.22522838970E+01 -0.10750983376E+02 -0.49467005281E+03  0.49480965024E+03  0.41800000000E+01 0.  1.
         -5    1    1    2    0  502 -0.47776511635E+02 -0.15874922197E+03 -0.70504636181E+03  0.72428706688E+03  0.41800000000E+01 0.  1.
        -11    1    3    3    0    0  0.29285800757E+02  0.12441907807E+03 -0.14019099315E+03  0.18971367815E+03  0.00000000000E+00 0.  1.
         11    1    3    3    0    0  0.20742994775E+02  0.45081127275E+02 -0.18355385198E+03  0.19014362058E+03  0.00000000000E+00 0. -1.
</event>
<event>
 7    1  0.6988825E-006  0.1326618E+03  0.7561462E-02  0.1223559E+00
          2   -1    0    0  501    0  0.00000000000E+00  0.00000000000E+00  0.33624704047E+03  0.33624704047E+03  0.00000000000E+00 0. -1.
         -2   -1    0    0    0  501 -0.00000000000E+00 -0.00000000000E+00 -0.57661575838E+02  0.57661575838E+02  0.00000000000E+00 0.  1.
         23    2    1    2    0    0 -0.50136510697E+02 -0.68371218963E+02  0.98143412600E+02  0.15854891437E+03  0.91199427208E+02 0.  0.
          5    1    1    2  502    0  0.48683939514E+02  0.10349134839E+03  0.14998395929E+03  0.18866172268E+03  0.41800000000E+01 0.  1.
         -5    1    1    2    0  502  0.14525711832E+01 -0.35120129426E+02  0.30458092739E+02  0.46697979263E+02  0.41800000000E+01 0.  1.
        -11    1    3    3    0    0 -0.69457291591E+02 -0.37163658408E+02  0.36532890761E+02  0.86833777810E+02  0.00000000000E+00 0.  1.
         11    1    3    3    0    0  0.19320780894E+02 -0.31207560555E+02  0.61610521839E+02  0.71715136557E+02  0.00000000000E+00 0. -1.
</event>
<event>
 7    1  0.6988825E-006  0.1531001E+03  0.7561462E-02  0.1196715E+00
          1   -1    0    0  501    0  0.00000000000E+00  0.00000000000E+00  0.65785535744E+03  0.65785535744E+03  0.00000000000E+00 0. -1.
         -1   -1    0    0    0  501 -0.00000000000E+00 -0.00000000000E+00 -0.40671103935E+02  0.40671103935E+02  0.00000000000E+00 0.  1.
         23    2    1    2    0    0 -0.47867652019E+02  0.10573447072E+03  0.21188131151E+03  0.25876361938E+03  0.92702913339E+02 0.  0.
          5    1    1    2  502    0  0.79714692362E+02 -0.52568178020E+02  0.15697221746E+03  0.18378137820E+03  0.41800000000E+01 0. -1.
         -5    1    1    2    0  502 -0.31847040343E+02 -0.53166292696E+02  0.24833072453E+03  0.25598146379E+03  0.41800000000E+01 0. -1.
        -11    1    3    3    0    0 -0.35787425108E+02  0.12262462351E+03  0.18421830453E+03  0.22417386513E+03  0.00000000000E+00 0. -1.
         11    1    3    3    0    0 -0.12080226911E+02 -0.16890152793E+02  0.27663006984E+02  0.34589754249E+02  0.00000000000E+00 0.  1.
</event>
<event>
 7    1  0.6988825E-006  0.1089705E+03  0.7561462E-02  0.1262488E+00
          1   -1    0    0  501    0  0.00000000000E+00  0.00000000000E+00  0.56392208952E+03  0.56392208952E+03  0.00000000000E+00 0. -1.
         -1   -1    0    0    0  501 -0.00000000000E+00 -0.00000000000E+00 -0.30574814163E+02  0.30574814163E+02  0.00000000000E+00 0.  1.
         23    2    1    2    0    0 -0.24295073635E+02  0.66762397623E+02  0.21397196115E+03  0.24421696281E+03  0.93864031593E+02 0.  0.
          5    1    1    2  502    0  0.71606283556E+02 -0.35376546132E+02  0.23713002490E+03  0.25025403287E+03  0.41800000000E+01 0. -1.
         -5    1    1    2    0  502 -0.47311209920E+02 -0.31385851491E+02  0.82245289310E+02  0.10002590800E+03  0.41800000000E+01 0. -1.
        -11    1    3    3    0    0 -0.33436628709E+02  0.36861057208E+02  0.31086914757E+02  0.58678291957E+02  0.00000000000E+00 0.  1.
         11    1    3    3    0    0  0.91415550737E+01  0.29901340415E+02  0.18288504640E+03  0.18553867086E+03  0.00000000000E+00 0. -1.
</event>
<event>
 7    1  0.6988825E-006  0.1286596E+03  0.7561462E-02  0.1229458E+00
          1   -1    0    0  501    0  0.00000000000E+00  0.00000000000E+00  0.78574718996E+02  0.78574718996E+02  0.00000000000E+00 0. -1.
         -1   -1    0    0    0  501 -0.00000000000E+00 -0.00000000000E+00 -0.26361942355E+03  0.26361942355E+03  0.00000000000E+00 0.  1.
         23    2    1    2    0    0 -0.33372464918E+02  0.63636082088E+02 -0.15721012767E+03  0.19527236679E+03  0.90846027053E+02 0.  0.
          5    1    1    2  502    0  0.76587571930E+02 -0.63805587767E+02 -0.27545084208E+02  0.10350368722E+03  0.41800000000E+01 0. -1.
         -5    1    1    2    0  502 -0.43215107013E+02  0.16950567921E+00 -0.28949267925E+00  0.43418088538E+02  0.41800000000E+01 0. -1.
        -11    1    3    3    0    0 -0.36060255780E+01  0.80055150474E+02 -0.94182295604E+02  0.12366137369E+03  0.00000000000E+00 0. -1.
         11    1    3    3    0    0 -0.29766439340E+02 -0.16419068386E+02 -0.63027832065E+02  0.71610993098E+02  0.00000000000E+00 0.  1.
</event>
<event>
 7    1  0.6988825E-006  0.1183834E+03  0.7561462E-02  0.1245788E+00
         -2   -1    0    0    0  501 -0.00000000000E+00  0.00000000000E+00  0.13330462347E+02  0.13330462347E+02  0.00000000000E+00 0.  1.
          2   -1    0    0  501    0  0.00000000000E+00 -0.00000000000E+00 -0.12022878375E+04  0.12022878375E+04  0.00000000000E+00 0. -1.
         23    2    1    2    0    0 -0.35161931234E+02  0.46339034525E+02 -0.37405916932E+03  0.38912603774E+03  0.90084091674E+02 0.  0.
          5    1    1    2  502    0  0.54626845467E+02 -0.79709233903E+02 -0.50616713464E+03  0.51532542612E+03  0.41800000000E+01 0. -1.
         -5    1    1    2    0  502 -0.19464914234E+02  0.33370199378E+02 -0.30873107116E+03  0.31116683594E+03  0.41800000000E+01 0. -1.
        -11    1    3    3    0    0  0.11058471034E+02 -0.18504305737E+02 -0.37309252407E+02  0.43089203144E+02  0.00000000000E+00 0.  1.
         11    1    3    3    0    0 -0.46220402267E+02  0.64843340262E+02 -0.33674991691E+03  0.34603683460E+03  0.00000000000E+00 0. -1.
</event>
<event>
 7    1  0.6988825E-006  0.1058147E+03  0.7561462E-02  0.1268523E+00
          2   -1    0    0  501    0  0.00000000000E+00  0.00000000000E+00  0.37767271933E+03  0.37767271933E+03  0.00000000000E+00 0. -1.
         -2   -1    0    0    0  501 -0.00000000000E+00 -0.00000000000E+00 -0.45143659673E+02  0.45143659673E+02  0.00000000000E+00 0.  1.
         23    2    1    2    0    0 -0.42269932985E+02  0.39185331545E+02  0.74651309127E+02  0.13046292222E+03  0.90141658940E+02 0.  0.
          5    1    1    2  502    0  0.64290541447E+01  0.41647807545E+02  0.44941589266E+02  0.61750234463E+02  0.41800000000E+01 0.  1.
         -5    1    1    2    0  502  0.35840878841E+02 -0.80833139090E+02  0.21293616127E+03  0.23060322232E+03  0.41800000000E+01 0.  1.
        -11    1    3    3    0    0 -0.22377328651E+02 -0.12321474738E+02  0.70623415086E+02  0.75101466935E+02  0.00000000000E+00 0. -1.
         11    1    3    3    0    0 -0.19892604334E+02  0.51506806283E+02  0.40278940406E+01  0.55361455283E+02  0.00000000000E+00 0.  1.
</event>
<event>
 7    1  0.6988825E-006  0.1007354E+03  0.7561462E-02  0.1278757E+00
          2   -1    0    0  501    0  0.00000000000E+00  0.00000000000E+00  0.16881686505E+04  0.16881686505E+04  0.00000000000E+00 0. -1.
         -2   -1    0    0    0  501 -0.00000000000E+00 -0.00000000000E+00 -0.99996266633E+01  0.99996266633E+01  0.00000000000E+00 0.  1.
         23    2    1    2    0    0  0.17656357052E+01 -0.57977082429E+02  0.47731196617E+03  0.48942079384E+03  0.91332036204E+02 0.  0.
          5    1    1    2  502    0 -0.29704625097E+02  0.63180545821E+02  0.32595919716E+03  0.33337818875E+03  0.41800000000E+01 0. -1.
         -5    1    1    2    0  502  0.27938989392E+02 -0.52034633925E+01  0.87489786046E+03  0.87536929453E+03  0.41800000000E+01 0. -1.
        -11    1    3    3    0    0 -0.32490956061E+02  0.32433383097E+01  0.88517836528E+02  0.94348231847E+02  0.00000000000E+00 0. -1.
         11    1    3    3    0    0  0.34256591766E+02 -0.61220420738E+02  0.38879412965E+03  0.39507256200E+03  0.00000000000E+00 0.  1.
</event>
<event>
 7    1  0.6988825E-006  0.8379668E+02  0.7561462E-02  0.1318610E+00
          2   -1    0    0  501    0  0.00000000000E+00  0.00000000000E+00  0.84838808982E+03  0.84838808982E+03  0.00000000000E+00 0. -1.
         -2   -1    0    0    0  501 -0.00000000000E+00 -0.00000000000E+00 -0.19963208751E+02  0.19963208751E+02  0.00000000000E+00 0.  1.
         23    2    1    2    0    0  0.58897613052E+02  0.84490167153E+01  0.23680858526E+03  0.26073587785E+03  0.91458062730E+02 0.  0.
          5    1    1    2  502    0 -0.61414835824E+02 -0.83840857594E+01  0.11281808578E+03  0.12879234384E+03  0.41800000000E+01 0. -1.
         -5    1    1    2    0  502  0.25172227721E+01 -0.64930955908E-01  0.47879821003E+03  0.47882307688E+03  0.41800000000E+01 0. -1.
        -11    1    3    3    0    0  0.14881276788E+02  0.42441080869E+02  0.57493205866E+02  0.72994290632E+02  0.00000000000E+00 0.  1.
         11    1    3    3    0    0  0.44016336264E+02 -0.33992064153E+02  0.17931537939E+03  0.18774158722E+03  0.00000000000E+00 0. -1.
</event>
<event>
 7    1  0.6988825E-006  0.1034283E+03  0.7561462E-02  0.1273248E+00
         -2   -1    0    0    0  501 -0.00000000000E+00  0.00000000000E+00  0.14678198138E+02  0.14678198138E+02  0.00000000000E+00 0.  1.
          2   -1    0    0  501    0  0.00000000000E+00 -0.00000000000E+00 -0.10906430475E+04  0.10906430475E+04  0.00000000000E+00 0. -1.
         23    2    1    2    0    0  0.39599509887E+02  0.37702266702E+02 -0.34325118339E+03  0.35999106204E+03  0.93715568354E+02 0.  0.
          5    1    1    2  502    0  0.44334845934E+02 -0.18411735135E+02 -0.20272224393E+03  0.20837070605E+03  0.41800000000E+01 0. -1.
         -5    1    1    2    0  502 -0.83934355821E+02 -0.19290531566E+02 -0.52999142209E+03  0.53695947760E+03  0.41800000000E+01 0. -1.
        -11    1    3    3    0    0 -0.11059398618E+02  0.49211543726E+01 -0.65591781601E+00  0.12122635289E+02  0.00000000000E+00 0.  1.
         11    1    3    3    0    0  0.50658908506E+02  0.32781112329E+02 -0.34259526557E+03  0.34786842675E+03  0.00000000000E+00 0. -1.
</event>
<event>
 7    1  0.6988825E-006  0.8605892E+02  0.7561462E-02  0.1312686E+00
         -2   -1    0    0    0  501 -0.00000000000E+00  0.00000000000E+00  0.19671631222E+03  0.19671631222E+03  0.00000000000E+00 0.  1.
          2   -1    0    0  501    0  0.00000000000E+00 -0.00000000000E+00 -0.81795643110E+02  0.81795643110E+02  0.00000000000E+00 0. -1.
         23    2    1    2    0    0  0.10599729858E+02  0.58975186610E+01  0.12312486752E+03  0.15256301413E+03  0.89267044749E+02 0.  0.
          5    1    1    2  502    0 -0.51364787203E+02 -0.15118423790E+02  0.36245507864E+02  0.64792880339E+02  0.41800000000E+01 0. -1.
         -5    1    1    2    0  502  0.40765057345E+02  0.92209051287E+01 -0.44449706278E+02  0.61156060860E+02  0.41800000000E+01 0. -1.
        -11    1    3    3    0    0  0.37218790798E+02  0.23937359213E+02  0.10861740223E+03  0.11728587136E+03  0.00000000000E+00 0.  1.
         11    1    3    3    0    0 -0.26619060940E+02 -0.18039840552E+02  0.14507465295E+02  0.35277142767E+02  0.00000000000E+00 0. -1.
</event>
<event>
 7    1  0.6988825E-006  0.7806162E+02  0.7561462E-02  0.1334644E+00
          4   -1    0    0  501    0  0.00000000000E+00  0.00000000000E+00  0.14745522617E+03  0.14745522617E+03  0.00000000000E+00 0. -1.
         -4   -1    0    0    0  501 -0.00000000000E+00 -0.00000000000E+00 -0.14849470012E+03  0.14849470012E+03  0.00000000000E+00 0.  1.
         23    2    1    2    0    0 -0.62055678749E+02 -0.19735127565E+01 -0.78223479521E+02  0.13638246891E+03  0.92878754627E+02 0.  0.
          5    1    1    2  502    0  0.15051341050E+02  0.14259331923E+02 -0.32931195693E+02  0.39138311973E+02  0.41800000000E+01 0.  1.
         -5    1    1    2    0  502  0.47004337699E+02 -0.12285819166E+02  0.11011520126E+03  0.12042914540E+03  0.41800000000E+01 0.  1.
        -11    1    3    3    0    0 -0.50086907635E+02  0.25527652722E+02 -0.40362542216E+01  0.56361784199E+02  0.00000000000E+00 0. -1.
         11    1    3    3    0    0 -0.11968771114E+02 -0.27501165479E+02 -0.74187225299E+02  0.80020684715E+02  0.00000000000E+00 0.  1.
</event>
<event>
 7    1  0.6988825E-006  0.1268203E+03  0.7561462E-02  0.1232252E+00
         -3   -1    0    0    0  501 -0.00000000000E+00  0.00000000000E+00  0.17766155800E+02  0.17766155800E+02  0.00000000000E+00 0.  1.
          3   -1    0    0  501    0  0.00000000000E+00 -0.00000000000E+00 -0.13429816835E+04  0.13429816835E+04  0.00000000000E+00 0. -1.
         23    2    1    2    0    0  0.33051599202E+02  0.88681677556E+02 -0.36840340852E+03  0.39116341603E+03  0.91273755731E+02 0.  0.
          5    1    1    2  502    0  0.35034030117E+02 -0.12266404804E+02 -0.50164191218E+03  0.50303074300E+03  0.41800000000E+01 0. -1.
         -5    1    1    2    0  502 -0.68085629319E+02 -0.76415272752E+02 -0.45517020696E+03  0.46655368023E+03  0.41800000000E+01 0. -1.
        -11    1    3    3    0    0  0.37615660403E+02  0.15750298342E+02 -0.50196298965E+02  0.64673628591E+02  0.00000000000E+00 0.  1.
         11    1    3    3    0    0 -0.45640612010E+01  0.72931379214E+02 -0.31820710956E+03  0.32648978744E+03  0.00000000000E+00 0. -1.
</event>
<event>
 7    1  0.6988825E-006  0.5876350E+02  0.7561462E-02  0.1403095E+00
         -2   -1    0    0    0  501 -0.00000000000E+00  0.00000000000E+00  0.13890859348E+03  0.13890859348E+03  0.00000000000E+00 0.  1.
          2   -1    0    0  501    0  0.00000000000E+00 -0.00000000000E+00 -0.20151738321E+03  0.20151738321E+03  0.00000000000E+00 0. -1.
         23    2    1    2    0    0  0.14275708373E+02  0.42206369464E+02  0.91788494288E+02  0.13678198387E+03  0.91098902045E+02 0.  0.
          5    1    1    2  502    0  0.19334272567E+02 -0.10274731005E+02  0.15718306093E+02  0.27274928769E+02  0.41800000000E+01 0. -1.
         -5    1    1    2    0  502 -0.33609980941E+02 -0.31931638459E+02 -0.17011559012E+03  0.17636906405E+03  0.41800000000E+01 0. -1.
        -11    1    3    3    0    0  0.18906830871E+02  0.28328671195E+02  0.10899745168E+03  0.11419468612E+03  0.00000000000E+00 0.  1.
         11    1    3    3    0    0 -0.46311224977E+01  0.13877698269E+02 -0.17208957393E+02  0.22587297745E+02  0.00000000000E+00 0. -1.
</event>
<event>
 7    1  0.6988825E-006  0.2546355E+03  0.7561462E-02  0.1110410E+00
         -1   -1    0    0    0  501 -0.00000000000E+00  0.00000000000E+00  0.72229761232E+02  0.72229761232E+02  0.00000000000E+00 0.  1.
          1   -1    0    0  501    0  0.00000000000E+00 -0.00000000000E+00 -0.10270783095E+04  0.10270783095E+04  0.00000000000E+00 0. -1.
         23    2    1    2    0    0 -0.15700566990E+03  0.19017062476E+03 -0.39699553045E+03  0.47668209120E+03  0.93833458695E+02 0.  0.
          5    1    1    2  502    0  0.42553409584E+02 -0.28044776600E+02 -0.25803842571E+03  0.26305627479E+03  0.41800000000E+01 0. -1.
         -5    1    1    2    0  502  0.11445226031E+03 -0.16212584816E+03 -0.29981459210E+03  0.35956970474E+03  0.41800000000E+01 0. -1.
        -11    1    3    3    0    0 -0.48501303899E+02  0.12252165948E+03 -0.24383631820E+03  0.27716436206E+03  0.00000000000E+00 0.  1.
         11    1    3    3    0    0 -0.10850436600E+03  0.67648965271E+02 -0.15315921225E+03  0.19951772914E+03  0.00000000000E+00 0. -1.
</event>
<event>
 7    1  0.6988825E-006  0.1071509E+03  0.7561462E-02  0.1265939E+00
          2   -1    0    0  501    0  0.00000000000E+00  0.00000000000E+00  0.14089129072E+03  0.14089129072E+03  0.00000000000E+00 0. -1.
         -2   -1    0    0    0  501 -0.00000000000E+00 -0.00000000000E+00 -0.11063798419E+03  0.11063798419E+03  0.00000000000E+00 0.  1.
         23    2    1    2    0    0  0.13872640577E+01  0.32046867506E+02 -0.38316038990E+02  0.10531406135E+03  0.92703864298E+02 0.  0.
          5    1    1    2  502    0 -0.40384263616E+02  0.31663587147E+02  0.43218877803E+02  0.67222133984E+02  0.41800000000E+01 0. -1.
         -5    1    1    2    0  502  0.38996999558E+02 -0.63710454653E+02  0.25350467714E+02  0.78993079570E+02  0.41800000000E+01 0. -1.
        -11    1    3    3    0    0 -0.40284496356E+02  0.15937043805E+02 -0.42186701343E+02  0.60469395417E+02  0.00000000000E+00 0.  1.
         11    1    3    3    0    0  0.41671760413E+02  0.16109823701E+02  0.38706623534E+01  0.44844665934E+02  0.00000000000E+00 0. -1.
</event>
<event>
 7    1  0.6988825E-006  0.7908123E+02  0.7561462E-02  0.1331679E+00
          2   -1    0    0  501    0  0.00000000000E+00  0.00000000000E+00  0.31806889631E+03  0.31806889631E+03  0.00000000000E+00 0. -1.
         -2   -1    0    0    0  501 -0.00000000000E+00 -0.00000000000E+00 -0.54002481599E+02  0.54002481599E+02  0.00000000000E+00 0.  1.
         23    2    1    2    0    0  0.75125486832E+00  0.92050926557E+01  0.13747124059E+02  0.92084074091E+02  0.90582532348E+02 0.  0.
          5    1    1    2  502    0 -0.55808163818E+02  0.17314126975E+02  0.16395375530E+03  0.17410524523E+03  0.41800000000E+01 0.  1.
         -5    1    1    2    0  502  0.55056908949E+02 -0.26519219631E+02  0.86365535351E+02  0.10588205858E+03  0.41800000000E+01 0.  1.
        -11    1    3    3    0    0  0.18874989388E+02  0.67118981129E+01  0.48685445728E+02  0.52645868085E+02  0.00000000000E+00 0. -1.
         11    1    3    3    0    0 -0.18123734520E+02  0.24931945429E+01 -0.34938321668E+02  0.39438206006E+02  0.00000000000E+00 0.  1.
</event>
<event>
 7    1  0.6988825E-006  0.1111645E+03  0.7561462E-02  0.1258429E+00
         -1   -1    0    0    0  501 -0.00000000000E+00  0.00000000000E+00  0.73007108733E+02  0.73007108733E+02  0.00000000000E+00 0.  1.
          1   -1    0    0  501    0  0.00000000000E+00 -0.00000000000E+00 -0.17716861168E+03  0.17716861168E+03  0.00000000000E+00 0. -1.
         23    2    1    2    0    0 -0.26507794728E+02 -0.10847171527E+02 -0.29937519796E+02  0.10192751381E+03  0.93127002898E+02 0.  0.
          5    1    1    2  502    0  0.29416758740E+02 -0.53423800113E+02 -0.51358428523E+02  0.79841146621E+02  0.41800000000E+01 0. -1.
         -5    1    1    2    0  502 -0.29089640121E+01  0.64270971640E+02 -0.22865554632E+02  0.68407059985E+02  0.41800000000E+01 0. -1.
        -11    1    3    3    0    0 -0.47592862322E+02  0.26030453656E+02 -0.22841053380E+02  0.58858973667E+02  0.00000000000E+00 0.  1.
         11    1    3    3    0    0  0.21085067594E+02 -0.36877625183E+02 -0.70964664162E+01  0.43068540145E+02  0.00000000000E+00 0. -1.
</event>
<event>
 7    1  0.6988825E-006  0.9916467E+02  0.7561462E-02  0.1282062E+00
         -1   -1    0    0    0  501 -0.00000000000E+00  0.00000000000E+00  0.21092754731E+02  0.21092754731E+02  0.00000000000E+00 0. -1.
          1   -1    0    0  501    0  0.00000000000E+00 -0.00000000000E+00 -0.72905765810E+03  0.72905765810E+03  0.00000000000E+00 0.  1.
         23    2    1    2    0    0  0.27307556899E+02 -0.18722312558E+02 -0.11494029739E+03  0.13385434209E+03  0.60078992006E+02 0.  0.
          5    1    1    2  502    0 -0.48694800863E+02  0.83430686331E+02 -0.29077469306E+03  0.30642985751E+03  0.41800000000E+01 0.  1.
         -5    1    1    2    0  502  0.21387243964E+02 -0.64708373772E+02 -0.30224991292E+03  0.30986621323E+03  0.41800000000E+01 0. -1.
        -11    1    3    3    0    0  0.19680884511E+02 -0.11193716070E+02 -0.11991898130E+03  0.12203769323E+03  0.00000000000E+00 0.  1.
         11    1    3    3    0    0  0.76266723880E+01 -0.75285964879E+01  0.49786839040E+01  0.11816648857E+02  0.00000000000E+00 0. -1.
</event>
<event>
 7    1  0.6988825E-006  0.1741571E+03  0.7561462E-02  0.1173581E+00
         -1   -1    0    0    0  501 -0.00000000000E+00  0.00000000000E+00  0.10896415802E+03  0.10896415802E+03  0.00000000000E+00 0.  1.
          1   -1    0    0  501    0  0.00000000000E+00 -0.00000000000E+00 -0.28576162025E+03  0.28576162025E+03  0.00000000000E+00 0. -1.
         23    2    1    2    0    0 -0.14204015046E+03  0.16047804476E+02 -0.65070786483E+02  0.17435617702E+03  0.75716133271E+02 0.  0.
          5    1    1    2  502    0 -0.18781450702E+02  0.16861713360E+02 -0.12077145739E+02  0.28291166768E+02  0.41800000000E+01 0. -1.
         -5    1    1    2    0  502  0.16082160117E+03 -0.32909517835E+02 -0.99649530003E+02  0.19207843449E+03  0.41800000000E+01 0. -1.
        -11    1    3    3    0    0 -0.14084262311E+03  0.30428738647E+02 -0.47719776968E+02  0.15178843742E+03  0.00000000000E+00 0.  1.
         11    1    3    3    0    0 -0.11975273570E+01 -0.14380934172E+02 -0.17351009515E+02  0.22567739599E+02  0.00000000000E+00 0. -1.
</event>
<event>
 7    1  0.6988825E-006  0.5038186E+02  0.7561462E-02  0.1443293E+00
          1   -1    0    0  501    0  0.00000000000E+00  0.00000000000E+00  0.67710462765E+02  0.67710462765E+02  0.00000000000E+00 0. -1.
         -1   -1    0    0    0  501 -0.00000000000E+00 -0.00000000000E+00 -0.16373308393E+03  0.16373308393E+03  0.00000000000E+00 0.  1.
         23    2    1    2    0    0  0.20224069479E+02 -0.76560696314E+01 -0.51241600338E+02  0.96829992028E+02  0.79263594182E+02 0.  0.
          5    1    1    2  502    0 -0.86709084918E+01 -0.23633274607E+02 -0.81162671001E+02  0.85079773664E+02  0.41800000000E+01 0. -1.
         -5    1    1    2    0  502 -0.11553160987E+02  0.31289344238E+02  0.36381650170E+02  0.49533781006E+02  0.41800000000E+01 0. -1.
        -11    1    3    3    0    0  0.11646199110E+02 -0.22014184639E+02  0.14619189038E+02  0.28878694000E+02  0.00000000000E+00 0. -1.
         11    1    3    3    0    0  0.85778703687E+01  0.14358115008E+02 -0.65860789375E+02  0.67951298028E+02  0.00000000000E+00 0.  1.
</event>
<event>
 7    1  0.6988825E-006  0.1911686E+03  0.7561462E-02  0.1157412E+00
          2   -1    0    0  501    0  0.00000000000E+00  0.00000000000E+00  0.18533325737E+03  0.18533325737E+03  0.00000000000E+00 0. -1.
         -2   -1    0    0    0  501 -0.00000000000E+00 -0.00000000000E+00 -0.27332140050E+03  0.27332140050E+03  0.00000000000E+00 0.  1.
         23    2    1    2    0    0 -0.45785184679E+02  0.16547949786E+03 -0.14183062664E+03  0.23950576482E+03  0.88132498990E+02 0.  0.
          5    1    1    2  502    0 -0.19308789391E+02 -0.13185709648E+01 -0.19585556251E+02  0.27850213479E+02  0.41800000000E+01 0. -1.
         -5    1    1    2    0  502  0.65093974070E+02 -0.16416092690E+03  0.73428039761E+02  0.19129867957E+03  0.41800000000E+01 0. -1.
        -11    1    3    3    0    0  0.20290643614E+01  0.11962979022E+03 -0.58882585985E+02  0.13335127574E+03  0.00000000000E+00 0. -1.
         11    1    3    3    0    0 -0.47814249040E+02  0.45849707649E+02 -0.82948040655E+02  0.10615448908E+03  0.00000000000E+00 0.  1.
</event>
<event>
 7    1  0.6988825E-006  0.1095833E+03  0.7561462E-02  0.1261344E+00
          4   -1    0    0  501    0  0.00000000000E+00  0.00000000000E+00  0.29457973463E+03  0.29457973463E+03  0.00000000000E+00 0. -1.
         -4   -1    0    0    0  501 -0.00000000000E+00 -0.00000000000E+00 -0.70949588602E+02  0.70949588602E+02  0.00000000000E+00 0.  1.
         23    2    1    2    0    0  0.11405792312E+02 -0.52321057263E+02  0.15440891917E+02  0.11681640980E+03  0.10266483002E+03 0.  0.
          5    1    1    2  502    0 -0.57395843417E+02 -0.92617140955E+01  0.10329501528E+03  0.11860604863E+03  0.41800000000E+01 0.  1.
         -5    1    1    2    0  502  0.45990051105E+02  0.61582771358E+02  0.10489423883E+03  0.13010686480E+03  0.41800000000E+01 0.  1.
        -11    1    3    3    0    0  0.21809676845E+02  0.75929201446E+01 -0.32158797011E+02  0.39591699453E+02  0.00000000000E+00 0.  1.
         11    1    3    3    0    0 -0.10403884533E+02 -0.59913977407E+02  0.47599688928E+02  0.77224710347E+02  0.00000000000E+00 0. -1.
</event>
<event>
 7    1  0.6988825E-006  0.1205863E+03  0.7561462E-02  0.1242133E+00
         -1   -1    0    0    0  501 -0.00000000000E+00  0.00000000000E+00  0.55238095894E+02  0.55238095894E+02  0.00000000000E+00 0.  1.
          1   -1    0    0  501    0  0.00000000000E+00 -0.00000000000E+00 -0.39510377037E+03  0.39510377037E+03  0.00000000000E+00 0. -1.
         23    2    1    2    0    0 -0.87578216948E+02  0.43248536201E+02 -0.12150548139E+03  0.18039946697E+03  0.90774477180E+02 0.  0.
          5    1    1    2  502    0  0.73041509348E+02  0.21522434406E+02 -0.17404095059E+03  0.19001579449E+03  0.41800000000E+01 0.  1.
         -5    1    1    2    0  502  0.14536707600E+02 -0.64770970607E+02 -0.44319242493E+02  0.79926604810E+02  0.41800000000E+01 0.  1.
        -11    1    3    3    0    0 -0.31527418445E+02  0.22046496698E+02 -0.11361968347E+03  0.11995606947E+03  0.00000000000E+00 0. -1.
         11    1    3    3    0    0 -0.56050798503E+02  0.21202039503E+02 -0.78857979135E+01  0.60443397495E+02  0.00000000000E+00 0.  1.
</event>
<event>
 7    1  0.6988825E-006  0.1861335E+03  0.7561462E-02  0.1161996E+00
          1   -1    0    0  501    0  0.00000000000E+00  0.00000000000E+00  0.95983227401E+03  0.95983227401E+03  0.00000000000E+00 0. -1.
         -1   -1    0    0    0  501 -0.00000000000E+00 -0.00000000000E+00 -0.51549144275E+02  0.51549144275E+02  0.00000000000E+00 0.  1.
         23    2    1    2    0    0  0.83098691138E+02  0.14904021355E+03  0.23129429584E+03  0.30209218703E+03  0.92974515043E+02 0.  0.
          5    1    1    2  502    0 -0.38187961725E+02  0.65117641914E+01  0.24221449024E+03  0.24532846385E+03  0.41800000000E+01 0. -1.
         -5    1    1    2    0  502 -0.44910729414E+02 -0.15555197774E+03  0.43477434364E+03  0.46396076740E+03  0.41800000000E+01 0. -1.
        -11    1    3    3    0    0  0.32280982882E+02  0.43130033125E+02  0.14942921285E+02  0.55906641016E+02  0.00000000000E+00 0.  1.
         11    1    3    3    0    0  0.50817708257E+02  0.10591018043E+03  0.21635137456E+03  0.24618554601E+03  0.00000000000E+00 0. -1.
</event>
<event>
 7    1  0.6988825E-006  0.1145231E+03  0.7561462E-02  0.1252416E+00
          2   -1    0    0  501    0  0.00000000000E+00  0.00000000000E+00  0.20283676627E+03  0.20283676627E+03  0.00000000000E+00 0.  1.
         -2   -1    0    0    0  501 -0.00000000000E+00 -0.00000000000E+00 -0.12528676029E+03  0.12528676029E+03  0.00000000000E+00 0. -1.
         23    2    1    2    0    0  0.57415037056E+02  0.98668052987E-01 -0.68688130623E+02  0.12730289542E+03  0.90506749354E+02 0.  0.
          5    1    1    2  502    0 -0.26353655691E+02 -0.56145621019E+02  0.32352388822E+02  0.70078494493E+02  0.41800000000E+01 0.  1.
         -5    1    1    2    0  502 -0.31061381365E+02  0.56046952966E+02  0.11388574777E+03  0.13074213665E+03  0.41800000000E+01 0.  1.
        -11    1    3    3    0    0  0.72844923845E+02  0.21802789954E+02 -0.33288537511E+02  0.83005248686E+02  0.00000000000E+00 0.  1.
         11    1    3    3    0    0 -0.15429886789E+02 -0.21704121901E+02 -0.35399593112E+02  0.44297646736E+02  0.00000000000E+00 0. -1.
</event>
<event>
 7    1  0.6988825E-006  0.9799740E+02  0.7561462E-02  0.1284564E+00
         -1   -1    0    0    0  501 -0.00000000000E+00  0.00000000000E+00  0.19789067775E+02  0.19789067775E+02  0.00000000000E+00 0.  1.
          1   -1    0    0  501    0  0.00000000000E+00 -0.00000000000E+00 -0.67943449246E+03  0.67943449246E+03  0.00000000000E+00 0. -1.
         23    2    1    2    0    0 -0.32095709212E+02  0.22533516307E+02 -0.24938204350E+03  0.26851798143E+03  0.91501960750E+02 0.  0.
          5    1    1    2  502    0  0.48915333758E+02 -0.55254126289E+02 -0.36410354448E+03  0.37153006857E+03  0.41800000000E+01 0.  1.
         -5    1    1    2    0  502 -0.16819624546E+02  0.32720609982E+02 -0.46159836698E+02  0.59175510234E+02  0.41800000000E+01 0.  1.
        -11    1    3    3    0    0 -0.69669482070E+01 -0.27873398227E+02 -0.28128176357E+02  0.40207698283E+02  0.00000000000E+00 0.  1.
         11    1    3    3    0    0 -0.25128761005E+02  0.50406914534E+02 -0.22125386715E+03  0.22831028314E+03  0.00000000000E+00 0. -1.
</event>
<event>
 7    1  0.6988825E-006  0.7650984E+02  0.7561462E-02  0.1339258E+00
         -2   -1    0    0    0  501 -0.00000000000E+00  0.00000000000E+00  0.86824231379E+03  0.86824231379E+03  0.00000000000E+00 0.  1.
          2   -1    0    0  501    0  0.00000000000E+00 -0.00000000000E+00 -0.14483840138E+02  0.14483840138E+02  0.00000000000E+00 0. -1.
         23    2    1    2    0    0 -0.30725184706E+02 -0.71334322933E+01  0.30269488646E+03  0.31676372037E+03  0.87864312556E+02 0.  0.
          5    1    1    2  502    0 -0.10071475840E+02 -0.10717667174E+02  0.49016591454E+03  0.49040432216E+03  0.41800000000E+01 0. -1.
         -5    1    1    2    0  502  0.40796660546E+02  0.17851099467E+02  0.60897672644E+02  0.75558111393E+02  0.41800000000E+01 0. -1.
        -11    1    3    3    0    0  0.30716141750E+02  0.24716085212E+01  0.87745489395E+02  0.92999253340E+02  0.00000000000E+00 0. -1.
         11    1    3    3    0    0 -0.61441326455E+02 -0.96050408144E+01  0.21494939707E+03  0.22376446703E+03  0.00000000000E+00 0.  1.
</event>
<event>
 7    1  0.6988825E-006  0.1698221E+03  0.7561462E-02  0.1178034E+00
         -1   -1    0    0    0  501 -0.00000000000E+00  0.00000000000E+00  0.80258320932E+03  0.80258320932E+03  0.00000000000E+00 0.  1.
          1   -1    0    0  501    0  0.00000000000E+00 -0.00000000000E+00 -0.52421819568E+02  0.52421819568E+02  0.00000000000E+00 0. -1.
         23    2    1    2    0    0  0.65880750040E+02  0.12390100432E+03  0.57359589948E+03  0.59710703235E+03  0.88503220700E+02 0.  0.
          5    1    1    2  502    0  0.31504339728E+00  0.23978007085E+02  0.35434947543E+02  0.42990138212E+02  0.41800000000E+01 0. -1.
         -5    1    1    2    0  502 -0.66195793437E+02 -0.14787901141E+03  0.14113054273E+03  0.21490785834E+03  0.41800000000E+01 0. -1.
        -11    1    3    3    0    0  0.38510292030E+02  0.15644216996E+02  0.71144759823E+02  0.82397578653E+02  0.00000000000E+00 0. -1.
         11    1    3    3    0    0  0.27370458010E+02  0.10825678733E+03  0.50245113966E+03  0.51470945369E+03  0.00000000000E+00 0.  1.
</event>
<event>
 7    1  0.6988825E-006  0.1059469E+03  0.7561462E-02  0.1268265E+00
         -1   -1    0    0    0  501 -0.00000000000E+00  0.00000000000E+00  0.14017037869E+03  0.14017037869E+03  0.00000000000E+00 0.  1.
          1   -1    0    0  501    0  0.00000000000E+00 -0.00000000000E+00 -0.15061741076E+03  0.15061741076E+03  0.00000000000E+00 0. -1.
         23    2    1    2    0    0  0.30293654408E+02  0.83713326409E+02  0.22969409993E+02  0.13365571980E+03  0.97008407495E+02 0.  0.
          5    1    1    2  502    0  0.28674467242E+02 -0.22403098756E+02  0.32865402512E+02  0.49211086025E+02  0.41800000000E+01 0. -1.
         -5    1    1    2    0  502 -0.58968121650E+02 -0.61310227653E+02 -0.66281844581E+02  0.10792098363E+03  0.41800000000E+01 0. -1.
        -11    1    3    3    0    0  0.93420115859E+01  0.46151107019E+02 -0.36980652163E+02  0.59872919538E+02  0.00000000000E+00 0. -1.
         11    1    3    3    0    0  0.20951642822E+02  0.37562219390E+02  0.59950062156E+02  0.73782800265E+02  0.00000000000E+00 0.  1.
</event>
<event>
 7    1  0.6988825E-006  0.1208448E+03  0.7561462E-02  0.1241710E+00
         -1   -1    0    0    0  501 -0.00000000000E+00  0.00000000000E+00  0.47385518409E+03  0.47385518409E+03  0.00000000000E+00 0.  1.
          1   -1    0    0  501    0  0.00000000000E+00 -0.00000000000E+00 -0.77128178024E+02  0.77128178024E+02  0.00000000000E+00 0. -1.
         23    2    1    2    0    0  0.99242881898E+02 -0.58749404473E+02  0.34200353712E+03  0.37219111008E+03  0.90879925647E+02 0.  0.
          5    1    1    2  502    0 -0.30405320183E+02  0.15940762846E+02  0.85307300284E+02  0.92051068963E+02  0.41800000000E+01 0. -1.
         -5    1    1    2    0  502 -0.68837561716E+02  0.42808641626E+02 -0.30583831340E+02  0.86741183070E+02  0.41800000000E+01 0. -1.
        -11    1    3    3    0    0  0.13800503366E+02 -0.34439241076E+02  0.29776268482E+02  0.47572485575E+02  0.00000000000E+00 0. -1.
         11    1    3    3    0    0  0.85442378533E+02 -0.24310163397E+02  0.31222726864E+03  0.32461862451E+03  0.00000000000E+00 0.  1.
</event>
<event>
 7    1  0.6988825E-006  0.1799450E+03  0.7561462E-02  0.1167856E+00
          2   -1    0    0  501    0  0.00000000000E+00  0.00000000000E+00  0.33627011678E+03  0.33627011678E+03  0.00000000000E+00 0. -1.
         -2   -1    0    0    0  501 -0.00000000000E+00 -0.00000000000E+00 -0.98958003079E+02  0.98958003079E+02  0.00000000000E+00 0.  1.
         23    2    1    2    0    0  0.16057941772E+02 -0.13219510320E+03  0.84036211512E+02  0.19674514138E+03  0.11795407160E+03 0.  0.
          5    1    1    2  502    0 -0.68060722209E+02  0.49596055861E+02  0.81377386300E+02  0.11718268671E+03  0.41800000000E+01 0. -1.
         -5    1    1    2    0  502  0.52002780437E+02  0.82599047339E+02  0.71898515885E+02  0.12130029176E+03  0.41800000000E+01 0. -1.
        -11    1    3    3    0    0 -0.50674089549E+02 -0.71742990755E+02  0.40102697477E+02  0.96556441624E+02  0.00000000000E+00 0. -1.
         11    1    3    3    0    0  0.66732031321E+02 -0.60452112446E+02  0.43933514034E+02  0.10018869976E+03  0.00000000000E+00 0.  1.
</event>
<event>
 7    1  0.6988825E-006  0.5673505E+03  0.7561462E-02  0.9975559E-01
          2   -1    0    0  501    0  0.00000000000E+00  0.00000000000E+00  0.53565333957E+03  0.53565333957E+03  0.00000000000E+00 0. -1.
         -2   -1    0    0    0  501 -0.00000000000E+00 -0.00000000000E+00 -0.64313650135E+03  0.64313650135E+03  0.00000000000E+00 0.  1.
         23    2    1    2    0    0  0.19326708863E+03  0.52988616899E+03 -0.13988630863E+03  0.59199863108E+03  0.11297203293E+03 0.  0.
          5    1    1    2  502    0 -0.15226419834E+03 -0.37437110404E+03  0.93241286023E+02  0.41478852378E+03  0.41800000000E+01 0. -1.
         -5    1    1    2    0  502 -0.41002890286E+02 -0.15551506495E+03 -0.60838139171E+02  0.17200268607E+03  0.41800000000E+01 0.  1.
        -11    1    3    3    0    0  0.19017868118E+03  0.43557326220E+03 -0.14665454570E+03  0.49739275557E+03  0.00000000000E+00 0.  1.
         11    1    3    3    0    0  0.30884074444E+01  0.94312906786E+02  0.67682370728E+01  0.94605875505E+02  0.00000000000E+00 0. -1.
</event>
<event>
 7    1  0.6988825E-006  0.5582474E+02  0.7561462E-02  0.1416238E+00
          1   -1    0    0  501    0  0.00000000000E+00  0.00000000000E+00  0.18566194970E+03  0.18566194970E+03  0.00000000000E+00 0. -1.
         -1   -1    0    0    0  501 -0.00000000000E+00 -0.00000000000E+00 -0.86144934084E+02  0.86144934084E+02  0.00000000000E+00 0.  1.
         23    2    1    2    0    0  0.55383833466E+01 -0.14683151255E+01 -0.32617120903E+02  0.96460540121E+02  0.90597624611E+02 0.  0.
          5    1    1    2  502    0  0.10572335787E+02 -0.78311727039E+01  0.14915243152E+03  0.14978992549E+03  0.41800000000E+01 0. -1.
         -5    1    1    2    0  502 -0.16110719134E+02  0.92994878294E+01 -0.17018295002E+02  0.25556418170E+02  0.41800000000E+01 0.  1.
        -11    1    3    3    0    0  0.20316186634E+01  0.38551786965E+02 -0.40025817418E+02  0.55609655750E+02  0.00000000000E+00 0.  1.
         11    1    3    3    0    0  0.35067646832E+01 -0.40020102091E+02  0.74086965149E+01  0.40850884372E+02  0.00000000000E+00 0. -1.
</event>
<event>
 7    1  0.6988825E-006  0.1252925E+03  0.7561462E-02  0.1234613E+00
         -2   -1    0    0    0  501 -0.00000000000E+00  0.00000000000E+00  0.32601015946E+02  0.32601015946E+02  0.00000000000E+00 0.  1.
          2   -1    0    0  501    0  0.00000000000E+00 -0.00000000000E+00 -0.15053814051E+04  0.15053814051E+04  0.00000000000E+00 0. -1.
         23    2    1    2    0    0  0.15872434309E+02  0.12124994550E+01 -0.54555375044E+02  0.10743206503E+03  0.91169925546E+02 0.  0.
          5    1    1    2  502    0 -0.13365489672E+02 -0.85268308014E+02 -0.10125251093E+04  0.10162056337E+04  0.41800000000E+01 0. -1.
         -5    1    1    2    0  502 -0.25069446372E+01  0.84055808559E+02 -0.40569990482E+03  0.41434472230E+03  0.41800000000E+01 0.  1.
        -11    1    3    3    0    0  0.81565799276E+01  0.39799432210E+02 -0.57449732873E+00  0.40630710646E+02  0.00000000000E+00 0.  1.
         11    1    3    3    0    0  0.77158543816E+01 -0.38586932755E+02 -0.53980877716E+02  0.66801354382E+02  0.00000000000E+00 0. -1.
</event>
<event>
 7    1  0.6988825E-006  0.9735998E+02  0.7561462E-02  0.1285948E+00
          3   -1    0    0  501    0  0.00000000000E+00  0.00000000000E+00  0.17210636237E+03  0.17210636237E+03  0.00000000000E+00 0. -1.
         -3   -1    0    0    0  501 -0.00000000000E+00 -0.00000000000E+00 -0.82639512834E+02  0.82639512834E+02  0.00000000000E+00 0.  1.
         23    2    1    2    0    0  0.59322744240E+00  0.46989526796E+02  0.24055622421E+02  0.10597023720E+03  0.91883897695E+02 0.  0.
          5    1    1    2  502    0 -0.53384423685E+01 -0.69082673505E+02  0.90954529921E+02  0.11441640467E+03  0.41800000000E+01 0. -1.
         -5    1    1    2    0  502  0.47452149261E+01  0.22093146709E+02 -0.25543302809E+02  0.34359233324E+02  0.41800000000E+01 0. -1.
        -11    1    3    3    0    0 -0.44566258764E+02  0.15154380009E+02  0.17960550280E+02  0.50382417766E+02  0.00000000000E+00 0. -1.
         11    1    3    3    0    0  0.45159486206E+02  0.31835146787E+02  0.60950721412E+01  0.55587819437E+02  0.00000000000E+00 0.  1.
</event>
<event>
 7    1  0.6988825E-006  0.9954447E+02  0.7561462E-02  0.1281257E+00
         -1   -1    0    0    0  501 -0.00000000000E+00  0.00000000000E+00  0.29655441454E+02  0.29655441454E+02  0.00000000000E+00 0.  1.
          1   -1    0    0  501    0  0.00000000000E+00 -0.00000000000E+00 -0.71964286191E+03  0.71964286191E+03  0.00000000000E+00 0. -1.
         23    2    1    2    0    0 -0.78162988282E+02  0.36593029732E+02 -0.19883945794E+03  0.23517408735E+03  0.91220714563E+02 0.  0.
          5    1    1    2  502    0  0.25939379934E+02  0.19464331201E+02 -0.36508845920E+03  0.36654981525E+03  0.41800000000E+01 0.  1.
         -5    1    1    2    0  502  0.52223608348E+02 -0.56057360933E+02 -0.12605950333E+03  0.14757440077E+03  0.41800000000E+01 0.  1.
        -11    1    3    3    0    0 -0.63418479238E+02  0.39388976027E+02 -0.20558512603E+03  0.21872045855E+03  0.00000000000E+00 0. -1.
         11    1    3    3    0    0 -0.14744509044E+02 -0.27959462947E+01  0.67456680966E+01  0.16453628801E+02  0.00000000000E+00 0.  1.
</event>
<event>
 7    1  0.6988825E-006  0.7256362E+02  0.7561462E-02  0.1351586E+00
         -1   -1    0    0    0  501 -0.00000000000E+00  0.00000000000E+00  0.23904222540E+02  0.23904222540E+02  0.00000000000E+00 0.  1.
          1   -1    0    0  501    0  0.00000000000E+00 -0.00000000000E+00 -0.56720739564E+03  0.56720739564E+03  0.00000000000E+00 0. -1.
         23    2    1    2    0    0 -0.46021580112E+02 -0.48174880090E+01 -0.22691390403E+03  0.24776471374E+03  0.88069515189E+02 0.  0.
          5    1    1    2  502    0 -0.16118764747E+02 -0.12642530629E+02 -0.24922733543E+03  0.25010274945E+03  0.41800000000E+01 0. -1.
         -5    1    1    2    0  502  0.62140344859E+02  0.17460018638E+02 -0.67161933652E+02  0.93244155001E+02  0.41800000000E+01 0. -1.
        -11    1    3    3    0    0 -0.35481934003E+02 -0.20246990025E+02 -0.22533971015E+03  0.22901286692E+03  0.00000000000E+00 0. -1.
         11    1    3    3    0    0 -0.10539646109E+02  0.15429502016E+02 -0.15741938765E+01  0.18751846814E+02  0.00000000000E+00 0.  1.
</event>
<event>
 7    1  0.6988825E-006  0.5859855E+02  0.7561462E-02  0.1403809E+00
          2   -1    0    0  501    0  0.00000000000E+00  0.00000000000E+00  0.47811523358E+03  0.47811523358E+03  0.00000000000E+00 0. -1.
         -2   -1    0    0    0  501 -0.00000000000E+00 -0.00000000000E+00 -0.29002186897E+02  0.29002186897E+02  0.00000000000E+00 0.  1.
         23    2    1    2    0    0  0.18511825143E+02 -0.17574274830E+01  0.10279467847E+03  0.13843457513E+03  0.90838369912E+02 0.  0.
          5    1    1    2  502    0 -0.24046159781E+02  0.15639698505E+02  0.80856519917E+01  0.30094320688E+02  0.41800000000E+01 0.  1.
         -5    1    1    2    0  502  0.55343346385E+01 -0.13882271022E+02  0.33823271621E+03  0.33858852465E+03  0.41800000000E+01 0.  1.
        -11    1    3    3    0    0  0.16625211821E+02 -0.35340112738E+02  0.96649415657E+02  0.10424217373E+03  0.00000000000E+00 0. -1.
         11    1    3    3    0    0  0.18866133217E+01  0.33582685255E+02  0.61452628155E+01  0.34192401405E+02  0.00000000000E+00 0.  1.
</event>
<event>
 7    1  0.6988825E-006  0.2289178E+03  0.7561462E-02  0.1127404E+00
          1   -1    0    0  501    0  0.00000000000E+00  0.00000000000E+00  0.92672004328E+03  0.92672004328E+03  0.00000000000E+00 0. -1.
         -1   -1    0    0    0  501 -0.00000000000E+00 -0.00000000000E+00 -0.60953733706E+02  0.60953733706E+02  0.00000000000E+00 0.  1.
         23    2    1    2    0    0  0.12742880574E+03 -0.16599991886E+03  0.36214256720E+03  0.42814054351E+03  0.91449507503E+02 0.  0.
          5    1    1    2  502    0  0.12889631470E+02  0.62296395825E+02  0.87253846205E+02  0.10806335924E+03  0.41800000000E+01 0.  1.
         -5    1    1    2    0  502 -0.14031843721E+03  0.10370352303E+03  0.41636989617E+03  0.45146987424E+03  0.41800000000E+01 0.  1.
        -11    1    3    3    0    0  0.38601330174E+02 -0.10479775665E+03  0.12504065763E+03  0.16765380566E+03  0.00000000000E+00 0.  1.
         11    1    3    3    0    0  0.88827475570E+02 -0.61202162207E+02  0.23710190957E+03  0.26048673785E+03  0.00000000000E+00 0. -1.
</event>
<event>
 7    1  0.6988825E-006  0.1839246E+03  0.7561462E-02  0.1164058E+00
         -2   -1    0    0    0  501 -0.00000000000E+00  0.00000000000E+00  0.74764128277E+02  0.74764128277E+02  0.00000000000E+00 0.  1.
          2   -1    0    0  501    0  0.00000000000E+00 -0.00000000000E+00 -0.57088781752E+03  0.57088781752E+03  0.00000000000E+00 0. -1.
         23    2    1    2    0    0  0.16600707519E+03 -0.44811780726E+02 -0.19127503360E+03  0.27396846529E+03  0.94372330645E+02 0.  0.
          5    1    1    2  502    0 -0.65246978311E+02  0.48646322983E+02 -0.23558449507E+03  0.24928128617E+03  0.41800000000E+01 0. -1.
         -5    1    1    2    0  502 -0.10076009688E+03 -0.38345422576E+01 -0.69264160570E+02  0.12240219433E+03  0.41800000000E+01 0. -1.
        -11    1    3    3    0    0  0.56674013470E+02 -0.50564890632E+02 -0.36196268438E+02  0.84136328754E+02  0.00000000000E+00 0.  1.
         11    1    3    3    0    0  0.10933306172E+03  0.57531099061E+01 -0.15507876516E+03  0.18983213654E+03  0.00000000000E+00 0. -1.
</event>
<event>
 7    1  0.6988825E-006  0.2233167E+03  0.7561462E-02  0.1131434E+00
         -2   -1    0    0    0  501 -0.00000000000E+00  0.00000000000E+00  0.27415437496E+02  0.27415437496E+02  0.00000000000E+00 0. -1.
          2   -1    0    0  501    0  0.00000000000E+00 -0.00000000000E+00 -0.20075720843E+04  0.20075720843E+04  0.00000000000E+00 0.  1.
         23    2    1    2    0    0  0.10446564755E+03  0.17483878627E+03 -0.77302510993E+03  0.80442100009E+03  0.89686409817E+02 0.  0.
          5    1    1    2  502    0 -0.69520962149E+02 -0.31119753508E+02 -0.63683654750E+03  0.64138901134E+03  0.41800000000E+01 0.  1.
         -5    1    1    2    0  502 -0.34944685399E+02 -0.14371903276E+03 -0.57029498942E+03  0.58917751041E+03  0.41800000000E+01 0.  1.
        -11    1    3    3    0    0  0.38958840567E+02  0.36957143220E+01 -0.12485136464E+03  0.13084079186E+03  0.00000000000E+00 0.  1.
         11    1    3    3    0    0  0.65506806981E+02  0.17114307195E+03 -0.64817374529E+03  0.67358020823E+03  0.00000000000E+00 0. -1.
</event>
<event>
 7    1  0.6988825E-006  0.6824858E+02  0.7561462E-02  0.1366152E+00
         -2   -1    0    0    0  501 -0.00000000000E+00  0.00000000000E+00  0.45579379969E+02  0.45579379969E+02  0.00000000000E+00 0.  1.
          2   -1    0    0  501    0  0.00000000000E+00 -0.00000000000E+00 -0.38097935033E+03  0.38097935033E+03  0.00000000000E+00 0. -1.
         23    2    1    2    0    0  0.37914219468E+01  0.49402773690E+02 -0.56941036661E+02  0.11729970305E+03  0.89788249514E+02 0.  0.
          5    1    1    2  502    0 -0.15124515382E+02 -0.35155865444E+02 -0.28639029327E+03  0.28896636192E+03  0.41800000000E+01 0.  1.
         -5    1    1    2    0  502  0.11333093435E+02 -0.14246908247E+02  0.79313595745E+01  0.20292665328E+02  0.41800000000E+01 0.  1.
        -11    1    3    3    0    0  0.32887894694E+02  0.24301053492E+02 -0.66163898650E+02  0.77780565071E+02  0.00000000000E+00 0. -1.
         11    1    3    3    0    0 -0.29096472747E+02  0.25101720198E+02  0.92228619894E+01  0.39519137978E+02  0.00000000000E+00 0.  1.
</event>
<event>
 7    1  0.6988825E-006  0.1831094E+03  0.7561462E-02  0.1164827E+00
         -1   -1    0    0    0  501 -0.00000000000E+00  0.00000000000E+00  0.68472380479E+03  0.68472380479E+03  0.00000000000E+00 0.  1.
          1   -1    0    0  501    0  0.00000000000E+00 -0.00000000000E+00 -0.57407719232E+02  0.57407719232E+02  0.00000000000E+00 0. -1.
         23    2    1    2    0    0 -0.29210932776E+02  0.15120865575E+03  0.40727995076E+03  0.44585676773E+03  0.95885154635E+02 0.  0.
          5    1    1    2  502    0  0.45584333045E+02 -0.16289854544E+03  0.21750483726E+03  0.27557157719E+03  0.41800000000E+01 0.  1.
         -5    1    1    2    0  502 -0.16373400269E+02  0.11689889690E+02  0.25312975383E+01  0.20703179093E+02  0.41800000000E+01 0.  1.
        -11    1    3    3    0    0 -0.50683514381E+02  0.43978113093E+02  0.20780921957E+03  0.21837482639E+03  0.00000000000E+00 0.  1.
         11    1    3    3    0    0  0.21472581606E+02  0.10723054265E+03  0.19947073118E+03  0.22748194134E+03  0.00000000000E+00 0. -1.
</event>
<event>
 7    1  0.6988825E-006  0.7656149E+02  0.7561462E-02  0.1339103E+00
         -2   -1    0    0    0  501 -0.00000000000E+00  0.00000000000E+00  0.15445830114E+03  0.15445830114E+03  0.00000000000E+00 0.  1.
          2   -1    0    0  501    0  0.00000000000E+00 -0.00000000000E+00 -0.81093677931E+02  0.81093677931E+02  0.00000000000E+00 0. -1.
         23    2    1    2    0    0 -0.83634071162E+01 -0.13963420158E+02  0.59037268832E+02  0.10998614747E+03  0.91359891872E+02 0.  0.
          5    1    1    2  502    0 -0.22133264885E+02  0.21055947980E+02 -0.47214373781E+02  0.56390636202E+02  0.41800000000E+01 0. -1.
         -5    1    1    2    0  502  0.30496672001E+02 -0.70925278222E+01  0.61541728158E+02  0.69175195401E+02  0.41800000000E+01 0.  1.
        -11    1    3    3    0    0  0.37859004413E+02  0.92564621868E+01  0.14038286746E+02  0.41425352167E+02  0.00000000000E+00 0.  1.
         11    1    3    3    0    0 -0.46222411530E+02 -0.23219882345E+02  0.44998982086E+02  0.68560795303E+02  0.00000000000E+00 0. -1.
</event>
<event>
 7    1  0.6988825E-006  0.1489179E+03  0.7561462E-02  0.1201809E+00
         -1   -1    0    0    0  501 -0.00000000000E+00  0.00000000000E+00  0.27472559211E+03  0.27472559211E+03  0.00000000000E+00 0.  1.
          1   -1    0    0  501    0  0.00000000000E+00 -0.00000000000E+00 -0.10944163232E+03  0.10944163232E+03  0.00000000000E+00 0. -1.
         23    2    1    2    0    0  0.10406726402E+03  0.71415248477E+02  0.73506890927E+02  0.18402729805E+03  0.11194932004E+03 0.  0.
          5    1    1    2  502    0  0.29311669582E+01 -0.46515908085E+02  0.75753464594E+02  0.89041457999E+02  0.41800000000E+01 0. -1.
         -5    1    1    2    0  502 -0.10699843098E+03 -0.24899340392E+02  0.16023604267E+02  0.11109846839E+03  0.41800000000E+01 0.  1.
        -11    1    3    3    0    0  0.44966510699E+02  0.68488050164E+02  0.90877321130E+02  0.12235721309E+03  0.00000000000E+00 0. -1.
         11    1    3    3    0    0  0.59100753321E+02  0.29271983126E+01 -0.17370430203E+02  0.61670084956E+02  0.00000000000E+00 0.  1.
</event>
<event>
 7    1  0.6988825E-006  0.1089853E+03  0.7561462E-02  0.1262461E+00
          3   -1    0    0  501    0  0.00000000000E+00  0.00000000000E+00  0.51670075823E+03  0.51670075823E+03  0.00000000000E+00 0. -1.
         -3   -1    0    0    0  501 -0.00000000000E+00 -0.00000000000E+00 -0.27707938868E+02  0.27707938868E+02  0.00000000000E+00 0.  1.
         23    2    1    2    0    0  0.99571876516E+01 -0.45041101846E+02  0.16641015456E+03  0.19535979130E+03  0.91352405966E+02 0.  0.
          5    1    1    2  502    0  0.50339372063E+02 -0.39499791038E+01  0.17535200916E+03  0.18252521533E+03  0.41800000000E+01 0. -1.
         -5    1    1    2    0  502 -0.60296559715E+02  0.48991080950E+02  0.14723065565E+03  0.16652369047E+03  0.41800000000E+01 0. -1.
        -11    1    3    3    0    0  0.32275713916E+01 -0.66721846212E+02  0.71818386793E+02  0.98082122023E+02  0.00000000000E+00 0.  1.
         11    1    3    3    0    0  0.67296162600E+01  0.21680744366E+02  0.94591767765E+02  0.97277669278E+02  0.00000000000E+00 0. -1.
</event>
<event>
 7    1  0.6988825E-006  0.1322203E+03  0.7561462E-02  0.1224198E+00
         -2   -1    0    0    0  501 -0.00000000000E+00  0.00000000000E+00  0.16301139528E+03  0.16301139528E+03  0.00000000000E+00 0. -1.
          2   -1    0    0  501    0  0.00000000000E+00 -0.00000000000E+00 -0.38462451473E+03  0.38462451473E+03  0.00000000000E+00 0.  1.
         23    2    1    2    0    0  0.81334586966E+02 -0.22667674736E+02  0.12026578473E+03  0.17399849236E+03  0.93179814619E+02 0.  0.
          5    1    1    2  502    0  0.24221762069E+02 -0.14248116395E+02 -0.25960075723E+02  0.38485068664E+02  0.41800000000E+01 0.  1.
         -5    1    1    2    0  502 -0.10555634903E+03  0.36915791131E+02 -0.31591882846E+03  0.33515234899E+03  0.41800000000E+01 0.  1.
        -11    1    3    3    0    0  0.73486773076E+02  0.23611113539E+02  0.87914711450E+02  0.11699054231E+03  0.00000000000E+00 0.  1.
         11    1    3    3    0    0  0.78478138899E+01 -0.46278788275E+02  0.32351073276E+02  0.57007950052E+02  0.00000000000E+00 0. -1.
</event>
<event>
 7    1  0.6988825E-006  0.1807826E+03  0.7561462E-02  0.1167048E+00
         -1   -1    0    0    0  501 -0.00000000000E+00  0.00000000000E+00  0.34480836064E+03  0.34480836064E+03  0.00000000000E+00 0.  1.
          1   -1    0    0  501    0  0.00000000000E+00 -0.00000000000E+00 -0.12884440519E+03  0.12884440519E+03  0.00000000000E+00 0. -1.
         23    2    1    2    0    0 -0.14567687275E+03 -0.95081403403E+02  0.15737610045E+03  0.25152156380E+03  0.90739382506E+02 0.  0.
          5    1    1    2  502    0  0.69789221021E+02  0.71695677907E+02  0.91897813587E+02  0.13591720327E+03  0.41800000000E+01 0. -1.
         -5    1    1    2    0  502  0.75887651727E+02  0.23385725496E+02 -0.33309958585E+02  0.86213998762E+02  0.41800000000E+01 0. -1.
        -11    1    3    3    0    0 -0.84752757879E+02 -0.85216963433E+02  0.55439917279E+02  0.13235764146E+03  0.00000000000E+00 0. -1.
         11    1    3    3    0    0 -0.60924114869E+02 -0.98644399705E+01  0.10193618317E+03  0.11916392234E+03  0.00000000000E+00 0.  1.
</event>
<event>
 7    1  0.6988825E-006  0.1135268E+03  0.7561462E-02  0.1254175E+00
          2   -1    0    0  501    0  0.00000000000E+00  0.00000000000E+00  0.13971062454E+04  0.13971062454E+04  0.00000000000E+00 0. -1.
         -2   -1    0    0    0  501 -0.00000000000E+00 -0.00000000000E+00 -0.14022059622E+02  0.14022059622E+02  0.00000000000E+00 0.  1.
         23    2    1    2    0    0  0.74926353430E+02 -0.41318082678E+00  0.39461032746E+03  0.41195747034E+03  0.91528780549E+02 0.  0.
          5    1    1    2  502    0 -0.20909279108E+02  0.51929076849E+02  0.65588514106E+03  0.65828308321E+03  0.41800000000E+01 0.  1.
         -5    1    1    2    0  502 -0.54017074322E+02 -0.51515896022E+02  0.33258871721E+03  0.34088775143E+03  0.41800000000E+01 0.  1.
        -11    1    3    3    0    0  0.59047878758E+02 -0.27204192812E+02  0.35816850718E+03  0.36402115272E+03  0.00000000000E+00 0. -1.
         11    1    3    3    0    0  0.15878474673E+02  0.26791011985E+02  0.36441820286E+02  0.47936317619E+02  0.00000000000E+00 0.  1.
</event>
<event>
 7    1  0.6988825E-006  0.1561059E+03  0.7561462E-02  0.1193165E+00
         -3   -1    0    0    0  501 -0.00000000000E+00  0.00000000000E+00  0.26130771636E+03  0.26130771636E+03  0.00000000000E+00 0.  1.
          3   -1    0    0  501    0  0.00000000000E+00 -0.00000000000E+00 -0.94043548804E+02  0.94043548804E+02  0.00000000000E+00 0. -1.
         23    2    1    2    0    0  0.10212236848E+03  0.45853152900E+02  0.68548485399E+02  0.16061034300E+03  0.92548893313E+02 0.  0.
          5    1    1    2  502    0 -0.32551544169E+02 -0.82213845701E+02  0.43182191290E+02  0.98493113959E+02  0.41800000000E+01 0.  1.
         -5    1    1    2    0  502 -0.69570824312E+02  0.36360692801E+02  0.55533490869E+02  0.96247808207E+02  0.41800000000E+01 0.  1.
        -11    1    3    3    0    0  0.57548910894E+02 -0.23888311252E+02  0.33282323490E+02  0.70641642226E+02  0.00000000000E+00 0. -1.
         11    1    3    3    0    0  0.44573457587E+02  0.69741464152E+02  0.35266161909E+02  0.89968700775E+02  0.00000000000E+00 0.  1.
</event>
<event>
 7    1  0.6988825E-006  0.1429675E+03  0.7561462E-02  0.1209391E+00
         -1   -1    0    0    0  501 -0.00000000000E+00  0.00000000000E+00  0.31500469402E+03  0.31500469402E+03  0.00000000000E+00 0.  1.
          1   -1    0    0  501    0  0.00000000000E+00 -0.00000000000E+00 -0.75958080307E+02  0.75958080307E+02  0.00000000000E+00 0. -1.
         23    2    1    2    0    0 -0.72881574102E+02  0.72561652562E+02  0.15881808057E+03  0.21024096911E+03  0.91657869881E+02 0.  0.
          5    1    1    2  502    0  0.33094072822E+02 -0.10479297318E+03  0.47400767979E+02  0.11975429048E+03  0.41800000000E+01 0. -1.
         -5    1    1    2    0  502  0.39787501280E+02  0.32231320620E+02  0.32827765168E+02  0.60967514735E+02  0.41800000000E+01 0. -1.
        -11    1    3    3    0    0 -0.86840704030E+02  0.58085110433E+02  0.87923862472E+02  0.13654960096E+03  0.00000000000E+00 0. -1.
         11    1    3    3    0    0  0.13959129929E+02  0.14476542129E+02  0.70894218096E+02  0.73691368150E+02  0.00000000000E+00 0.  1.
</event>
<event>
 7    1  0.6988825E-006  0.1372035E+03  0.7561462E-02  0.1217142E+00
         -2   -1    0    0    0  501 -0.00000000000E+00  0.00000000000E+00  0.25840212507E+03  0.25840212507E+03  0.00000000000E+00 0. -1.
          2   -1    0    0  501    0  0.00000000000E+00 -0.00000000000E+00 -0.99933257100E+02  0.99933257100E+02  0.00000000000E+00 0.  1.
         23    2    1    2    0    0 -0.96483466576E+02  0.51959151868E+01  0.14968913488E+03  0.20002945223E+03  0.90933425093E+02 0.  0.
          5    1    1    2  502    0  0.53012902864E+02 -0.59820418819E+02  0.29599076376E+02  0.85337143730E+02  0.41800000000E+01 0. -1.
         -5    1    1    2    0  502  0.43470563712E+02  0.54624503632E+02 -0.20819343289E+02  0.72968786214E+02  0.41800000000E+01 0. -1.
        -11    1    3    3    0    0 -0.75246336546E+02  0.38814241541E+02  0.65926348507E+02  0.10730722221E+03  0.00000000000E+00 0.  1.
         11    1    3    3    0    0 -0.21237130030E+02 -0.33618326354E+02  0.83762786376E+02  0.92722230022E+02  0.00000000000E+00 0. -1.
</event>
<event>
 7    1  0.6988825E-006  0.2320268E+03  0.7561462E-02  0.1125221E+00
          2   -1    0    0  501    0  0.00000000000E+00  0.00000000000E+00  0.74512321365E+03  0.74512321365E+03  0.00000000000E+00 0. -1.
         -2   -1    0    0    0  501 -0.00000000000E+00 -0.00000000000E+00 -0.86547980041E+02  0.86547980041E+02  0.00000000000E+00 0.  1.
         23    2    1    2    0    0  0.16847059778E+03  0.12062176800E+03  0.16010728669E+03  0.27755093533E+03  0.92022960289E+02 0.  0.
          5    1    1    2  502    0 -0.14257226626E+03 -0.30490610456E+02  0.26501226028E+03  0.30249875856E+03  0.41800000000E+01 0. -1.
         -5    1    1    2    0  502 -0.25898331524E+02 -0.90131157548E+02  0.23345568663E+03  0.25162149979E+03  0.41800000000E+01 0. -1.
        -11    1    3    3    0    0  0.47115128875E+02  0.86113154677E+02  0.90211673444E+02  0.13331712869E+03  0.00000000000E+00 0. -1.
         11    1    3    3    0    0  0.12135546891E+03  0.34508613327E+02  0.69895613245E+02  0.14423380664E+03  0.00000000000E+00 0.  1.
</event>
<event>
 7    1  0.6988825E-006  0.1826509E+03  0.7561462E-02  0.1165262E+00
          1   -1    0    0  501    0  0.00000000000E+00  0.00000000000E+00  0.34492777160E+02  0.34492777160E+02  0.00000000000E+00 0. -1.
         -1   -1    0    0    0  501 -0.00000000000E+00 -0.00000000000E+00 -0.10530211197E+04  0.10530211197E+04  0.00000000000E+00 0.  1.
         23    2    1    2    0    0  0.15888492279E+03 -0.36329020581E+01 -0.51654076252E+03  0.54790375908E+03  0.90147397093E+02 0.  0.
          5    1    1    2  502    0 -0.39084698761E+02  0.41226880032E+02 -0.72936311101E+02  0.92544298535E+02  0.41800000000E+01 0. -1.
         -5    1    1    2    0  502 -0.11980022403E+03 -0.37593977973E+02 -0.42905126893E+03  0.44706583925E+03  0.41800000000E+01 0.  1.
        -11    1    3    3    0    0  0.10220868394E+03  0.41445462117E+02 -0.31002131060E+03  0.32905554916E+03  0.00000000000E+00 0. -1.
         11    1    3    3    0    0  0.56676238854E+02 -0.45078364175E+02 -0.20651945191E+03  0.21884820992E+03  0.00000000000E+00 0.  1.
</event>
<event>
 7    1  0.6988825E-006  0.1206431E+03  0.7561462E-02  0.1242040E+00
         -1   -1    0    0    0  501 -0.00000000000E+00  0.00000000000E+00  0.57695939806E+02  0.57695939806E+02  0.00000000000E+00 0.  1.
          1   -1    0    0  501    0  0.00000000000E+00 -0.00000000000E+00 -0.38210129477E+03  0.38210129477E+03  0.00000000000E+00 0. -1.
         23    2    1    2    0    0  0.33579822058E+02  0.94123926447E+02 -0.12787202219E+03  0.18629946370E+03  0.91483977490E+02 0.  0.
          5    1    1    2  502    0 -0.36358308833E+02 -0.19776135842E+02 -0.16901963480E+03  0.17406358470E+03  0.41800000000E+01 0.  1.
         -5    1    1    2    0  502  0.27784867755E+01 -0.74347790605E+02 -0.27513697967E+02  0.79434186169E+02  0.41800000000E+01 0.  1.
        -11    1    3    3    0    0  0.50968759149E+02  0.30912462731E+02 -0.25726467367E+02  0.64924924987E+02  0.00000000000E+00 0.  1.
         11    1    3    3    0    0 -0.17388937092E+02  0.63211463715E+02 -0.10214555482E+03  0.12137453872E+03  0.00000000000E+00 0. -1.
</event>
<event>
 7    1  0.6988825E-006  0.1116311E+03  0.7561462E-02  0.1257579E+00
          2   -1    0    0  501    0  0.00000000000E+00  0.00000000000E+00  0.63599739897E+03  0.63599739897E+03  0.00000000000E+00 0.  1.
         -2   -1    0    0    0  501 -0.00000000000E+00 -0.00000000000E+00 -0.45425884836E+02  0.45425884836E+02  0.00000000000E+00 0. -1.
         23    2    1    2    0    0 -0.17884266330E+02  0.28502216576E+02  0.22344673029E+02  0.98617276615E+02  0.89965879656E+02 0.  0.
          5    1    1    2  502    0 -0.47335884934E+02 -0.38986308353E+02  0.32341762612E+03  0.32920670031E+03  0.41800000000E+01 0.  1.
         -5    1    1    2    0  502  0.65220151263E+02  0.10484091777E+02  0.24480921498E+03  0.25359930688E+03  0.41800000000E+01 0.  1.
        -11    1    3    3    0    0  0.26577689198E+02 -0.17348213220E+02  0.29801063489E+01  0.31878128849E+02  0.00000000000E+00 0.  1.
         11    1    3    3    0    0 -0.44461955528E+02  0.45850429796E+02  0.19364566680E+02  0.66739147766E+02  0.00000000000E+00 0. -1.
</event>
<event>
 7    1  0.6988825E-006  0.1036709E+03  0.7561462E-02  0.1272761E+00
          2   -1    0    0  501    0  0.00000000000E+00  0.00000000000E+00  0.49741477145E+03  0.49741477145E+03  0.00000000000E+00 0. -1.
         -2   -1    0    0    0  501 -0.00000000000E+00 -0.00000000000E+00 -0.35699007851E+02  0.35699007851E+02  0.00000000000E+00 0.  1.
         23    2    1    2    0    0 -0.21670596226E+02 -0.26456706852E+02  0.68742901834E+02  0.11929031771E+03  0.91296337653E+02 0.  0.
          5    1    1    2  502    0 -0.45534859729E+02  0.10373091862E+02  0.75381636650E+02  0.88774365835E+02  0.41800000000E+01 0.  1.
         -5    1    1    2    0  502  0.67205455955E+02  0.16083614990E+02  0.31759122511E+03  0.32504909575E+03  0.41800000000E+01 0.  1.
        -11    1    3    3    0    0  0.32299460380E+02 -0.16763586793E+02  0.48947692025E+02  0.60993028598E+02  0.00000000000E+00 0. -1.
         11    1    3    3    0    0 -0.53970056606E+02 -0.96931200595E+01  0.19795209808E+02  0.58297289113E+02  0.00000000000E+00 0.  1.
</event>
<event>
 7    1  0.6988825E-006  0.1692802E+03  0.7561462E-02  0.1178601E+00
          2   -1    0    0  501    0  0.00000000000E+00  0.00000000000E+00  0.21115494803E+03  0.21115494803E+03  0.00000000000E+00 0.  1.
         -2   -1    0    0    0  501 -0.00000000000E+00 -0.00000000000E+00 -0.19489061663E+03  0.19489061663E+03  0.00000000000E+00 0. -1.
         23    2    1    2    0    0 -0.69126045078E+02  0.13357414361E+03 -0.73308647372E+02  0.19089237934E+03  0.91898208699E+02 0.  0.
          5    1    1    2  502    0 -0.16250429104E+01 -0.11354463183E+03  0.83966035362E+02  0.14128974371E+03  0.41800000000E+01 0.  1.
         -5    1    1    2    0  502  0.70751087988E+02 -0.20029511776E+02  0.56069434108E+01  0.73863441620E+02  0.41800000000E+01 0.  1.
        -11    1    3    3    0    0 -0.25866798939E+02  0.67650833365E+02  0.13439811743E+02  0.73663797635E+02  0.00000000000E+00 0.  1.
         11    1    3    3    0    0 -0.43259246138E+02  0.65923310244E+02 -0.86748459115E+02  0.11722858171E+03  0.00000000000E+00 0. -1.
</event>
<event>
 7    1  0.6988825E-006  0.1199457E+03  0.7561462E-02  0.1243187E+00
          2   -1    0    0  501    0  0.00000000000E+00  0.00000000000E+00  0.11591989203E+03  0.11591989203E+03  0.00000000000E+00 0. -1.
         -2   -1    0    0    0  501 -0.00000000000E+00 -0.00000000000E+00 -0.18312011077E+03  0.18312011077E+03  0.00000000000E+00 0.  1.
         23    2    1    2    0    0 -0.35537855490E+02  0.45135690271E+02 -0.10408245012E+03  0.15066597524E+03  0.92557603475E+02 0.  0.
          5    1    1    2  502    0 -0.10905282456E+02  0.36497628004E+02 -0.14814690587E+02  0.41084662498E+02  0.41800000000E+01 0. -1.
         -5    1    1    2    0  502  0.46443137946E+02 -0.81633318274E+02  0.51696921970E+02  0.10728936506E+03  0.41800000000E+01 0.  1.
        -11    1    3    3    0    0 -0.28036598928E+02 -0.24672990864E+02 -0.47930011427E+02  0.60762598306E+02  0.00000000000E+00 0.  1.
         11    1    3    3    0    0 -0.75012565621E+01  0.69808681134E+02 -0.56152438697E+02  0.89903376930E+02  0.00000000000E+00 0. -1.
</event>
<event>
 7    1  0.6988825E-006  0.1069997E+03  0.7561462E-02  0.1266229E+00
          1   -1    0    0  501    0  0.00000000000E+00  0.00000000000E+00  0.24441264889E+03  0.24441264889E+03  0.00000000000E+00 0. -1.
         -1   -1    0    0    0  501 -0.00000000000E+00 -0.00000000000E+00 -0.79666618929E+02  0.79666618929E+02  0.00000000000E+00 0.  1.
         23    2    1    2    0    0 -0.48576834792E+02 -0.29299708677E+02  0.26903994341E+01  0.11165946581E+03  0.96137486180E+02 0.  0.
          5    1    1    2  502    0  0.80667741501E+02  0.51574011019E+02  0.96566112413E+02  0.13605017309E+03  0.41800000000E+01 0. -1.
         -5    1    1    2    0  502 -0.32090906709E+02 -0.22274302342E+02  0.65489518110E+02  0.76369628914E+02  0.41800000000E+01 0. -1.
        -11    1    3    3    0    0 -0.21815631849E+02 -0.43438966943E+02  0.40470019039E+02  0.63250992743E+02  0.00000000000E+00 0. -1.
         11    1    3    3    0    0 -0.26761202943E+02  0.14139258265E+02 -0.37779619604E+02  0.48408473067E+02  0.00000000000E+00 0.  1.
</event>
<event>
 7    1  0.6988825E-006  0.9088297E+02  0.7561462E-02  0.1300727E+00
         -1   -1    0    0    0  501 -0.00000000000E+00  0.00000000000E+00  0.27060835772E+03  0.27060835772E+03  0.00000000000E+00 0.  1.
          1   -1    0    0  501    0  0.00000000000E+00 -0.00000000000E+00 -0.50206238742E+02  0.50206238742E+02  0.00000000000E+00 0. -1.
         23    2    1    2    0    0 -0.31026274696E+02  0.28409426807E+02  0.10228252780E+03  0.14369863349E+03  0.91748877490E+02 0.  0.
          5    1    1    2  502    0 -0.19953622771E+02 -0.57121379233E+02  0.22011237240E+02  0.64521050767E+02  0.41800000000E+01 0.  1.
         -5    1    1    2    0  502  0.50979897467E+02  0.28711952426E+02  0.96108353933E+02  0.11259491220E+03  0.41800000000E+01 0.  1.
        -11    1    3    3    0    0  0.87519952144E+01  0.19955755320E+02  0.10066860030E+03  0.10299998387E+03  0.00000000000E+00 0.  1.
         11    1    3    3    0    0 -0.39778269911E+02  0.84536714869E+01  0.16139274962E+01  0.40698649617E+02  0.00000000000E+00 0. -1.
</event>
<event>
 6    1  0.6988825E-006  0.7513194E+02  0.7561462E-02  0.1343463E+00
         -2   -1    0    0    0  501 -0.00000000000E+00  0.00000000000E+00  0.21643241522E+03  0.21643241522E+03  0.00000000000E+00 0.  1.
          2   -1    0    0  501    0  0.00000000000E+00 -0.00000000000E+00 -0.76307257907E+02  0.76307257907E+02  0.00000000000E+00 0. -1.
          5    1    1    2  502    0 -0.48686168463E+02 -0.85916008630E+01 -0.51120067169E+02  0.71238278140E+02  0.41800000000E+01 0. -1.
         -5    1    1    2    0  502  0.61646146477E+01  0.32445285843E+02  0.10188339247E+03  0.10718394054E+03  0.41800000000E+01 0.  1.
        -11    1    1    2    0    0  0.50635287139E+02 -0.10466365347E+02  0.49871648315E+02  0.71837722771E+02  0.00000000000E+00 0. -1.
         11    1    1    2    0    0 -0.81137333238E+01 -0.13387319633E+02  0.39490183689E+02  0.42479731675E+02  0.00000000000E+00 0.  1.
</event>
<event>
 7    1  0.6988825E-006  0.7121728E+02  0.7561462E-02  0.1356002E+00
          1   -1    0    0  501    0  0.00000000000E+00  0.00000000000E+00  0.18472068200E+03  0.18472068200E+03  0.00000000000E+00 0. -1.
         -1   -1    0    0    0  501 -0.00000000000E+00 -0.00000000000E+00 -0.69142964887E+02  0.69142964887E+02  0.00000000000E+00 0.  1.
         23    2    1    2    0    0 -0.25067600819E+02  0.18168330325E+02  0.38904410000E+02  0.10390680670E+03  0.91239237849E+02 0.  0.
          5    1    1    2  502    0  0.52717268369E+02 -0.35248476575E+02  0.93552237756E+02  0.11309756440E+03  0.41800000000E+01 0. -1.
         -5    1    1    2    0  502 -0.27649667550E+02  0.17080146250E+02 -0.16878930644E+02  0.36859275783E+02  0.41800000000E+01 0. -1.
        -11    1    3    3    0    0 -0.19856074643E+02 -0.65061398404E+01 -0.26536120055E+02  0.33775127289E+02  0.00000000000E+00 0.  1.
         11    1    3    3    0    0 -0.52115261762E+01  0.24674470165E+02  0.65440530055E+02  0.70131679410E+02  0.00000000000E+00 0. -1.
</event>
<event>
 7    1  0.6988825E-006  0.9078919E+02  0.7561462E-02  0.1300952E+00
         -1   -1    0    0    0  501 -0.00000000000E+00  0.00000000000E+00  0.33066084025E+02  0.33066084025E+02  0.00000000000E+00 0.  1.
          1   -1    0    0  501    0  0.00000000000E+00 -0.00000000000E+00 -0.41853416474E+03  0.41853416474E+03  0.00000000000E+00 0. -1.
         23    2    1    2    0    0 -0.47980864781E+01  0.12633755617E+02 -0.78532704256E+02  0.11987680679E+03  0.89556852072E+02 0.  0.
          5    1    1    2  502    0  0.22746224916E+02 -0.64205112902E+02 -0.20421714780E+03  0.21531791177E+03  0.41800000000E+01 0.  1.
         -5    1    1    2    0  502 -0.17948138438E+02  0.51571357285E+02 -0.10271822866E+03  0.11640553021E+03  0.41800000000E+01 0.  1.
        -11    1    3    3    0    0  0.24993403253E+02 -0.25663128235E+01 -0.82459252674E+02  0.86201998348E+02  0.00000000000E+00 0. -1.
         11    1    3    3    0    0 -0.29791489731E+02  0.15200068441E+02  0.39265484180E+01  0.33674808440E+02  0.00000000000E+00 0.  1.
</event>
<event>
 7    1  0.6988825E-006  0.5228408E+02  0.7561462E-02  0.1433397E+00
          4   -1    0    0  501    0  0.00000000000E+00  0.00000000000E+00  0.24103659152E+03  0.24103659152E+03  0.00000000000E+00 0. -1.
         -4   -1    0    0    0  501 -0.00000000000E+00 -0.00000000000E+00 -0.56879265854E+02  0.56879265854E+02  0.00000000000E+00 0.  1.
         23    2    1    2    0    0  0.35879582066E+02 -0.70754402885E+01  0.43657564100E+02  0.10627931561E+03  0.89732400826E+02 0.  0.
          5    1    1    2  502    0 -0.13204977505E+02 -0.12297352853E+02 -0.20625297271E+02  0.27721320416E+02  0.41800000000E+01 0.  1.
         -5    1    1    2    0  502 -0.22674604560E+02  0.19372793141E+02  0.16112505884E+03  0.16391522135E+03  0.41800000000E+01 0.  1.
        -11    1    3    3    0    0  0.22228870506E+02  0.17182769771E+02  0.65256012200E+02  0.71047289809E+02  0.00000000000E+00 0. -1.
         11    1    3    3    0    0  0.13650711559E+02 -0.24258210060E+02 -0.21598448100E+02  0.35232025796E+02  0.00000000000E+00 0.  1.
</event>
<event>
 7    1  0.6988825E-006  0.1011870E+03  0.7561462E-02  0.1277820E+00
         -2   -1    0    0    0  501 -0.00000000000E+00  0.00000000000E+00  0.42466264930E+02  0.42466264930E+02  0.00000000000E+00 0.  1.
          2   -1    0    0  501    0  0.00000000000E+00 -0.00000000000E+00 -0.48499547140E+03  0.48499547140E+03  0.00000000000E+00 0. -1.
         23    2    1    2    0    0 -0.11304881998E+02 -0.87544367564E+02 -0.16189270372E+03  0.20747453926E+03  0.95103208548E+02 0.  0.
          5    1    1    2  502    0  0.46894630735E+01  0.60189364635E+01 -0.21461132049E+03  0.21478759261E+03  0.41800000000E+01 0. -1.
         -5    1    1    2    0  502  0.66154189241E+01  0.81525431101E+02 -0.66025182264E+02  0.10519960445E+03  0.41800000000E+01 0.  1.
        -11    1    3    3    0    0  0.27633727847E+02 -0.21131268693E+02 -0.10809244218E+03  0.11355232049E+03  0.00000000000E+00 0.  1.
         11    1    3    3    0    0 -0.38938609845E+02 -0.66413098872E+02 -0.53800261538E+02  0.93922218777E+02  0.00000000000E+00 0. -1.
</event>
<event>
 7    1  0.6988825E-006  0.2040219E+03  0.7561462E-02  0.1146389E+00
          2   -1    0    0  501    0  0.00000000000E+00  0.00000000000E+00  0.69771511106E+03  0.69771511106E+03  0.00000000000E+00 0. -1.
         -2   -1    0    0    0  501 -0.00000000000E+00 -0.00000000000E+00 -0.71028765719E+02  0.71028765719E+02  0.00000000000E+00 0.  1.
         23    2    1    2    0    0 -0.13637300375E+03  0.13750205798E+03  0.28185082139E+03  0.35393871750E+03  0.91259619372E+02 0.  0.
          5    1    1    2  502    0  0.20385664504E+02 -0.22825382960E+02 -0.25684862314E+01  0.30994240530E+02  0.41800000000E+01 0.  1.
         -5    1    1    2    0  502  0.11598733925E+03 -0.11467667502E+03  0.34740401018E+03  0.38381091875E+03  0.41800000000E+01 0.  1.
        -11    1    3    3    0    0 -0.78884278476E+02  0.13511571106E+03  0.21056254904E+03  0.26232722281E+03  0.00000000000E+00 0.  1.
         11    1    3    3    0    0 -0.57488725276E+02  0.23863469114E+01  0.71288272349E+02  0.91611494693E+02  0.00000000000E+00 0. -1.
</event>
<event>
 7    1  0.6988825E-006  0.1208807E+03  0.7561462E-02  0.1241651E+00
          1   -1    0    0  501    0  0.00000000000E+00  0.00000000000E+00  0.16684574223E+03  0.16684574223E+03  0.00000000000E+00 0. -1.
         -1   -1    0    0    0  501 -0.00000000000E+00 -0.00000000000E+00 -0.12597733524E+03  0.12597733524E+03  0.00000000000E+00 0.  1.
         23    2    1    2    0    0 -0.24859820689E+02  0.76599509724E+02 -0.31560466642E+02  0.12735404648E+03  0.93474566199E+02 0.  0.
          5    1    1    2  502    0 -0.20055705881E+01  0.34010132139E+02  0.10919276497E+02  0.36019639097E+02  0.41800000000E+01 0.  1.
         -5    1    1    2    0  502  0.26865391277E+02 -0.11060964186E+03  0.61509597127E+02  0.12944939189E+03  0.41800000000E+01 0.  1.
        -11    1    3    3    0    0  0.80540057195E+01  0.51543255111E+02 -0.58194954318E+02  0.78155146111E+02  0.00000000000E+00 0.  1.
         11    1    3    3    0    0 -0.32913826408E+02  0.25056254613E+02  0.26634487675E+02  0.49198900372E+02  0.00000000000E+00 0. -1.
</event>
<event>
 7    1  0.6988825E-006  0.9368170E+02  0.7561462E-02  0.1294173E+00
          1   -1    0    0  501    0  0.00000000000E+00  0.00000000000E+00  0.18549460507E+02  0.18549460507E+02  0.00000000000E+00 0. -1.
         -1   -1    0    0    0  501 -0.00000000000E+00 -0.00000000000E+00 -0.65396308330E+03  0.65396308330E+03  0.00000000000E+00 0.  1.
         23    2    1    2    0    0  0.10759511620E+02 -0.18741010761E+02 -0.27984169932E+03  0.29496047662E+03  0.90682487372E+02 0.  0.
          5    1    1    2  502    0  0.65023660958E+01  0.57518857563E+02 -0.80761345984E+02  0.99451330536E+02  0.41800000000E+01 0.  1.
         -5    1    1    2    0  502 -0.17261877716E+02 -0.38777846803E+02 -0.27481057749E+03  0.27810073665E+03  0.41800000000E+01 0.  1.
        -11    1    3    3    0    0  0.46269181281E+02 -0.21577139030E+02 -0.10791355957E+03  0.11938067852E+03  0.00000000000E+00 0. -1.
         11    1    3    3    0    0 -0.35509669661E+02  0.28361282698E+01 -0.17192813975E+03  0.17557979810E+03  0.00000000000E+00 0.  1.
</event>
<event>
 7    1  0.6988825E-006  0.1378942E+03  0.7561462E-02  0.1216191E+00
         -1   -1    0    0    0  501 -0.00000000000E+00  0.00000000000E+00  0.35101393754E+02  0.35101393754E+02  0.00000000000E+00 0.  1.
          1   -1    0    0  501    0  0.00000000000E+00 -0.00000000000E+00 -0.72561346248E+03  0.72561346248E+03  0.00000000000E+00 0. -1.
         23    2    1    2    0    0  0.71247701147E+02 -0.88739955490E+02 -0.36335512819E+03  0.39244020460E+03  0.95033417203E+02 0.  0.
          5    1    1    2  502    0 -0.32678024672E+02  0.82690052915E+02 -0.31475393394E+03  0.32709785918E+03  0.41800000000E+01 0.  1.
         -5    1    1    2    0  502 -0.38569676474E+02  0.60499025748E+01 -0.12403006597E+02  0.41176792458E+02  0.41800000000E+01 0.  1.
        -11    1    3    3    0    0 -0.45887929378E+01  0.16876803347E+02 -0.31634330316E+02  0.36147121136E+02  0.00000000000E+00 0. -1.
         11    1    3    3    0    0  0.75836494084E+02 -0.10561675884E+03 -0.33172079787E+03  0.35629308346E+03  0.00000000000E+00 0.  1.
</event>
<event>
 7    1  0.6988825E-006  0.1131329E+03  0.7561462E-02  0.1254876E+00
          2   -1    0    0  501    0  0.00000000000E+00  0.00000000000E+00  0.37557003958E+03  0.37557003958E+03  0.00000000000E+00 0.  1.
         -2   -1    0    0    0  501 -0.00000000000E+00 -0.00000000000E+00 -0.66775028391E+02  0.66775028391E+02  0.00000000000E+00 0. -1.
         23    2    1    2    0    0 -0.61211150514E+02  0.62705148740E+02  0.63308734087E+02  0.15322556384E+03  0.10858792280E+03 0.  0.
          5    1    1    2  502    0  0.15049357482E+01 -0.10507584493E+01  0.18255406804E+03  0.18261114173E+03  0.41800000000E+01 0.  1.
         -5    1    1    2    0  502  0.59706214766E+02 -0.61654390291E+02  0.62932209057E+02  0.10650836240E+03  0.41800000000E+01 0.  1.
        -11    1    3    3    0    0  0.18237157621E+02  0.52615400416E+02  0.43666974157E+02  0.70765661949E+02  0.00000000000E+00 0.  1.
         11    1    3    3    0    0 -0.79448308136E+02  0.10089748323E+02  0.19641759930E+02  0.82459901892E+02  0.00000000000E+00 0. -1.
</event>
<event>
 7    1  0.6988825E-006  0.1527427E+03  0.7561462E-02  0.1197143E+00
          2   -1    0    0  501    0  0.00000000000E+00  0.00000000000E+00  0.96907084838E+03  0.96907084838E+03  0.00000000000E+00 0. -1.
         -2   -1    0    0    0  501 -0.00000000000E+00 -0.00000000000E+00 -0.39575074900E+02  0.39575074900E+02  0.00000000000E+00 0.  1.
         23    2    1    2    0    0  0.56962503314E+02 -0.80150996040E+02  0.15588811200E+03  0.20532233463E+03  0.90483416647E+02 0.  0.
          5    1    1    2  502    0  0.46017874654E+02  0.10259106718E+02  0.50545587226E+03  0.50766721902E+03  0.41800000000E+01 0. -1.
         -5    1    1    2    0  502 -0.10298037797E+03  0.69891889322E+02  0.26815178922E+03  0.29565636963E+03  0.41800000000E+01 0.  1.
        -11    1    3    3    0    0  0.75390899735E+02 -0.85927179177E+02  0.13292785947E+03  0.17531994669E+03  0.00000000000E+00 0.  1.
         11    1    3    3    0    0 -0.18428396422E+02  0.57761831367E+01  0.22960252527E+02  0.30002387945E+02  0.00000000000E+00 0. -1.
</event>
<event>
 7    1  0.6988825E-006  0.1224247E+03  0.7561462E-02  0.1239150E+00
         -2   -1    0    0    0  501 -0.00000000000E+00  0.00000000000E+00  0.10006512195E+02  0.10006512195E+02  0.00000000000E+00 0.  1.
          2   -1    0    0  501    0  0.00000000000E+00 -0.00000000000E+00 -0.16282786843E+04  0.16282786843E+04  0.00000000000E+00 0. -1.
         23    2    1    2    0    0  0.12406774159E+02 -0.63715751420E+02 -0.67305836180E+03  0.68262224912E+03  0.93551865766E+02 0.  0.
          5    1    1    2  502    0  0.48026579398E+02  0.82158397045E+01 -0.53964331929E+03  0.54185462701E+03  0.41800000000E+01 0.  1.
         -5    1    1    2    0  502 -0.60433353558E+02  0.55499911716E+02 -0.40557049103E+03  0.41380832038E+03  0.41800000000E+01 0.  1.
        -11    1    3    3    0    0 -0.68793910355E-01  0.24597895502E+02 -0.13535502834E+03  0.13757196260E+03  0.00000000000E+00 0.  1.
         11    1    3    3    0    0  0.12475568070E+02 -0.88313646923E+02 -0.53770333346E+03  0.54505028653E+03  0.00000000000E+00 0. -1.
</event>
<event>
 7    1  0.6988825E-006  0.8160833E+02  0.7561462E-02  0.1324548E+00
         -1   -1    0    0    0  501 -0.00000000000E+00  0.00000000000E+00  0.35630646418E+02  0.35630646418E+02  0.00000000000E+00 0.  1.
          1   -1    0    0  501    0  0.00000000000E+00 -0.00000000000E+00 -0.34762483821E+03  0.34762483821E+03  0.00000000000E+00 0. -1.
         23    2    1    2    0    0  0.31978736032E+01 -0.29108627252E+02 -0.11193225692E+03  0.14549370020E+03  0.88215917405E+02 0.  0.
          5    1    1    2  502    0  0.21746055053E+02  0.50569821962E+02 -0.26825145096E+02  0.61377997793E+02  0.41800000000E+01 0. -1.
         -5    1    1    2    0  502 -0.24943928657E+02 -0.21461194709E+02 -0.17323678977E+03  0.17638378663E+03  0.41800000000E+01 0. -1.
        -11    1    3    3    0    0 -0.31383985198E+02 -0.30336689492E+01 -0.93048237348E+02  0.98245265269E+02  0.00000000000E+00 0. -1.
         11    1    3    3    0    0  0.34581858801E+02 -0.26074958303E+02 -0.18884019573E+02  0.47248434936E+02  0.00000000000E+00 0.  1.
</event>
<event>
 7    1  0.6988825E-006  0.1212698E+03  0.7561462E-02  0.1241017E+00
          2   -1    0    0  501    0  0.00000000000E+00  0.00000000000E+00  0.49322587501E+03  0.49322587501E+03  0.00000000000E+00 0. -1.
         -2   -1    0    0    0  501 -0.00000000000E+00 -0.00000000000E+00 -0.43325935401E+02  0.43325935401E+02  0.00000000000E+00 0.  1.
         23    2    1    2    0    0  0.15345561346E+02  0.89295141363E+02  0.24577517880E+03  0.28057642662E+03  0.10054145480E+03 0.  0.
          5    1    1    2  502    0  0.44849134693E+02 -0.37300935673E+01  0.92381308966E+02  0.10284520955E+03  0.41800000000E+01 0.  1.
         -5    1    1    2    0  502 -0.60194696039E+02 -0.85565047796E+02  0.11174345184E+03  0.15313017425E+03  0.41800000000E+01 0.  1.
        -11    1    3    3    0    0  0.19812040111E+02  0.65511591764E+02  0.24703854486E+03  0.25634415974E+03  0.00000000000E+00 0. -1.
         11    1    3    3    0    0 -0.44664787652E+01  0.23783549599E+02 -0.12633660538E+01  0.24232266875E+02  0.00000000000E+00 0.  1.
</event>
<event>
 7    1  0.6988825E-006  0.9731458E+02  0.7561462E-02  0.1286047E+00
         -1   -1    0    0    0  501 -0.00000000000E+00  0.00000000000E+00  0.11042840344E+02  0.11042840344E+02  0.00000000000E+00 0.  1.
          1   -1    0    0  501    0  0.00000000000E+00 -0.00000000000E+00 -0.18375777414E+04  0.18375777414E+04  0.00000000000E+00 0. -1.
         23    2    1    2    0    0 -0.47715936231E+02 -0.44857617055E+02 -0.43207701078E+03  0.44703244907E+03  0.94119343902E+02 0.  0.
          5    1    1    2  502    0  0.28216400062E+02  0.58998626131E+02 -0.13432105509E+04  0.13448081869E+04  0.41800000000E+01 0.  1.
         -5    1    1    2    0  502  0.19499536169E+02 -0.14141009075E+02 -0.51247339359E+02  0.56779945755E+02  0.41800000000E+01 0.  1.
        -11    1    3    3    0    0 -0.56917900556E+02  0.19448121544E+01 -0.32299910918E+03  0.32798148458E+03  0.00000000000E+00 0. -1.
         11    1    3    3    0    0  0.92019643249E+01 -0.46802429210E+02 -0.10907790160E+03  0.11905096449E+03  0.00000000000E+00 0.  1.
</event>
<event>
 7    1  0.6988825E-006  0.1276362E+03  0.7561462E-02  0.1231006E+00
         -2   -1    0    0    0  501 -0.00000000000E+00  0.00000000000E+00  0.35249468863E+02  0.35249468863E+02  0.00000000000E+00 0.  1.
          2   -1    0    0  501    0  0.00000000000E+00 -0.00000000000E+00 -0.60944413809E+03  0.60944413809E+03  0.00000000000E+00 0. -1.
         23    2    1    2    0    0  0.80801165966E+02 -0.17738193289E+02 -0.14550703132E+03  0.19053080455E+03  0.91028673491E+02 0.  0.
          5    1    1    2  502    0 -0.51724194478E+02 -0.51251037393E+02 -0.17403286068E+03  0.18869809253E+03  0.41800000000E+01 0. -1.
         -5    1    1    2    0  502 -0.29076971488E+02  0.68989230683E+02 -0.25465477723E+03  0.26546470988E+03  0.41800000000E+01 0. -1.
        -11    1    3    3    0    0  0.84542267513E+02  0.46361522377E+01 -0.64586976917E+02  0.10649115687E+03  0.00000000000E+00 0.  1.
         11    1    3    3    0    0 -0.37411015463E+01 -0.22374345527E+02 -0.80920054402E+02  0.84039647685E+02  0.00000000000E+00 0. -1.
</event>
<event>
 7    1  0.6988825E-006  0.1551085E+03  0.7561462E-02  0.1194333E+00
          1   -1    0    0  501    0  0.00000000000E+00  0.00000000000E+00  0.90251780073E+03  0.90251780073E+03  0.00000000000E+00 0. -1.
         -1   -1    0    0    0  501 -0.00000000000E+00 -0.00000000000E+00 -0.31912480471E+02  0.31912480471E+02  0.00000000000E+00 0.  1.
         23    2    1    2    0    0 -0.11906522353E+03 -0.32844316383E+02  0.28265176779E+03  0.32075904394E+03  0.87971960630E+02 0.  0.
          5    1    1    2  502    0  0.60576035598E+02  0.68687694765E+02  0.20452996007E+03  0.22413708410E+03  0.41800000000E+01 0. -1.
         -5    1    1    2    0  502  0.58489187933E+02 -0.35843378382E+02  0.38342359239E+03  0.38953415316E+03  0.41800000000E+01 0. -1.
        -11    1    3    3    0    0 -0.31907544350E+02  0.28860740538E+02  0.10512476790E+03  0.11358807401E+03  0.00000000000E+00 0.  1.
         11    1    3    3    0    0 -0.87157679181E+02 -0.61705056921E+02  0.17752699989E+03  0.20717096993E+03  0.00000000000E+00 0. -1.
</event>
<event>
 7    1  0.6988825E-006  0.1432424E+03  0.7561462E-02  0.1209031E+00
         -2   -1    0    0    0  501 -0.00000000000E+00  0.00000000000E+00  0.50669258522E+02  0.50669258522E+02  0.00000000000E+00 0.  1.
          2   -1    0    0  501    0  0.00000000000E+00 -0.00000000000E+00 -0.57029915742E+03  0.57029915742E+03  0.00000000000E+00 0. -1.
         23    2    1    2    0    0  0.86580020130E+02 -0.93456414815E+02 -0.21564096723E+03  0.26847790647E+03  0.96691044879E+02 0.  0.
          5    1    1    2  502    0 -0.87935318400E+02  0.30338440044E+02 -0.25795083797E+03  0.27424286385E+03  0.41800000000E+01 0.  1.
         -5    1    1    2    0  502  0.13552982702E+01  0.63117974771E+02 -0.46038093691E+02  0.78247645609E+02  0.41800000000E+01 0.  1.
        -11    1    3    3    0    0  0.36460074697E+02 -0.58717701140E+02 -0.34303210851E+02  0.77160972964E+02  0.00000000000E+00 0.  1.
         11    1    3    3    0    0  0.50119945433E+02 -0.34738713675E+02 -0.18133775638E+03  0.19131693351E+03  0.00000000000E+00 0. -1.
</event>
<event>
 7    1  0.6988825E-006  0.9111851E+02  0.7561462E-02  0.1300165E+00
          2   -1    0    0  501    0  0.00000000000E+00  0.00000000000E+00  0.94935772342E+03  0.94935772342E+03  0.00000000000E+00 0. -1.
         -2   -1    0    0    0  501 -0.00000000000E+00 -0.00000000000E+00 -0.91117459406E+01  0.91117459406E+01  0.00000000000E+00 0.  1.
         23    2    1    2    0    0  0.32647999583E+01 -0.17221731721E+02  0.30845417447E+03  0.31416232669E+03  0.56980196592E+02 0.  0.
          5    1    1    2  502    0  0.24466050846E+02 -0.46678776359E+02  0.35179526449E+03  0.35574552186E+03  0.41800000000E+01 0. -1.
         -5    1    1    2    0  502 -0.27730850805E+02  0.63900508079E+02  0.27999653851E+03  0.28856162080E+03  0.41800000000E+01 0. -1.
        -11    1    3    3    0    0  0.93434358661E+01  0.19892368690E+02  0.10905209496E+03  0.11124462028E+03  0.00000000000E+00 0.  1.
         11    1    3    3    0    0 -0.60786359078E+01 -0.37114100411E+02  0.19940207950E+03  0.20291770641E+03  0.00000000000E+00 0. -1.
</event>
<event>
 7    1  0.6988825E-006  0.1045500E+03  0.7561462E-02  0.1271009E+00
          2   -1    0    0  501    0  0.00000000000E+00  0.00000000000E+00  0.78907250059E+03  0.78907250059E+03  0.00000000000E+00 0. -1.
         -2   -1    0    0    0  501 -0.00000000000E+00 -0.00000000000E+00 -0.26744326811E+02  0.26744326811E+02  0.00000000000E+00 0.  1.
         23    2    1    2    0    0 -0.82822930136E+02 -0.23786232594E+02  0.20914342358E+03  0.23431930565E+03  0.61148530284E+02 0.  0.
          5    1    1    2  502    0 -0.70081207791E+01  0.19385761102E+02  0.42121601828E+03  0.42174083030E+03  0.41800000000E+01 0. -1.
         -5    1    1    2    0  502  0.89831050915E+02  0.44004714926E+01  0.13196873192E+03  0.15975669145E+03  0.41800000000E+01 0.  1.
        -11    1    3    3    0    0 -0.22376020777E+01 -0.17015305299E+02  0.11198746487E+02  0.20492422998E+02  0.00000000000E+00 0. -1.
         11    1    3    3    0    0 -0.80585328059E+02 -0.67709272953E+01  0.19794467709E+03  0.21382688265E+03  0.00000000000E+00 0.  1.
</event>
<event>
 7    1  0.6988825E-006  0.9967825E+02  0.7561462E-02  0.1280974E+00
         -1   -1    0    0    0  501 -0.00000000000E+00  0.00000000000E+00  0.10742569395E+03  0.10742569395E+03  0.00000000000E+00 0.  1.
          1   -1    0    0  501    0  0.00000000000E+00 -0.00000000000E+00 -0.17784336490E+03  0.17784336490E+03  0.00000000000E+00 0. -1.
         23    2    1    2    0    0 -0.42497872437E+02  0.20924034563E+02  0.39740850914E+02  0.10982346077E+03  0.90763279580E+02 0.  0.
          5    1    1    2  502    0  0.31474374654E+02 -0.53633796104E+02 -0.25721336860E+01  0.62380354409E+02  0.41800000000E+01 0.  1.
         -5    1    1    2    0  502  0.11023497783E+02  0.32709761542E+02 -0.10758638818E+03  0.11306524366E+03  0.41800000000E+01 0. -1.
        -11    1    3    3    0    0  0.28504417922E+02  0.11062578370E+02  0.94546548145E+01  0.32004265011E+02  0.00000000000E+00 0.  1.
         11    1    3    3    0    0 -0.71002290359E+02  0.98614561930E+01  0.30286196100E+02  0.77819195759E+02  0.00000000000E+00 0. -1.
</event>
<event>
 7    1  0.6988825E-006  0.1053161E+03  0.7561462E-02  0.1269498E+00
          1   -1    0    0  501    0  0.00000000000E+00  0.00000000000E+00  0.52852674559E+03  0.52852674559E+03  0.00000000000E+00 0. -1.
         -1   -1    0    0    0  501 -0.00000000000E+00 -0.00000000000E+00 -0.44566118607E+02  0.44566118607E+02  0.00000000000E+00 0.  1.
         23    2    1    2    0    0  0.86792519103E+01 -0.23688511410E+02  0.27049188201E+02  0.98695966748E+02  0.91502788391E+02 0.  0.
          5    1    1    2  502    0  0.52210541796E+02  0.37324259414E+02  0.20583012706E+03  0.21564450983E+03  0.41800000000E+01 0.  1.
         -5    1    1    2    0  502 -0.60889793707E+02 -0.13635748004E+02  0.25108131173E+03  0.25875238762E+03  0.41800000000E+01 0.  1.
        -11    1    3    3    0    0  0.35402562816E+02  0.13581338516E+02  0.35639279767E+02  0.52037990662E+02  0.00000000000E+00 0. -1.
         11    1    3    3    0    0 -0.26723310906E+02 -0.37269849926E+02 -0.85900915658E+01  0.46657976086E+02  0.00000000000E+00 0.  1.
</event>
<event>
 7    1  0.6988825E-006  0.1142658E+03  0.7561462E-02  0.1252868E+00
         -2   -1    0    0    0  501 -0.00000000000E+00  0.00000000000E+00  0.23130483813E+03  0.23130483813E+03  0.00000000000E+00 0.  1.
          2   -1    0    0  501    0  0.00000000000E+00 -0.00000000000E+00 -0.84914244353E+02  0.84914244353E+02  0.00000000000E+00 0. -1.
         23    2    1    2    0    0  0.40414067520E+02 -0.79035761707E+02  0.64843170769E+02  0.14250227299E+03  0.90676968022E+02 0.  0.
          5    1    1    2  502    0 -0.47162565197E+02  0.40047442663E+02 -0.19590736389E+02  0.65033641849E+02  0.41800000000E+01 0.  1.
         -5    1    1    2    0  502  0.67484976767E+01  0.38988319044E+02  0.10113815940E+03  0.10868316764E+03  0.41800000000E+01 0.  1.
        -11    1    3    3    0    0  0.58465804625E+02 -0.15225057353E+02  0.34534546971E+02  0.69589421727E+02  0.00000000000E+00 0. -1.
         11    1    3    3    0    0 -0.18051737104E+02 -0.63810704355E+02  0.30308623797E+02  0.72912851262E+02  0.00000000000E+00 0.  1.
</event>
<event>
 7    1  0.6988825E-006  0.9143975E+02  0.7561462E-02  0.1299402E+00
         -2   -1    0    0    0  501 -0.00000000000E+00  0.00000000000E+00  0.12070052549E+02  0.12070052549E+02  0.00000000000E+00 0. -1.
          2   -1    0    0  501    0  0.00000000000E+00 -0.00000000000E+00 -0.12253278542E+04  0.12253278542E+04  0.00000000000E+00 0.  1.
         23    2    1    2    0    0  0.73396775857E+01 -0.41015527689E+02 -0.34558388446E+03  0.35976357277E+03  0.90914590236E+02 0.  0.
          5    1    1    2  502    0 -0.20377518444E+02  0.59992594675E+02 -0.20639432466E+03  0.21594083524E+03  0.41800000000E+01 0.  1.
         -5    1    1    2    0  502  0.13037840858E+02 -0.18977066986E+02 -0.66127959257E+03  0.66169349877E+03  0.41800000000E+01 0.  1.
        -11    1    3    3    0    0 -0.56963597173E+01 -0.66825045513E+02 -0.18935502842E+03  0.20088146259E+03  0.00000000000E+00 0. -1.
         11    1    3    3    0    0  0.13036037303E+02  0.25809517824E+02 -0.15622885604E+03  0.15888211019E+03  0.00000000000E+00 0.  1.
</event>
<event>
 7    1  0.6988825E-006  0.1958310E+03  0.7561462E-02  0.1153305E+00
          1   -1    0    0  501    0  0.00000000000E+00  0.00000000000E+00  0.90795016694E+03  0.90795016694E+03  0.00000000000E+00 0. -1.
         -1   -1    0    0    0  501 -0.00000000000E+00 -0.00000000000E+00 -0.54724418690E+02  0.54724418690E+02  0.00000000000E+00 0.  1.
         23    2    1    2    0    0 -0.86195010154E+02  0.15829104423E+03  0.25267084953E+03  0.32330078492E+03  0.90527370806E+02 0.  0.
          5    1    1    2  502    0  0.93372180172E+02 -0.16877614444E+03  0.46886790867E+03  0.50700921012E+03  0.41800000000E+01 0. -1.
         -5    1    1    2    0  502 -0.71771700179E+01  0.10485100211E+02  0.13168699005E+03  0.13236459060E+03  0.41800000000E+01 0. -1.
        -11    1    3    3    0    0 -0.36164195652E+01  0.45103961923E+02  0.15487571522E+02  0.47825837612E+02  0.00000000000E+00 0.  1.
         11    1    3    3    0    0 -0.82578590589E+02  0.11318708231E+03  0.23718327801E+03  0.27547494730E+03  0.00000000000E+00 0. -1.
</event>
<event>
 7    1  0.6988825E-006  0.1182057E+03  0.7561462E-02  0.1246087E+00
         -1   -1    0    0    0  501 -0.00000000000E+00  0.00000000000E+00  0.54466759366E+02  0.54466759366E+02  0.00000000000E+00 0.  1.
          1   -1    0    0  501    0  0.00000000000E+00 -0.00000000000E+00 -0.34677807734E+03  0.34677807734E+03  0.00000000000E+00 0. -1.
         23    2    1    2    0    0  0.34935913988E+02 -0.78488084159E+02 -0.14291700623E+03  0.18829113189E+03  0.87449312375E+02 0.  0.
          5    1    1    2  502    0  0.91640910768E+01  0.84591867844E+02 -0.14480167955E+03  0.16800227222E+03  0.41800000000E+01 0. -1.
         -5    1    1    2    0  502 -0.44100005065E+02 -0.61037836856E+01 -0.45926321843E+01  0.44951432595E+02  0.41800000000E+01 0. -1.
        -11    1    3    3    0    0  0.31737868079E+02 -0.40456932934E+01 -0.62025923526E+01  0.32590367539E+02  0.00000000000E+00 0.  1.
         11    1    3    3    0    0  0.31980459092E+01 -0.74442390865E+02 -0.13671441388E+03  0.15570076435E+03  0.00000000000E+00 0. -1.
</event>
<event>
 7    1  0.6988825E-006  0.1220767E+03  0.7561462E-02  0.1239710E+00
          1   -1    0    0  501    0  0.00000000000E+00  0.00000000000E+00  0.36124424186E+02  0.36124424186E+02  0.00000000000E+00 0. -1.
         -1   -1    0    0    0  501 -0.00000000000E+00 -0.00000000000E+00 -0.47726332550E+03  0.47726332550E+03  0.00000000000E+00 0.  1.
         23    2    1    2    0    0  0.35157858728E+02 -0.57236053870E+02 -0.23430390372E+03  0.26250716340E+03  0.97466151261E+02 0.  0.
          5    1    1    2  502    0 -0.74373387110E+02  0.32263084073E+01 -0.12001402329E+03  0.14128923513E+03  0.41800000000E+01 0. -1.
         -5    1    1    2    0  502  0.39215528383E+02  0.54009745463E+02 -0.86820974304E+02  0.10959135117E+03  0.41800000000E+01 0. -1.
        -11    1    3    3    0    0 -0.23689817564E+02 -0.28999009756E+02 -0.15665851619E+03  0.16107153913E+03  0.00000000000E+00 0.  1.
         11    1    3    3    0    0  0.58847676291E+02 -0.28237044114E+02 -0.77645387537E+02  0.10143562427E+03  0.00000000000E+00 0. -1.
</event>
<event>
 7    1  0.6988825E-006  0.9166041E+02  0.7561462E-02  0.1298880E+00
          2   -1    0    0  501    0  0.00000000000E+00  0.00000000000E+00  0.42583807297E+03  0.42583807297E+03  0.00000000000E+00 0. -1.
         -2   -1    0    0    0  501 -0.00000000000E+00 -0.00000000000E+00 -0.46796883768E+02  0.46796883768E+02  0.00000000000E+00 0.  1.
         23    2    1    2    0    0  0.66542112453E+02 -0.42582571978E+02  0.98449489938E+02  0.15543721018E+03  0.90704443519E+02 0.  0.
          5    1    1    2  502    0 -0.69886990106E+02  0.14144433099E+02  0.56033253510E+02  0.90782455754E+02  0.41800000000E+01 0. -1.
         -5    1    1    2    0  502  0.33448776528E+01  0.28438138878E+02  0.22455844576E+03  0.22641529081E+03  0.41800000000E+01 0. -1.
        -11    1    3    3    0    0  0.24009689919E+02 -0.18745640591E+01  0.93277752424E+02  0.96336484769E+02  0.00000000000E+00 0. -1.
         11    1    3    3    0    0  0.42532422534E+02 -0.40708007919E+02  0.51717375134E+01  0.59100725412E+02  0.00000000000E+00 0.  1.
</event>
<event>
 7    1  0.6988825E-006  0.1088371E+03  0.7561462E-02  0.1262739E+00
         -1   -1    0    0    0  501 -0.00000000000E+00  0.00000000000E+00  0.32589890319E+02  0.32589890319E+02  0.00000000000E+00 0.  1.
          1   -1    0    0  501    0  0.00000000000E+00 -0.00000000000E+00 -0.90615986316E+03  0.90615986316E+03  0.00000000000E+00 0. -1.
         23    2    1    2    0    0 -0.67880617330E+02  0.31584034280E+02 -0.10338992311E+03  0.15489393443E+03  0.87734401979E+02 0.  0.
          5    1    1    2  502    0  0.10009221039E+03 -0.41457085391E+01 -0.60709677305E+03  0.61532073078E+03  0.41800000000E+01 0. -1.
         -5    1    1    2    0  502 -0.32211593061E+02 -0.27438325741E+02 -0.16308327668E+03  0.16853508828E+03  0.41800000000E+01 0. -1.
        -11    1    3    3    0    0 -0.22971398159E+02  0.97735038506E+01  0.13073807497E+02  0.28180329192E+02  0.00000000000E+00 0.  1.
         11    1    3    3    0    0 -0.44909219171E+02  0.21810530429E+02 -0.11646373061E+03  0.12671360524E+03  0.00000000000E+00 0. -1.
</event>
<event>
 7    1  0.6988825E-006  0.9032887E+02  0.7561462E-02  0.1302057E+00
          2   -1    0    0  501    0  0.00000000000E+00  0.00000000000E+00  0.61975049578E+03  0.61975049578E+03  0.00000000000E+00 0.  1.
         -2   -1    0    0    0  501 -0.00000000000E+00 -0.00000000000E+00 -0.24380615303E+02  0.24380615303E+02  0.00000000000E+00 0. -1.
         23    2    1    2    0    0  0.89047949688E+01 -0.26226490704E+02  0.90830175561E+02  0.12357864650E+03  0.79084997878E+02 0.  0.
          5    1    1    2  502    0 -0.34522020586E+02 -0.25657075058E+02  0.38771716348E+03  0.39011809323E+03  0.41800000000E+01 0. -1.
         -5    1    1    2    0  502  0.25617225617E+02  0.51883565763E+02  0.11682254144E+03  0.13043437136E+03  0.41800000000E+01 0. -1.
        -11    1    3    3    0    0 -0.29537228129E+02  0.49307097767E+01  0.16236143809E+02  0.34064235060E+02  0.00000000000E+00 0. -1.
         11    1    3    3    0    0  0.38442023098E+02 -0.31157200481E+02  0.74594031753E+02  0.89514411436E+02  0.00000000000E+00 0.  1.
</event>
<event>
 7    1  0.6988825E-006  0.1662069E+03  0.7561462E-02  0.1181862E+00
         -2   -1    0    0    0  501 -0.00000000000E+00  0.00000000000E+00  0.18020889428E+02  0.18020889428E+02  0.00000000000E+00 0.  1.
          2   -1    0    0  501    0  0.00000000000E+00 -0.00000000000E+00 -0.16353985766E+04  0.16353985766E+04  0.00000000000E+00 0. -1.
         23    2    1    2    0    0  0.11132001961E+02 -0.17493186018E+02 -0.29611566079E+03  0.30992944320E+03  0.89117013930E+02 0.  0.
          5    1    1    2  502    0  0.93331920815E+02  0.76696041132E+02 -0.75582423972E+03  0.76542856226E+03  0.41800000000E+01 0. -1.
         -5    1    1    2    0  502 -0.10446392278E+03 -0.59202855115E+02 -0.56543778663E+03  0.57806146054E+03  0.41800000000E+01 0.  1.
        -11    1    3    3    0    0  0.50410782886E+02 -0.10622736745E+02 -0.15953490828E+03  0.16764688046E+03  0.00000000000E+00 0.  1.
         11    1    3    3    0    0 -0.39278780925E+02 -0.68704492721E+01 -0.13658075251E+03  0.14228256274E+03  0.00000000000E+00 0. -1.
</event>
<event>
 7    1  0.6988825E-006  0.8885878E+02  0.7561462E-02  0.1305639E+00
          2   -1    0    0  501    0  0.00000000000E+00  0.00000000000E+00  0.33360754621E+03  0.33360754621E+03  0.00000000000E+00 0.  1.
         -2   -1    0    0    0  501 -0.00000000000E+00 -0.00000000000E+00 -0.46406179979E+02  0.46406179979E+02  0.00000000000E+00 0. -1.
         23    2    1    2    0    0 -0.27060384879E+01  0.46879007869E+01  0.32378336636E+02  0.96092602217E+02  0.90311308591E+02 0.  0.
          5    1    1    2  502    0 -0.11907608191E+02 -0.62741537100E+02  0.15100304203E+03  0.16400513014E+03  0.41800000000E+01 0.  1.
         -5    1    1    2    0  502  0.14613646679E+02  0.58053636313E+02  0.10381998757E+03  0.11991599384E+03  0.41800000000E+01 0.  1.
        -11    1    3    3    0    0 -0.23681930101E+01 -0.24452337576E+02  0.54317868706E+02  0.59615065309E+02  0.00000000000E+00 0.  1.
         11    1    3    3    0    0 -0.33784547783E+00  0.29140238363E+02 -0.21939532069E+02  0.36477536908E+02  0.00000000000E+00 0. -1.
</event>
<event>
 7    1  0.6988825E-006  0.1029193E+03  0.7561462E-02  0.1274274E+00
          1   -1    0    0  501    0  0.00000000000E+00  0.00000000000E+00  0.62578888140E+03  0.62578888140E+03  0.00000000000E+00 0. -1.
         -1   -1    0    0    0  501 -0.00000000000E+00 -0.00000000000E+00 -0.30100468641E+02  0.30100468641E+02  0.00000000000E+00 0.  1.
         23    2    1    2    0    0  0.66000137739E+02 -0.45925274880E+02  0.21863044837E+03  0.25056866439E+03  0.92305111258E+02 0.  0.
          5    1    1    2  502    0 -0.85614558123E+00  0.19283695043E+02 -0.19171251990E+01  0.19842924401E+02  0.41800000000E+01 0. -1.
         -5    1    1    2    0  502 -0.65143992158E+02  0.26641579837E+02  0.37897508958E+03  0.38547776125E+03  0.41800000000E+01 0. -1.
        -11    1    3    3    0    0  0.11931605349E+02  0.24231109834E+02  0.93075804995E+02  0.96915506321E+02  0.00000000000E+00 0. -1.
         11    1    3    3    0    0  0.54068532390E+02 -0.70156384714E+02  0.12555464337E+03  0.15365315807E+03  0.00000000000E+00 0.  1.
</event>
<event>
 7    1  0.6988825E-006  0.1020967E+03  0.7561462E-02  0.1275948E+00
         -2   -1    0    0    0  501 -0.00000000000E+00  0.00000000000E+00  0.10754079620E+03  0.10754079620E+03  0.00000000000E+00 0.  1.
          2   -1    0    0  501    0  0.00000000000E+00 -0.00000000000E+00 -0.13618901953E+03  0.13618901953E+03  0.00000000000E+00 0. -1.
         23    2    1    2    0    0  0.38998164635E+02  0.37577496001E+02 -0.17128360234E+02  0.10693116246E+03  0.90597835126E+02 0.  0.
          5    1    1    2  502    0 -0.35534954096E+02 -0.75696816642E+02  0.21088736715E+02  0.86342042069E+02  0.41800000000E+01 0. -1.
         -5    1    1    2    0  502 -0.34632105385E+01  0.38119320641E+02 -0.32608599809E+02  0.50456611211E+02  0.41800000000E+01 0. -1.
        -11    1    3    3    0    0  0.31934651853E+02  0.54756271120E+02  0.19113112912E+02  0.66207116696E+02  0.00000000000E+00 0.  1.
         11    1    3    3    0    0  0.70635127821E+01 -0.17178775119E+02 -0.36241473146E+02  0.40724045762E+02  0.00000000000E+00 0. -1.
</event>
<event>
 7    1  0.6988825E-006  0.9739905E+02  0.7561462E-02  0.1285862E+00
         -1   -1    0    0    0  501 -0.00000000000E+00  0.00000000000E+00  0.71090100611E+02  0.71090100611E+02  0.00000000000E+00 0.  1.
          1   -1    0    0  501    0  0.00000000000E+00 -0.00000000000E+00 -0.16764069042E+03  0.16764069042E+03  0.00000000000E+00 0. -1.
         23    2    1    2    0    0  0.15304265605E+02 -0.15860203161E+02 -0.38667017060E+02  0.99066689996E+02  0.88505956118E+02 0.  0.
          5    1    1    2  502    0 -0.45428067944E+02  0.48609061172E+02 -0.66486454718E+02  0.94151321000E+02  0.41800000000E+01 0. -1.
         -5    1    1    2    0  502  0.30123802339E+02 -0.32748858010E+02  0.86028819690E+01  0.45512780035E+02  0.41800000000E+01 0. -1.
        -11    1    3    3    0    0  0.46498068091E+02 -0.22334151985E+02 -0.36304368580E+01  0.51711359998E+02  0.00000000000E+00 0.  1.
         11    1    3    3    0    0 -0.31193802486E+02  0.64739488234E+01 -0.35036580202E+02  0.47355329998E+02  0.00000000000E+00 0. -1.
</event>
<event>
 7    1  0.6988825E-006  0.1048622E+03  0.7561462E-02  0.1270391E+00
          1   -1    0    0  501    0  0.00000000000E+00  0.00000000000E+00  0.73291739727E+03  0.73291739727E+03  0.00000000000E+00 0. -1.
         -1   -1    0    0    0  501 -0.00000000000E+00 -0.00000000000E+00 -0.17398927416E+02  0.17398927416E+02  0.00000000000E+00 0.  1.
         23    2    1    2    0    0  0.10505907184E+02  0.42027794762E+02  0.34514148434E+03  0.35968282458E+03  0.91500712933E+02 0.  0.
          5    1    1    2  502    0 -0.19536044598E+02 -0.81142433204E+02  0.26071461398E+03  0.27377971775E+03  0.41800000000E+01 0. -1.
         -5    1    1    2    0  502  0.90301374134E+01  0.39114638441E+02  0.10966237153E+03  0.11685378236E+03  0.41800000000E+01 0.  1.
        -11    1    3    3    0    0 -0.25730458675E+01  0.61929888416E+02  0.31612707401E+03  0.32214633098E+03  0.00000000000E+00 0.  1.
         11    1    3    3    0    0  0.13078953052E+02 -0.19902093654E+02  0.29014410332E+02  0.37536493598E+02  0.00000000000E+00 0. -1.
</event>
<event>
 7    1  0.6988825E-006  0.1340275E+03  0.7561462E-02  0.1221599E+00
          1   -1    0    0  501    0  0.00000000000E+00  0.00000000000E+00  0.11126947516E+04  0.11126947516E+04  0.00000000000E+00 0. -1.
         -1   -1    0    0    0  501 -0.00000000000E+00 -0.00000000000E+00 -0.21559171672E+02  0.21559171672E+02  0.00000000000E+00 0.  1.
         23    2    1    2    0    0  0.67360142263E+02  0.29144547135E+02  0.42569499766E+03  0.44296559104E+03  0.98058607054E+02 0.  0.
          5    1    1    2  502    0 -0.92652017739E+02  0.15560212994E+02  0.60318061716E+03  0.61046772719E+03  0.41800000000E+01 0. -1.
         -5    1    1    2    0  502  0.25291875476E+02 -0.44704760129E+02  0.62259965066E+02  0.80820605005E+02  0.41800000000E+01 0.  1.
        -11    1    3    3    0    0  0.86893246916E+02  0.44507371233E+02  0.33778787097E+03  0.35161340735E+03  0.00000000000E+00 0.  1.
         11    1    3    3    0    0 -0.19533104653E+02 -0.15362824098E+02  0.87907126697E+02  0.91352183695E+02  0.00000000000E+00 0. -1.
</event>
<event>
 7    1  0.6988825E-006  0.1036263E+03  0.7561462E-02  0.1272850E+00
          2   -1    0    0  501    0  0.00000000000E+00  0.00000000000E+00  0.22660121011E+03  0.22660121011E+03  0.00000000000E+00 0. -1.
         -2   -1    0    0    0  501 -0.00000000000E+00 -0.00000000000E+00 -0.73010030559E+02  0.73010030559E+02  0.00000000000E+00 0.  1.
         23    2    1    2    0    0 -0.26374105295E+01 -0.34138211316E+01 -0.12746203246E+02  0.91441552012E+02  0.90446014993E+02 0.  0.
          5    1    1    2  502    0 -0.15001829777E+02 -0.57990378103E+02  0.66806837635E+02  0.89825190253E+02  0.41800000000E+01 0. -1.
         -5    1    1    2    0  502  0.17639240306E+02  0.61404199234E+02  0.99530545159E+02  0.11834449840E+03  0.41800000000E+01 0. -1.
        -11    1    3    3    0    0 -0.49520535595E+01  0.39699945502E+02  0.11882799968E+02  0.41734990624E+02  0.00000000000E+00 0. -1.
         11    1    3    3    0    0  0.23146430300E+01 -0.43113766634E+02 -0.24629003214E+02  0.49706561388E+02  0.00000000000E+00 0.  1.
</event>
<event>
 7    1  0.6988825E-006  0.8127656E+02  0.7561462E-02  0.1325467E+00
         -2   -1    0    0    0  501 -0.00000000000E+00  0.00000000000E+00  0.38869037965E+02  0.38869037965E+02  0.00000000000E+00 0.  1.
          2   -1    0    0  501    0  0.00000000000E+00 -0.00000000000E+00 -0.39632868037E+03  0.39632868037E+03  0.00000000000E+00 0. -1.
         23    2    1    2    0    0 -0.36340960884E+01 -0.38666896896E+01 -0.52458123624E+02  0.10549735873E+03  0.91376583547E+02 0.  0.
          5    1    1    2  502    0 -0.35443503355E+02  0.23004354266E+02 -0.31863685399E+02  0.53086807141E+02  0.41800000000E+01 0. -1.
         -5    1    1    2    0  502  0.39077599443E+02 -0.19137664577E+02 -0.27313783338E+03  0.27661355246E+03  0.41800000000E+01 0. -1.
        -11    1    3    3    0    0 -0.18166015969E+02  0.32491566766E+02  0.32929154791E+01  0.37370434028E+02  0.00000000000E+00 0.  1.
         11    1    3    3    0    0  0.14531919880E+02 -0.36358256455E+02 -0.55751039103E+02  0.68126924699E+02  0.00000000000E+00 0. -1.
</event>
<event>
 7    1  0.6988825E-006  0.1358415E+03  0.7561462E-02  0.1219037E+00
         -1   -1    0    0    0  501 -0.00000000000E+00  0.00000000000E+00  0.57135237095E+02  0.57135237095E+02  0.00000000000E+00 0.  1.
          1   -1    0    0  501    0  0.00000000000E+00 -0.00000000000E+00 -0.46155038286E+03  0.46155038286E+03  0.00000000000E+00 0. -1.
         23    2    1    2    0    0 -0.11304690483E+03  0.34018790484E+01 -0.12165204239E+03  0.18945259792E+03  0.91114718707E+02 0.  0.
          5    1    1    2  502    0  0.11479588529E+03  0.13361029338E+02 -0.28860427403E+03  0.31091238601E+03  0.41800000000E+01 0. -1.
         -5    1    1    2    0  502 -0.17489804554E+01 -0.16762908386E+02  0.58411706540E+01  0.18320636037E+02  0.41800000000E+01 0. -1.
        -11    1    3    3    0    0 -0.66940656441E+02 -0.37767845193E+02 -0.38842269690E+02  0.86117266154E+02  0.00000000000E+00 0.  1.
         11    1    3    3    0    0 -0.46106248392E+02  0.41169724242E+02 -0.82809772704E+02  0.10333533176E+03  0.00000000000E+00 0. -1.
</event>
<event>
 7    1  0.6988825E-006  0.9049697E+02  0.7561462E-02  0.1301653E+00
         -1   -1    0    0    0  501 -0.00000000000E+00  0.00000000000E+00  0.14344284342E+02  0.14344284342E+02  0.00000000000E+00 0.  1.
          1   -1    0    0  501    0  0.00000000000E+00 -0.00000000000E+00 -0.12605193632E+04  0.12605193632E+04  0.00000000000E+00 0. -1.
         23    2    1    2    0    0  0.66226664225E+02  0.14130868878E+02 -0.37326978235E+03  0.39044554380E+03  0.92367417164E+02 0.  0.
          5    1    1    2  502    0  0.74251376648E+00 -0.14505436126E+02 -0.68014126474E+03  0.68030917339E+03  0.41800000000E+01 0.  1.
         -5    1    1    2    0  502 -0.66969177992E+02  0.37456724856E+00 -0.19276403179E+03  0.20410893036E+03  0.41800000000E+01 0.  1.
        -11    1    3    3    0    0  0.96159711180E+01  0.36622875486E+02 -0.57455433025E+02  0.68810091509E+02  0.00000000000E+00 0.  1.
         11    1    3    3    0    0  0.56610693107E+02 -0.22492006608E+02 -0.31581434932E+03  0.32163545230E+03  0.00000000000E+00 0. -1.
</event>
<event>
 7    1  0.6988825E-006  0.1277171E+03  0.7561462E-02  0.1230883E+00
          2   -1    0    0  501    0  0.00000000000E+00  0.00000000000E+00  0.51691834732E+03  0.51691834732E+03  0.00000000000E+00 0. -1.
         -2   -1    0    0    0  501 -0.00000000000E+00 -0.00000000000E+00 -0.34107084267E+02  0.34107084267E+02  0.00000000000E+00 0.  1.
         23    2    1    2    0    0  0.65495502153E+02 -0.37442121547E+02  0.25368009096E+03  0.27929195648E+03  0.89212303741E+02 0.  0.
          5    1    1    2  502    0  0.60608335221E+01 -0.35679567279E+02  0.27682877798E+02  0.45755648257E+02  0.41800000000E+01 0. -1.
         -5    1    1    2    0  502 -0.71556335675E+02  0.73121688826E+02  0.20144829429E+03  0.22597782685E+03  0.41800000000E+01 0. -1.
        -11    1    3    3    0    0  0.86501325978E+02 -0.18793535075E+02  0.19975141055E+03  0.21848638945E+03  0.00000000000E+00 0.  1.
         11    1    3    3    0    0 -0.21005823825E+02 -0.18648586472E+02  0.53928680403E+02  0.60805567031E+02  0.00000000000E+00 0. -1.
</event>
<event>
 7    1  0.6988825E-006  0.9745057E+02  0.7561462E-02  0.1285750E+00
         -1   -1    0    0    0  501 -0.00000000000E+00  0.00000000000E+00  0.16781467120E+02  0.16781467120E+02  0.00000000000E+00 0.  1.
          1   -1    0    0  501    0  0.00000000000E+00 -0.00000000000E+00 -0.86830109509E+03  0.86830109509E+03  0.00000000000E+00 0. -1.
         23    2    1    2    0    0  0.42376806152E+01 -0.42755037143E+02 -0.23731887359E+03  0.25680156449E+03  0.88209096049E+02 0.  0.
          5    1    1    2  502    0 -0.51613135862E+02  0.58106638742E+02 -0.29052953063E+03  0.30077429715E+03  0.41800000000E+01 0.  1.
         -5    1    1    2    0  502  0.47375455247E+02 -0.15351601599E+02 -0.32367122376E+03  0.32750670057E+03  0.41800000000E+01 0.  1.
        -11    1    3    3    0    0  0.26806310053E+02 -0.13123716122E+02 -0.19118007700E+02  0.35444441058E+02  0.00000000000E+00 0.  1.
         11    1    3    3    0    0 -0.22568629438E+02 -0.29631321021E+02 -0.21820086589E+03  0.22135712343E+03  0.00000000000E+00 0. -1.
</event>
<event>
 7    1  0.6988825E-006  0.9232866E+02  0.7561462E-02  0.1297309E+00
         -2   -1    0    0    0  501 -0.00000000000E+00  0.00000000000E+00  0.14051488051E+03  0.14051488051E+03  0.00000000000E+00 0.  1.
          2   -1    0    0  501    0  0.00000000000E+00 -0.00000000000E+00 -0.13335716742E+03  0.13335716742E+03  0.00000000000E+00 0. -1.
         23    2    1    2    0    0  0.32220959685E+02 -0.37451685348E+02  0.72456554340E+02  0.12436484663E+03  0.88180745245E+02 0.  0.
          5    1    1    2  502    0 -0.64963202083E+02  0.32334011833E+02 -0.84115674298E+02  0.11116935283E+03  0.41800000000E+01 0.  1.
         -5    1    1    2    0  502  0.32742242398E+02  0.51176735145E+01  0.18816833045E+02  0.38337848470E+02  0.41800000000E+01 0.  1.
        -11    1    3    3    0    0 -0.15939932788E+02  0.23219803038E+01  0.58077291128E+02  0.60269766837E+02  0.00000000000E+00 0.  1.
         11    1    3    3    0    0  0.48160892473E+02 -0.39773665652E+02  0.14379263213E+02  0.64095079793E+02  0.00000000000E+00 0. -1.
</event>
<event>
 7    1  0.6988825E-006  0.2309899E+03  0.7561462E-02  0.1125945E+00
         -2   -1    0    0    0  501 -0.00000000000E+00  0.00000000000E+00  0.41308885488E+02  0.41308885488E+02  0.00000000000E+00 0.  1.
          2   -1    0    0  501    0  0.00000000000E+00 -0.00000000000E+00 -0.18426866605E+04  0.18426866605E+04  0.00000000000E+00 0. -1.
         23    2    1    2    0    0  0.14513091487E+03 -0.14488283732E+03 -0.36659128383E+03  0.42924156621E+03  0.88346668184E+02 0.  0.
          5    1    1    2  502    0 -0.58347536039E+01  0.90050596151E+02 -0.56108488530E+03  0.56831054462E+03  0.41800000000E+01 0.  1.
         -5    1    1    2    0  502 -0.13929616126E+03  0.54832241171E+02 -0.87370160584E+03  0.88644343511E+03  0.41800000000E+01 0.  1.
        -11    1    3    3    0    0  0.13347702726E+03 -0.79260187149E+02 -0.23348380028E+03  0.28038006182E+03  0.00000000000E+00 0. -1.
         11    1    3    3    0    0  0.11653887613E+02 -0.65622650172E+02 -0.13310748355E+03  0.14886150439E+03  0.00000000000E+00 0.  1.
</event>
<event>
 7    1  0.6988825E-006  0.1057109E+03  0.7561462E-02  0.1268725E+00
          2   -1    0    0  501    0  0.00000000000E+00  0.00000000000E+00  0.21894070303E+04  0.21894070303E+04  0.00000000000E+00 0. -1.
         -2   -1    0    0    0  501 -0.00000000000E+00 -0.00000000000E+00 -0.90096640561E+01  0.90096640561E+01  0.00000000000E+00 0.  1.
         23    2    1    2    0    0 -0.49177020748E+02 -0.10118495559E+02  0.37147678304E+03  0.38448107867E+03  0.85498164887E+02 0.  0.
          5    1    1    2  502    0  0.10042521324E+02 -0.48922071887E+02  0.11727127146E+04  0.11737831166E+04  0.41800000000E+01 0. -1.
         -5    1    1    2    0  502  0.39134499424E+02  0.59040567446E+02  0.63620786865E+03  0.64015249916E+03  0.41800000000E+01 0. -1.
        -11    1    3    3    0    0 -0.69378342565E+02 -0.10351128093E+02  0.33939535864E+03  0.34656847770E+03  0.00000000000E+00 0. -1.
         11    1    3    3    0    0  0.20201321817E+02  0.23263253434E+00  0.32081424401E+02  0.37912600974E+02  0.00000000000E+00 0.  1.
</event>
<event>
 7    1  0.6988825E-006  0.1103690E+03  0.7561462E-02  0.1259888E+00
          2   -1    0    0  501    0  0.00000000000E+00  0.00000000000E+00  0.42157136932E+02  0.42157136932E+02  0.00000000000E+00 0. -1.
         -2   -1    0    0    0  501 -0.00000000000E+00 -0.00000000000E+00 -0.34855856943E+03  0.34855856943E+03  0.00000000000E+00 0.  1.
         23    2    1    2    0    0  0.38931373807E+02  0.17821812250E+02 -0.18323862734E+03  0.21002174272E+03  0.93270944049E+02 0.  0.
          5    1    1    2  502    0 -0.70762193794E+02  0.17689677030E+02 -0.10816555899E+03  0.13052767253E+03  0.41800000000E+01 0. -1.
         -5    1    1    2    0  502  0.31830819987E+02 -0.35511489280E+02 -0.14997246161E+02  0.50166291116E+02  0.41800000000E+01 0. -1.
        -11    1    3    3    0    0 -0.17116250117E+02  0.36838400947E+02 -0.99556844009E+02  0.10752487615E+03  0.00000000000E+00 0. -1.
         11    1    3    3    0    0  0.56047623924E+02 -0.19016588697E+02 -0.83681783336E+02  0.10249686656E+03  0.00000000000E+00 0.  1.
</event>
<event>
 7    1  0.6988825E-006  0.9719997E+02  0.7561462E-02  0.1286297E+00
         -1   -1    0    0    0  501 -0.00000000000E+00  0.00000000000E+00  0.36230019776E+02  0.36230019776E+02  0.00000000000E+00 0.  1.
          1   -1    0    0  501    0  0.00000000000E+00 -0.00000000000E+00 -0.49345245450E+03  0.49345245450E+03  0.00000000000E+00 0. -1.
         23    2    1    2    0    0 -0.43522167535E+02 -0.34807940497E+02 -0.98904027087E+02  0.14608680169E+03  0.91943326385E+02 0.  0.
          5    1    1    2  502    0 -0.24828739132E+02  0.34259044862E+02 -0.41328667828E+02  0.59293166775E+02  0.41800000000E+01 0. -1.
         -5    1    1    2    0  502  0.68350906667E+02  0.54889563460E+00 -0.31698973981E+03  0.32430250581E+03  0.41800000000E+01 0. -1.
        -11    1    3    3    0    0 -0.51751133102E+02 -0.46184207476E+02 -0.29667271480E+02  0.75440756853E+02  0.00000000000E+00 0.  1.
         11    1    3    3    0    0  0.82289655672E+01  0.11376266979E+02 -0.69236755608E+02  0.70646044842E+02  0.00000000000E+00 0. -1.
</event>
<event>
 7    1  0.6988825E-006  0.1110074E+03  0.7561462E-02  0.1258716E+00
         -1   -1    0    0    0  501 -0.00000000000E+00  0.00000000000E+00  0.35972010512E+03  0.35972010512E+03  0.00000000000E+00 0.  1.
          1   -1    0    0  501    0  0.00000000000E+00 -0.00000000000E+00 -0.46944042044E+02  0.46944042044E+02  0.00000000000E+00 0. -1.
         23    2    1    2    0    0  0.57598198612E+02 -0.39527048581E+02  0.11355641371E+03  0.16127858528E+03  0.90751214441E+02 0.  0.
          5    1    1    2  502    0 -0.79627711942E+02  0.67065858277E+02  0.12230706676E+03  0.16067013673E+03  0.41800000000E+01 0.  1.
         -5    1    1    2    0  502  0.22029513330E+02 -0.27538809696E+02  0.76912582599E+02  0.84715425154E+02  0.41800000000E+01 0.  1.
        -11    1    3    3    0    0  0.60605340316E+02 -0.21918656141E+02  0.12459770970E+03  0.14027838046E+03  0.00000000000E+00 0.  1.
         11    1    3    3    0    0 -0.30071417039E+01 -0.17608392439E+02 -0.11041295987E+02  0.21000204823E+02  0.00000000000E+00 0. -1.
</event>
<event>
 7    1  0.6988825E-006  0.1446190E+03  0.7561462E-02  0.1207245E+00
         -2   -1    0    0    0  501 -0.00000000000E+00  0.00000000000E+00  0.16058932041E+02  0.16058932041E+02  0.00000000000E+00 0.  1.
          2   -1    0    0  501    0  0.00000000000E+00 -0.00000000000E+00 -0.14707767801E+04  0.14707767801E+04  0.00000000000E+00 0. -1.
         23    2    1    2    0    0 -0.93871541175E+02 -0.26029418593E+02 -0.46471139558E+03  0.48421455910E+03  0.94961366814E+02 0.  0.
          5    1    1    2  502    0  0.41338362005E+02  0.72115050248E+02 -0.40670510406E+03  0.41513365885E+03  0.41800000000E+01 0.  1.
         -5    1    1    2    0  502  0.52533179169E+02 -0.46085631655E+02 -0.58330134846E+03  0.58748749423E+03  0.41800000000E+01 0.  1.
        -11    1    3    3    0    0 -0.24486534930E+02 -0.55466451536E+02 -0.20146470289E+03  0.21039045641E+03  0.00000000000E+00 0.  1.
         11    1    3    3    0    0 -0.69385006245E+02  0.29437032943E+02 -0.26324669270E+03  0.27382410269E+03  0.00000000000E+00 0. -1.
</event>
<event>
 7    1  0.6988825E-006  0.1666173E+03  0.7561462E-02  0.1181422E+00
          2   -1    0    0  501    0  0.00000000000E+00  0.00000000000E+00  0.62795485875E+03  0.62795485875E+03  0.00000000000E+00 0.  1.
         -2   -1    0    0    0  501 -0.00000000000E+00 -0.00000000000E+00 -0.53889852616E+02  0.53889852616E+02  0.00000000000E+00 0. -1.
         23    2    1    2    0    0  0.93016752248E+02 -0.11263397344E+03  0.22143049188E+03  0.28017645719E+03  0.90160170006E+02 0.  0.
          5    1    1    2  502    0 -0.10469045485E+03  0.10276305789E+03  0.35635245102E+03  0.38538925667E+03  0.41800000000E+01 0.  1.
         -5    1    1    2    0  502  0.11673702603E+02  0.98709155480E+01 -0.37179367690E+01  0.16278997513E+02  0.41800000000E+01 0.  1.
        -11    1    3    3    0    0  0.86760465468E+02 -0.36316368852E+02  0.13718402777E+03  0.16633013704E+03  0.00000000000E+00 0.  1.
         11    1    3    3    0    0  0.62562867801E+01 -0.76317604588E+02  0.84246464117E+02  0.11384632015E+03  0.00000000000E+00 0. -1.
</event>
<event>
 7    1  0.6988825E-006  0.1442242E+03  0.7561462E-02  0.1207755E+00
         -2   -1    0    0    0  501 -0.00000000000E+00  0.00000000000E+00  0.42750871355E+02  0.42750871355E+02  0.00000000000E+00 0.  1.
          2   -1    0    0  501    0  0.00000000000E+00 -0.00000000000E+00 -0.53408306057E+03  0.53408306057E+03  0.00000000000E+00 0. -1.
         23    2    1    2    0    0 -0.60733341729E+01 -0.96158343737E+02 -0.14941864082E+03  0.20022277869E+03  0.92086472531E+02 0.  0.
          5    1    1    2  502    0 -0.23302154746E+02 -0.22728592985E+02 -0.10308747377E+03  0.10818539182E+03  0.41800000000E+01 0. -1.
         -5    1    1    2    0  502  0.29375488918E+02  0.11888693672E+03 -0.23882607462E+03  0.26842576142E+03  0.41800000000E+01 0. -1.
        -11    1    3    3    0    0  0.38716478227E+02 -0.17300089746E+02 -0.42799417397E+02  0.60249887312E+02  0.00000000000E+00 0.  1.
         11    1    3    3    0    0 -0.44789812400E+02 -0.78858253991E+02 -0.10661922343E+03  0.13997289138E+03  0.00000000000E+00 0. -1.
</event>
<event>
 7    1  0.6988825E-006  0.1090329E+03  0.7561462E-02  0.1262371E+00
          2   -1    0    0  501    0  0.00000000000E+00  0.00000000000E+00  0.14420949206E+03  0.14420949206E+03  0.00000000000E+00 0.  1.
         -2   -1    0    0    0  501 -0.00000000000E+00 -0.00000000000E+00 -0.85607603157E+02  0.85607603157E+02  0.00000000000E+00 0. -1.
         23    2    1    2    0    0 -0.14255957653E+02  0.20684756902E+02  0.13602119992E+02  0.94528197776E+02  0.90108107348E+02 0.  0.
          5    1    1    2  502    0  0.67475921887E+02  0.45974800786E+01  0.31361078138E+02  0.74666769581E+02  0.41800000000E+01 0. -1.
         -5    1    1    2    0  502 -0.53219964235E+02 -0.25282236981E+02  0.13638690768E+02  0.60622127856E+02  0.41800000000E+01 0. -1.
        -11    1    3    3    0    0  0.35458323881E+02  0.21589681230E+02 -0.41749476079E+01  0.41723341855E+02  0.00000000000E+00 0. -1.
         11    1    3    3    0    0 -0.49714281533E+02 -0.90492432749E+00  0.17777067600E+02  0.52804855921E+02  0.00000000000E+00 0.  1.
</event>
<event>
 7    1  0.6988825E-006  0.1877147E+03  0.7561462E-02  0.1160539E+00
         -1   -1    0    0    0  501 -0.00000000000E+00  0.00000000000E+00  0.38383337861E+02  0.38383337861E+02  0.00000000000E+00 0.  1.
          1   -1    0    0  501    0  0.00000000000E+00 -0.00000000000E+00 -0.11017028497E+04  0.11017028497E+04  0.00000000000E+00 0. -1.
         23    2    1    2    0    0  0.10721108370E+03 -0.11153108737E+03 -0.72852044664E+03  0.75063713742E+03  0.93705234620E+02 0.  0.
          5    1    1    2  502    0 -0.13122129534E+03  0.10801542484E+03 -0.31460674681E+03  0.35760486279E+03  0.41800000000E+01 0. -1.
         -5    1    1    2    0  502  0.24010211636E+02  0.35156625305E+01 -0.20192318402E+02  0.31844187354E+02  0.41800000000E+01 0. -1.
        -11    1    3    3    0    0  0.80232821734E+02 -0.16373511122E+02 -0.31917571429E+03  0.32951257054E+03  0.00000000000E+00 0. -1.
         11    1    3    3    0    0  0.26978261968E+02 -0.95157576245E+02 -0.40934473234E+03  0.42112456688E+03  0.00000000000E+00 0.  1.
</event>
<event>
 7    1  0.6988825E-006  0.1147582E+03  0.7561462E-02  0.1252004E+00
          1   -1    0    0  501    0  0.00000000000E+00  0.00000000000E+00  0.17342866924E+03  0.17342866924E+03  0.00000000000E+00 0. -1.
         -1   -1    0    0    0  501 -0.00000000000E+00 -0.00000000000E+00 -0.99074547037E+02  0.99074547037E+02  0.00000000000E+00 0.  1.
         23    2    1    2    0    0  0.36127164469E+02 -0.52991675857E+02 -0.72033128864E+01  0.10998437527E+03  0.89058325627E+02 0.  0.
          5    1    1    2  502    0 -0.44223897359E+02 -0.23919031020E+02  0.56288401107E+00  0.50454557584E+02  0.41800000000E+01 0. -1.
         -5    1    1    2    0  502  0.80967328902E+01  0.76910706877E+02  0.80994551082E+02  0.11206428343E+03  0.41800000000E+01 0. -1.
        -11    1    3    3    0    0  0.54191104919E+02 -0.10165462870E+02 -0.24573779617E+02  0.60364585084E+02  0.00000000000E+00 0.  1.
         11    1    3    3    0    0 -0.18063940450E+02 -0.42826212987E+02  0.17370466731E+02  0.49619790183E+02  0.00000000000E+00 0. -1.
</event>
<event>
 7    1  0.6988825E-006  0.9753655E+02  0.7561462E-02  0.1285563E+00
         -2   -1    0    0    0  501 -0.00000000000E+00  0.00000000000E+00  0.15532170910E+02  0.15532170910E+02  0.00000000000E+00 0.  1.
          2   -1    0    0  501    0  0.00000000000E+00 -0.00000000000E+00 -0.13874627459E+04  0.13874627459E+04  0.00000000000E+00 0. -1.
         23    2    1    2    0    0  0.49340125417E+02  0.32759657013E+02 -0.15808079914E+03  0.18128007012E+03  0.66070278204E+02 0.  0.
          5    1    1    2  502    0  0.69078182281E+01 -0.52760893749E+02 -0.93468304776E+03  0.93620580111E+03  0.41800000000E+01 0. -1.
         -5    1    1    2    0  502 -0.56247943645E+02  0.20001236736E+02 -0.27916672804E+03  0.28550904553E+03  0.41800000000E+01 0. -1.
        -11    1    3    3    0    0  0.61650712618E+02  0.21861160723E+02 -0.90108272039E+02  0.11134730084E+03  0.00000000000E+00 0.  1.
         11    1    3    3    0    0 -0.12310587201E+02  0.10898496290E+02 -0.67972527098E+02  0.69932769276E+02  0.00000000000E+00 0. -1.
</event>
<event>
 7    1  0.6988825E-006  0.1082065E+03  0.7561462E-02  0.1263928E+00
         -4   -1    0    0    0  501 -0.00000000000E+00  0.00000000000E+00  0.38635221448E+02  0.38635221448E+02  0.00000000000E+00 0.  1.
          4   -1    0    0  501    0  0.00000000000E+00 -0.00000000000E+00 -0.31610905690E+03  0.31610905690E+03  0.00000000000E+00 0. -1.
         23    2    1    2    0    0 -0.18140014079E+02  0.12927684569E+02 -0.98505649221E+02  0.13525937806E+03  0.89975281527E+02 0.  0.
          5    1    1    2  502    0 -0.68968325806E+01  0.53247586409E+02 -0.98437266885E+02  0.11220623721E+03  0.41800000000E+01 0. -1.
         -5    1    1    2    0  502  0.25036846659E+02 -0.66175270978E+02 -0.80530919345E+02  0.10727866307E+03  0.41800000000E+01 0. -1.
        -11    1    3    3    0    0  0.96506296439E+01 -0.34985527152E+02 -0.48958475017E+02  0.60943039295E+02  0.00000000000E+00 0. -1.
         11    1    3    3    0    0 -0.27790643723E+02  0.47913211720E+02 -0.49547174204E+02  0.74316338765E+02  0.00000000000E+00 0.  1.
</event>
<event>
 7    1  0.6988825E-006  0.1008171E+03  0.7561462E-02  0.1278587E+00
          1   -1    0    0  501    0  0.00000000000E+00  0.00000000000E+00  0.28368627442E+03  0.28368627442E+03  0.00000000000E+00 0.  1.
         -1   -1    0    0    0  501 -0.00000000000E+00 -0.00000000000E+00 -0.54660995737E+02  0.54660995737E+02  0.00000000000E+00 0. -1.
         23    2    1    2    0    0 -0.50504727039E+02 -0.99045092692E+01  0.63201138095E+02  0.12435303329E+03  0.93917337457E+02 0.  0.
          5    1    1    2  502    0  0.40625487766E+02 -0.31622462050E+02  0.16302623332E+03  0.17101296884E+03  0.41800000000E+01 0. -1.
         -5    1    1    2    0  502  0.98792392735E+01  0.41526971319E+02  0.27979072658E+01  0.42981268020E+02  0.41800000000E+01 0. -1.
        -11    1    3    3    0    0 -0.73281491317E+02  0.13410560144E+02  0.43593560146E+02  0.86315807239E+02  0.00000000000E+00 0.  1.
         11    1    3    3    0    0  0.22776764278E+02 -0.23315069414E+02  0.19607577948E+02  0.38037226052E+02  0.00000000000E+00 0. -1.
</event>
<event>
 7    1  0.6988825E-006  0.1272192E+03  0.7561462E-02  0.1231641E+00
          2   -1    0    0  501    0  0.00000000000E+00  0.00000000000E+00  0.83451676188E+02  0.83451676188E+02  0.00000000000E+00 0. -1.
         -2   -1    0    0    0  501 -0.00000000000E+00 -0.00000000000E+00 -0.29199728431E+03  0.29199728431E+03  0.00000000000E+00 0.  1.
         23    2    1    2    0    0  0.46568975146E+02 -0.90231946487E+02 -0.15206969918E+03  0.20472251087E+03  0.92063236074E+02 0.  0.
          5    1    1    2  502    0 -0.69655573208E+02  0.14589375740E+02  0.35094579318E+01  0.71376028598E+02  0.41800000000E+01 0.  1.
         -5    1    1    2    0  502  0.23086598062E+02  0.75642570747E+02 -0.59985366876E+02  0.99350421028E+02  0.41800000000E+01 0.  1.
        -11    1    3    3    0    0  0.17456063529E+02 -0.57755641519E+02 -0.14928704794E+03  0.16101879072E+03  0.00000000000E+00 0.  1.
         11    1    3    3    0    0  0.29112911617E+02 -0.32476304968E+02 -0.27826512346E+01  0.43703720152E+02  0.00000000000E+00 0. -1.
</event>
<event>
 7    1  0.6988825E-006  0.1616113E+03  0.7561462E-02  0.1186890E+00
         -3   -1    0    0    0  501 -0.00000000000E+00  0.00000000000E+00  0.14242668518E+03  0.14242668518E+03  0.00000000000E+00 0.  1.
          3   -1    0    0  501    0  0.00000000000E+00 -0.00000000000E+00 -0.25078758490E+03  0.25078758490E+03  0.00000000000E+00 0. -1.
         23    2    1    2    0    0 -0.69611084580E+02 -0.13284772777E+03 -0.17338116534E+02  0.17775157049E+03  0.93812518657E+02 0.  0.
          5    1    1    2  502    0  0.29439462959E+02  0.12084618859E+03 -0.10887703231E+02  0.12492596911E+03  0.41800000000E+01 0. -1.
         -5    1    1    2    0  502  0.40171621621E+02  0.12001539178E+02 -0.80135079959E+02  0.90536730482E+02  0.41800000000E+01 0. -1.
        -11    1    3    3    0    0 -0.68285857864E+02 -0.86193201911E+02  0.27155862811E+02  0.11326812140E+03  0.00000000000E+00 0.  1.
         11    1    3    3    0    0 -0.13252267160E+01 -0.46654525855E+02 -0.44493979345E+02  0.64483449089E+02  0.00000000000E+00 0. -1.
</event>
<event>
 7    1  0.7136419E-006  0.1237625E+03  0.7561462E-02  0.1237016E+00
         -3   -1    0    0    0  501 -0.00000000000E+00  0.00000000000E+00  0.19986578940E+03  0.19986578940E+03  0.00000000000E+00 0.  1.
          3   -1    0    0  501    0  0.00000000000E+00 -0.00000000000E+00 -0.82347487795E+02  0.82347487795E+02  0.00000000000E+00 0. -1.
         23    2    1    2    0    0  0.16924942186E+01 -0.70015056785E+02  0.82845402179E+02  0.13471902854E+03  0.79880431110E+02 0.  0.
          5    1    1    2  502    0 -0.56518330915E+02  0.41829419190E+01  0.21281051237E+02  0.60680921831E+02  0.41800000000E+01 0.  1.
         -5    1    1    2    0  502  0.54825836697E+02  0.65832114866E+02  0.13391848192E+02  0.86813326830E+02  0.41800000000E+01 0.  1.
        -11    1    3    3    0    0  0.35271001025E+02 -0.10863353250E+02  0.39528185524E+02  0.54078955315E+02  0.00000000000E+00 0.  1.
         11    1    3    3    0    0 -0.33578506806E+02 -0.59151703535E+02  0.43317216655E+02  0.80640073222E+02  0.00000000000E+00 0. -1.
</event>
<event>
 7    1  0.6988825E-006  0.1263945E+03  0.7561462E-02  0.1232906E+00
          1   -1    0    0  501    0  0.00000000000E+00  0.00000000000E+00  0.94347486173E+02  0.94347486173E+02  0.00000000000E+00 0. -1.
         -1   -1    0    0    0  501 -0.00000000000E+00 -0.00000000000E+00 -0.18642519943E+03  0.18642519943E+03  0.00000000000E+00 0.  1.
         23    2    1    2    0    0 -0.62840304503E+02  0.38698063750E+02 -0.59459371538E+02  0.13191847557E+03  0.91763954385E+02 0.  0.
          5    1    1    2  502    0  0.73075784400E+02  0.20154469062E+02  0.82337878520E+01  0.76364524167E+02  0.41800000000E+01 0. -1.
         -5    1    1    2    0  502 -0.10235479897E+02 -0.58852532812E+02 -0.40852129575E+02  0.72489685873E+02  0.41800000000E+01 0. -1.
        -11    1    3    3    0    0 -0.24662835207E+02  0.65732915119E+02 -0.42989316574E+02  0.82323465124E+02  0.00000000000E+00 0.  1.
         11    1    3    3    0    0 -0.38177469295E+02 -0.27034851369E+02 -0.16470054964E+02  0.49595010443E+02  0.00000000000E+00 0. -1.
</event>
<event>
 7    1  0.6988825E-006  0.9230682E+02  0.7561462E-02  0.1297360E+00
         -3   -1    0    0    0  501 -0.00000000000E+00  0.00000000000E+00  0.10670355072E+03  0.10670355072E+03  0.00000000000E+00 0.  1.
          3   -1    0    0  501    0  0.00000000000E+00 -0.00000000000E+00 -0.12401864753E+03  0.12401864753E+03  0.00000000000E+00 0. -1.
         23    2    1    2    0    0 -0.22354449604E+02  0.28022407145E+02 -0.52762410580E+00  0.99540505239E+02  0.92860417168E+02 0.  0.
          5    1    1    2  502    0  0.45762404247E+02 -0.56357002941E+02  0.23565562185E+02  0.76440287441E+02  0.41800000000E+01 0. -1.
         -5    1    1    2    0  502 -0.23407954644E+02  0.28334595795E+02 -0.40353034890E+02  0.54741405575E+02  0.41800000000E+01 0. -1.
        -11    1    3    3    0    0  0.21371499060E+02 -0.25928310340E+01  0.30852865929E+02  0.37621311525E+02  0.00000000000E+00 0.  1.
         11    1    3    3    0    0 -0.43725948663E+02  0.30615238180E+02 -0.31380490035E+02  0.61919193713E+02  0.00000000000E+00 0. -1.
</event>
<event>
 7    1  0.9220426E-006  0.2296293E+03  0.7561462E-02  0.1126901E+00
         -1   -1    0    0    0  501 -0.00000000000E+00  0.00000000000E+00  0.19306487736E+03  0.19306487736E+03  0.00000000000E+00 0.  1.
          1   -1    0    0  501    0  0.00000000000E+00 -0.00000000000E+00 -0.28972725766E+03  0.28972725766E+03  0.00000000000E+00 0. -1.
         23    2    1    2    0    0 -0.17226074010E+03 -0.11009780419E+03  0.16002026891E+00  0.22430148184E+03  0.92281309495E+02 0.  0.
          5    1    1    2  502    0  0.43997808285E+02 -0.25580572026E+02 -0.79959414216E+01  0.51687331893E+02  0.41800000000E+01 0.  1.
         -5    1    1    2    0  502  0.12826293181E+03  0.13567837622E+03 -0.88826459150E+02  0.20680332129E+03  0.41800000000E+01 0.  1.
        -11    1    3    3    0    0 -0.36068139019E+02 -0.71176405553E+02  0.17227410978E+02  0.81631948702E+02  0.00000000000E+00 0.  1.
         11    1    3    3    0    0 -0.13619260108E+03 -0.38921398641E+02 -0.17067390709E+02  0.14266953314E+03  0.00000000000E+00 0. -1.
</event>
<event>
 7    1  0.6988825E-006  0.7717421E+02  0.7561462E-02  0.1337267E+00
          1   -1    0    0  501    0  0.00000000000E+00  0.00000000000E+00  0.16545973693E+03  0.16545973693E+03  0.00000000000E+00 0. -1.
         -1   -1    0    0    0  501 -0.00000000000E+00 -0.00000000000E+00 -0.79157817049E+02  0.79157817049E+02  0.00000000000E+00 0.  1.
         23    2    1    2    0    0  0.12299655724E+02 -0.33043549288E+02  0.48360400472E+02  0.10922775360E+03  0.91371856407E+02 0.  0.
          5    1    1    2  502    0 -0.47716226784E+02  0.44589887507E+02  0.62568004862E+02  0.90539074430E+02  0.41800000000E+01 0. -1.
         -5    1    1    2    0  502  0.35416571060E+02 -0.11546338219E+02 -0.24626485453E+02  0.44850725943E+02  0.41800000000E+01 0. -1.
        -11    1    3    3    0    0 -0.12057946839E+02 -0.24294028549E+01  0.65406868119E+02  0.66553395686E+02  0.00000000000E+00 0. -1.
         11    1    3    3    0    0  0.24357602563E+02 -0.30614146433E+02 -0.17046467648E+02  0.42674357918E+02  0.00000000000E+00 0.  1.
</event>
<event>
 7    1  0.6988825E-006  0.1559173E+03  0.7561462E-02  0.1193385E+00
          2   -1    0    0  501    0  0.00000000000E+00  0.00000000000E+00  0.10242987360E+03  0.10242987360E+03  0.00000000000E+00 0. -1.
         -2   -1    0    0    0  501 -0.00000000000E+00 -0.00000000000E+00 -0.61264706454E+03  0.61264706454E+03  0.00000000000E+00 0.  1.
         23    2    1    2    0    0 -0.11015848822E+03  0.27020706295E+02 -0.52592311949E+03  0.54549427817E+03  0.90021490860E+02 0.  0.
          5    1    1    2  502    0  0.12273693252E+03 -0.56232799562E+02  0.22119020077E+02  0.13686930189E+03  0.41800000000E+01 0. -1.
         -5    1    1    2    0  502 -0.12578444303E+02  0.29212093267E+02 -0.64130915319E+01  0.32713358084E+02  0.41800000000E+01 0. -1.
        -11    1    3    3    0    0 -0.20385814983E+02  0.48299819928E+02 -0.20138023177E+03  0.20809241170E+03  0.00000000000E+00 0. -1.
         11    1    3    3    0    0 -0.89772673234E+02 -0.21279113633E+02 -0.32454288771E+03  0.33740186648E+03  0.00000000000E+00 0.  1.
</event>
<event>
 7    1  0.6988825E-006  0.1012780E+03  0.7561462E-02  0.1277631E+00
          2   -1    0    0  501    0  0.00000000000E+00  0.00000000000E+00  0.20377050795E+03  0.20377050795E+03  0.00000000000E+00 0. -1.
         -2   -1    0    0    0  501 -0.00000000000E+00 -0.00000000000E+00 -0.12436528390E+03  0.12436528390E+03  0.00000000000E+00 0.  1.
         23    2    1    2    0    0 -0.30194893203E+01 -0.48313204699E+02 -0.70393854057E+02  0.12706372320E+03  0.94056429868E+02 0.  0.
          5    1    1    2  502    0 -0.46891144377E+02  0.33852310201E+02  0.20235899657E+02  0.61414349804E+02  0.41800000000E+01 0.  1.
         -5    1    1    2    0  502  0.49910633697E+02  0.14460894498E+02  0.12956317844E+03  0.13965771885E+03  0.41800000000E+01 0.  1.
        -11    1    3    3    0    0 -0.11740156275E+02  0.20205536585E+02 -0.49763235286E+02  0.54977036699E+02  0.00000000000E+00 0.  1.
         11    1    3    3    0    0  0.87206669551E+01 -0.68518741285E+02 -0.20630618772E+02  0.72086686498E+02  0.00000000000E+00 0. -1.
</event>
<event>
 7    1  0.6988825E-006  0.6849660E+02  0.7561462E-02  0.1365281E+00
         -2   -1    0    0    0  501 -0.00000000000E+00  0.00000000000E+00  0.33689141073E+03  0.33689141073E+03  0.00000000000E+00 0.  1.
          2   -1    0    0  501    0  0.00000000000E+00 -0.00000000000E+00 -0.46025099735E+02  0.46025099735E+02  0.00000000000E+00 0. -1.
         23    2    1    2    0    0  0.60578298625E+02 -0.68696582202E+01  0.11963002770E+03  0.16226733446E+03  0.91117626392E+02 0.  0.
          5    1    1    2  502    0 -0.30866629922E+02 -0.69526640877E+01  0.18286353929E+03  0.18562767784E+03  0.41800000000E+01 0.  1.
         -5    1    1    2    0  502 -0.29711668703E+02  0.13822322308E+02 -0.11627255991E+02  0.35021498154E+02  0.41800000000E+01 0.  1.
        -11    1    3    3    0    0  0.61453428485E+02  0.35794547292E+01  0.13224105255E+03  0.14586648810E+03  0.00000000000E+00 0.  1.
         11    1    3    3    0    0 -0.87512985984E+00 -0.10449112949E+02 -0.12611024857E+02  0.16400846370E+02  0.00000000000E+00 0. -1.
</event>
<event>
 7    1  0.6988825E-006  0.1358127E+03  0.7561462E-02  0.1219077E+00
         -2   -1    0    0    0  501 -0.00000000000E+00  0.00000000000E+00  0.20293607704E+02  0.20293607704E+02  0.00000000000E+00 0.  1.
          2   -1    0    0  501    0  0.00000000000E+00 -0.00000000000E+00 -0.14272801579E+04  0.14272801579E+04  0.00000000000E+00 0. -1.
         23    2    1    2    0    0  0.12136260014E+03  0.16384626094E+02 -0.46075413790E+03  0.48528467222E+03  0.90606295666E+02 0.  0.
          5    1    1    2  502    0 -0.89137686580E+02 -0.41236356554E+02 -0.87206171297E+03  0.87758479243E+03  0.41800000000E+01 0. -1.
         -5    1    1    2    0  502 -0.32224913563E+02  0.24851730459E+02 -0.74170699279E+02  0.84704300909E+02  0.41800000000E+01 0. -1.
        -11    1    3    3    0    0  0.21545852396E+02  0.24066477845E+02 -0.33810707407E+02  0.46760913664E+02  0.00000000000E+00 0. -1.
         11    1    3    3    0    0  0.99816747747E+02 -0.76818517508E+01 -0.42694343049E+03  0.43852375856E+03  0.00000000000E+00 0.  1.
</event>
<event>
 7    1  0.6988825E-006  0.1475646E+03  0.7561462E-02  0.1203498E+00
          2   -1    0    0  501    0  0.00000000000E+00  0.00000000000E+00  0.87135043766E+03  0.87135043766E+03  0.00000000000E+00 0. -1.
         -2   -1    0    0    0  501 -0.00000000000E+00 -0.00000000000E+00 -0.31424964567E+02  0.31424964567E+02  0.00000000000E+00 0.  1.
         23    2    1    2    0    0  0.72663659559E+02 -0.98039187018E+02  0.32250495483E+03  0.35664039525E+03  0.91056224528E+02 0.  0.
          5    1    1    2  502    0 -0.10397957502E+03  0.93993939783E+02  0.45403523401E+03  0.47519688432E+03  0.41800000000E+01 0. -1.
         -5    1    1    2    0  502  0.31315915465E+02  0.40452472349E+01  0.63385284244E+02  0.70938122651E+02  0.41800000000E+01 0. -1.
        -11    1    3    3    0    0  0.38413473631E+02 -0.64746700774E+02  0.28810198753E+03  0.29777589802E+03  0.00000000000E+00 0. -1.
         11    1    3    3    0    0  0.34250185928E+02 -0.33292486244E+02  0.34402967296E+02  0.58864497239E+02  0.00000000000E+00 0.  1.
</event>
<event>
 7    1  0.6988825E-006  0.1571584E+03  0.7561462E-02  0.1191943E+00
          1   -1    0    0  501    0  0.00000000000E+00  0.00000000000E+00  0.31878685794E+03  0.31878685794E+03  0.00000000000E+00 0. -1.
         -1   -1    0    0    0  501 -0.00000000000E+00 -0.00000000000E+00 -0.10898821678E+03  0.10898821678E+03  0.00000000000E+00 0.  1.
         23    2    1    2    0    0 -0.14909894716E+03 -0.13446048270E+02  0.44902817246E+02  0.17234366018E+03  0.72627694092E+02 0.  0.
          5    1    1    2  502    0  0.99478080459E+00  0.26055807420E+01 -0.18640288334E+02  0.19305734615E+02  0.41800000000E+01 0. -1.
         -5    1    1    2    0  502  0.14810416635E+03  0.10840467528E+02  0.18353611224E+03  0.23612567993E+03  0.41800000000E+01 0. -1.
        -11    1    3    3    0    0 -0.78237648949E+02 -0.36338967668E+02  0.17632211443E+01  0.86283018219E+02  0.00000000000E+00 0.  1.
         11    1    3    3    0    0 -0.70861298206E+02  0.22892919398E+02  0.43139596102E+02  0.86060641956E+02  0.00000000000E+00 0. -1.
</event>
<event>
 7    1  0.6988825E-006  0.9410145E+02  0.7561462E-02  0.1293213E+00
         -1   -1    0    0    0  501 -0.00000000000E+00  0.00000000000E+00  0.13710083337E+02  0.13710083337E+02  0.00000000000E+00 0.  1.
          1   -1    0    0  501    0  0.00000000000E+00 -0.00000000000E+00 -0.10105656365E+04  0.10105656365E+04  0.00000000000E+00 0. -1.
         23    2    1    2    0    0 -0.35934110335E+02  0.14262943077E+02 -0.26464806174E+03  0.28199294155E+03  0.89368510494E+02 0.  0.
          5    1    1    2  502    0  0.56618099211E+02  0.26846462517E+02 -0.57515660095E+03  0.57857491280E+03  0.41800000000E+01 0. -1.
         -5    1    1    2    0  502 -0.20683988876E+02 -0.41109405594E+02 -0.15705089044E+03  0.16370786546E+03  0.41800000000E+01 0.  1.
        -11    1    3    3    0    0 -0.28375508898E+02  0.41865296072E+02 -0.23651511263E+03  0.24186209092E+03  0.00000000000E+00 0. -1.
         11    1    3    3    0    0 -0.75586014372E+01 -0.27602352995E+02 -0.28132949113E+02  0.40130850631E+02  0.00000000000E+00 0.  1.
</event>
<event>
 7    1  0.6988825E-006  0.8371226E+02  0.7561462E-02  0.1318835E+00
          1   -1    0    0  501    0  0.00000000000E+00  0.00000000000E+00  0.10157998387E+03  0.10157998387E+03  0.00000000000E+00 0. -1.
         -1   -1    0    0    0  501 -0.00000000000E+00 -0.00000000000E+00 -0.12927566409E+03  0.12927566409E+03  0.00000000000E+00 0.  1.
         23    2    1    2    0    0  0.33198154820E+02 -0.17338245549E+01 -0.39102409662E+01  0.99256758863E+02  0.93442445198E+02 0.  0.
          5    1    1    2  502    0 -0.27039054587E+02  0.44509794314E+02 -0.56709860634E+02  0.77108449316E+02  0.41800000000E+01 0. -1.
         -5    1    1    2    0  502 -0.61591002330E+01 -0.42775969759E+02  0.32924421376E+02  0.54490439780E+02  0.41800000000E+01 0. -1.
        -11    1    3    3    0    0 -0.18280652042E+02  0.69420398015E+01 -0.33838127269E+02  0.39081875757E+02  0.00000000000E+00 0.  1.
         11    1    3    3    0    0  0.51478806862E+02 -0.86758643564E+01  0.29927886302E+02  0.60174883106E+02  0.00000000000E+00 0. -1.
</event>
<event>
 7    1  0.6988825E-006  0.2496653E+03  0.7561462E-02  0.1113517E+00
         -2   -1    0    0    0  501 -0.00000000000E+00  0.00000000000E+00  0.21606691666E+03  0.21606691666E+03  0.00000000000E+00 0.  1.
          2   -1    0    0  501    0  0.00000000000E+00 -0.00000000000E+00 -0.32849326876E+03  0.32849326876E+03  0.00000000000E+00 0. -1.
         23    2    1    2    0    0 -0.48284224536E+02  0.23353810396E+03 -0.56331779740E+01  0.25486366008E+03  0.89734832691E+02 0.  0.
          5    1    1    2  502    0  0.66719685750E+02 -0.15815261512E+03 -0.19477916777E+02  0.17280227944E+03  0.41800000000E+01 0.  1.
         -5    1    1    2    0  502 -0.18435461214E+02 -0.75385488836E+02 -0.87315257354E+02  0.11689424590E+03  0.41800000000E+01 0.  1.
        -11    1    3    3    0    0  0.18890372901E+02  0.82045916132E+02 -0.25475582692E+02  0.87962400239E+02  0.00000000000E+00 0.  1.
         11    1    3    3    0    0 -0.67174597436E+02  0.15149218783E+03  0.19842404718E+02  0.16690125985E+03  0.00000000000E+00 0. -1.
</event>
<event>
 7    1  0.6988825E-006  0.7377708E+02  0.7561462E-02  0.1347700E+00
          1   -1    0    0  501    0  0.00000000000E+00  0.00000000000E+00  0.37083397704E+03  0.37083397704E+03  0.00000000000E+00 0. -1.
         -1   -1    0    0    0  501 -0.00000000000E+00 -0.00000000000E+00 -0.49585393446E+02  0.49585393446E+02  0.00000000000E+00 0.  1.
         23    2    1    2    0    0 -0.48708739360E+01  0.13712984600E+01  0.14469604380E+02  0.94024691935E+02  0.92766736334E+02 0.  0.
          5    1    1    2  502    0 -0.22548030346E+02 -0.41635937480E+02  0.69954279523E+02  0.84575638253E+02  0.41800000000E+01 0. -1.
         -5    1    1    2    0  502  0.27418904282E+02  0.40264639020E+02  0.23682469969E+03  0.24181904030E+03  0.41800000000E+01 0.  1.
        -11    1    3    3    0    0 -0.22133697923E+02  0.16947218735E+02 -0.31771255445E+02  0.42267262499E+02  0.00000000000E+00 0.  1.
         11    1    3    3    0    0  0.17262823987E+02 -0.15575920275E+02  0.46240859825E+02  0.51757429436E+02  0.00000000000E+00 0. -1.
</event>
<event>
 7    1  0.6988825E-006  0.1107640E+03  0.7561462E-02  0.1259162E+00
         -2   -1    0    0    0  501 -0.00000000000E+00  0.00000000000E+00  0.38218259160E+02  0.38218259160E+02  0.00000000000E+00 0.  1.
          2   -1    0    0  501    0  0.00000000000E+00 -0.00000000000E+00 -0.35148697757E+03  0.35148697757E+03  0.00000000000E+00 0. -1.
         23    2    1    2    0    0  0.24429721898E+02  0.21508879265E+02 -0.92182156360E+02  0.13359801613E+03  0.91057326802E+02 0.  0.
          5    1    1    2  502    0  0.46391423022E+02 -0.32532136805E+02 -0.11065984412E+03  0.12439283563E+03  0.41800000000E+01 0.  1.
         -5    1    1    2    0  502 -0.70821144920E+02  0.11023257539E+02 -0.11042671793E+03  0.13171438497E+03  0.41800000000E+01 0.  1.
        -11    1    3    3    0    0  0.48288618191E+02 -0.13873368149E+02 -0.31112299146E+02  0.59095144883E+02  0.00000000000E+00 0.  1.
         11    1    3    3    0    0 -0.23858896293E+02  0.35382247414E+02 -0.61069857214E+02  0.74502871251E+02  0.00000000000E+00 0. -1.
</event>
<event>
 7    1  0.6988825E-006  0.2012280E+03  0.7561462E-02  0.1148707E+00
          2   -1    0    0  501    0  0.00000000000E+00  0.00000000000E+00  0.18854151150E+04  0.18854151150E+04  0.00000000000E+00 0. -1.
         -2   -1    0    0    0  501 -0.00000000000E+00 -0.00000000000E+00 -0.25071450315E+02  0.25071450315E+02  0.00000000000E+00 0.  1.
         23    2    1    2    0    0 -0.84673891945E+02  0.15974602584E+03  0.66309719580E+03  0.69322041341E+03  0.90378037951E+02 0.  0.
          5    1    1    2  502    0 -0.32614413321E+02 -0.33492608537E+02  0.29312255824E+03  0.29685646587E+03  0.41800000000E+01 0.  1.
         -5    1    1    2    0  502  0.11728830527E+03 -0.12625341730E+03  0.90412391066E+03  0.92040968604E+03  0.41800000000E+01 0.  1.
        -11    1    3    3    0    0 -0.23856622273E+02  0.21516705932E+02  0.36243749268E+02  0.48432596683E+02  0.00000000000E+00 0.  1.
         11    1    3    3    0    0 -0.60817269671E+02  0.13822931991E+03  0.62685344653E+03  0.64478781672E+03  0.00000000000E+00 0. -1.
</event>
<event>
 7    1  0.6988825E-006  0.6177698E+02  0.7561462E-02  0.1390522E+00
         -1   -1    0    0    0  501 -0.00000000000E+00  0.00000000000E+00  0.38518295746E+02  0.38518295746E+02  0.00000000000E+00 0.  1.
          1   -1    0    0  501    0  0.00000000000E+00 -0.00000000000E+00 -0.49058254214E+03  0.49058254214E+03  0.00000000000E+00 0. -1.
         23    2    1    2    0    0  0.76479762864E+01  0.44371588497E+02 -0.69811451421E+02  0.12438846893E+03  0.92582520193E+02 0.  0.
          5    1    1    2  502    0 -0.46023730015E+00 -0.24556667824E+01 -0.35275223864E+03  0.35278585060E+03  0.41800000000E+01 0. -1.
         -5    1    1    2    0  502 -0.71877389863E+01 -0.41915921715E+02 -0.29500556332E+02  0.51926518359E+02  0.41800000000E+01 0. -1.
        -11    1    3    3    0    0  0.28904362931E+02  0.25234164273E+01  0.10922225508E+02  0.31002013434E+02  0.00000000000E+00 0.  1.
         11    1    3    3    0    0 -0.21256386645E+02  0.41848172070E+02 -0.80733676929E+02  0.93386455492E+02  0.00000000000E+00 0. -1.
</event>
<event>
 7    1  0.6988825E-006  0.1866758E+03  0.7561462E-02  0.1161494E+00
         -2   -1    0    0    0  501 -0.00000000000E+00  0.00000000000E+00  0.35917618344E+02  0.35917618344E+02  0.00000000000E+00 0. -1.
          2   -1    0    0  501    0  0.00000000000E+00 -0.00000000000E+00 -0.12570682465E+04  0.12570682465E+04  0.00000000000E+00 0.  1.
         23    2    1    2    0    0 -0.16133614075E+03 -0.64405593511E+02 -0.42048837682E+03  0.46420047523E+03  0.92163850678E+02 0.  0.
          5    1    1    2  502    0  0.75592579886E+02  0.80750497856E+02 -0.28443897114E+03  0.30521776118E+03  0.41800000000E+01 0. -1.
         -5    1    1    2    0  502  0.85743560869E+02 -0.16344904344E+02 -0.51622328020E+03  0.52356762844E+03  0.41800000000E+01 0. -1.
        -11    1    3    3    0    0 -0.67806623943E+02 -0.14798258162E+02 -0.72078127376E+02  0.10005989777E+03  0.00000000000E+00 0.  1.
         11    1    3    3    0    0 -0.93529516811E+02 -0.49607335349E+02 -0.34841024944E+03  0.36414057746E+03  0.00000000000E+00 0. -1.
</event>
<event>
 7    1  0.6988825E-006  0.1325835E+03  0.7561462E-02  0.1223672E+00
         -1   -1    0    0    0  501 -0.00000000000E+00  0.00000000000E+00  0.22032141215E+02  0.22032141215E+02  0.00000000000E+00 0.  1.
          1   -1    0    0  501    0  0.00000000000E+00 -0.00000000000E+00 -0.11757571204E+04  0.11757571204E+04  0.00000000000E+00 0. -1.
         23    2    1    2    0    0  0.11403248065E+03 -0.26988845044E+00 -0.40728501006E+03  0.43239777220E+03  0.89907032541E+02 0.  0.
          5    1    1    2  502    0 -0.12468721877E+03  0.14317772674E+02 -0.73063200934E+03  0.74134506582E+03  0.41800000000E+01 0. -1.
         -5    1    1    2    0  502  0.10654738121E+02 -0.14047884223E+02 -0.15807959800E+02  0.24046423614E+02  0.41800000000E+01 0. -1.
        -11    1    3    3    0    0  0.46810132302E+02  0.20515065239E+02 -0.29847940017E+03  0.30282339525E+03  0.00000000000E+00 0. -1.
         11    1    3    3    0    0  0.67222348348E+02 -0.20784953689E+02 -0.10880560990E+03  0.12957437695E+03  0.00000000000E+00 0.  1.
</event>
<event>
 7    1  0.6988825E-006  0.1033323E+03  0.7561462E-02  0.1273441E+00
         -1   -1    0    0    0  501 -0.00000000000E+00  0.00000000000E+00  0.32466852572E+02  0.32466852572E+02  0.00000000000E+00 0.  1.
          1   -1    0    0  501    0  0.00000000000E+00 -0.00000000000E+00 -0.51981676030E+03  0.51981676030E+03  0.00000000000E+00 0. -1.
         23    2    1    2    0    0 -0.25096843308E+02  0.18305984602E+02 -0.81475128801E+02  0.12643536441E+03  0.91557327096E+02 0.  0.
          5    1    1    2  502    0  0.75341677948E+02 -0.41343666998E+01 -0.26452683111E+03  0.27510975664E+03  0.41800000000E+01 0.  1.
         -5    1    1    2    0  502 -0.50244834641E+02 -0.14171617902E+02 -0.14134794782E+03  0.15073849181E+03  0.41800000000E+01 0.  1.
        -11    1    3    3    0    0 -0.45299939040E+02  0.30972639802E+02 -0.86143061285E+02  0.10213724052E+03  0.00000000000E+00 0. -1.
         11    1    3    3    0    0  0.20203095732E+02 -0.12666655200E+02  0.46679324841E+01  0.24298123894E+02  0.00000000000E+00 0.  1.
</event>
<event>
 6    1  0.6988825E-006  0.8179166E+02  0.7561462E-02  0.1324043E+00
         -2   -1    0    0    0  501 -0.00000000000E+00  0.00000000000E+00  0.71032471243E+02  0.71032471243E+02  0.00000000000E+00 0.  1.
          2   -1    0    0  501    0  0.00000000000E+00 -0.00000000000E+00 -0.12409718676E+03  0.12409718676E+03  0.00000000000E+00 0. -1.
          5    1    1    2  502    0 -0.68958389277E+01 -0.40638134450E+02  0.18009857300E+02  0.45175634207E+02  0.41800000000E+01 0.  1.
         -5    1    1    2    0  502  0.39190454030E+02  0.58705402777E+02 -0.57423036622E+02  0.91088383108E+02  0.41800000000E+01 0.  1.
        -11    1    1    2    0    0 -0.33076092112E+02  0.28317443389E+00 -0.20892306779E+02  0.39122839106E+02  0.00000000000E+00 0. -1.
         11    1    1    2    0    0  0.78147700986E+00 -0.18350442761E+02  0.72407705803E+01  0.19742801586E+02  0.00000000000E+00 0.  1.
</event>
<event>
 7    1  0.6988825E-006  0.9695602E+02  0.7561462E-02  0.1286830E+00
         -3   -1    0    0    0  501 -0.00000000000E+00  0.00000000000E+00  0.24147948530E+02  0.24147948530E+02  0.00000000000E+00 0.  1.
          3   -1    0    0  501    0  0.00000000000E+00 -0.00000000000E+00 -0.78787117422E+03  0.78787117422E+03  0.00000000000E+00 0. -1.
         23    2    1    2    0    0  0.80043021699E+02  0.46810653245E+01 -0.26434015779E+03  0.29100062755E+03  0.91525125080E+02 0.  0.
          5    1    1    2  502    0 -0.77947513173E+02 -0.13017146767E+02 -0.50416004257E+03  0.51033330466E+03  0.41800000000E+01 0. -1.
         -5    1    1    2    0  502 -0.20955085265E+01  0.83360814429E+01  0.47769746705E+01  0.10685190537E+02  0.41800000000E+01 0. -1.
        -11    1    3    3    0    0 -0.12234918282E+02  0.42054996422E+01 -0.22396615162E+01  0.13129948070E+02  0.00000000000E+00 0.  1.
         11    1    3    3    0    0  0.92277939981E+02  0.47556568229E+00 -0.26210049627E+03  0.27787067948E+03  0.00000000000E+00 0. -1.
</event>
<event>
 7    1  0.6988825E-006  0.6780135E+02  0.7561462E-02  0.1367733E+00
         -2   -1    0    0    0  501 -0.00000000000E+00  0.00000000000E+00  0.13328843488E+03  0.13328843488E+03  0.00000000000E+00 0.  1.
          2   -1    0    0  501    0  0.00000000000E+00 -0.00000000000E+00 -0.11111918210E+03  0.11111918210E+03  0.00000000000E+00 0. -1.
         23    2    1    2    0    0 -0.28221784148E+02  0.19868161194E+02  0.68627785917E+02  0.11679535187E+03  0.87978226215E+02 0.  0.
          5    1    1    2  502    0 -0.11468484859E+01 -0.89025235314E+01 -0.80523156863E+02  0.81129657819E+02  0.41800000000E+01 0. -1.
         -5    1    1    2    0  502  0.29368632634E+02 -0.10965637663E+02  0.34064623722E+02  0.46482607301E+02  0.41800000000E+01 0.  1.
        -11    1    3    3    0    0  0.75044563908E+01  0.48011702652E+02  0.41010143489E+02  0.63586730740E+02  0.00000000000E+00 0. -1.
         11    1    3    3    0    0 -0.35726240539E+02 -0.28143541458E+02  0.27617642428E+02  0.53208621126E+02  0.00000000000E+00 0.  1.
</event>
<event>
 7    1  0.6988825E-006  0.1207331E+03  0.7561462E-02  0.1241893E+00
         -2   -1    0    0    0  501 -0.00000000000E+00  0.00000000000E+00  0.20414917985E+02  0.20414917985E+02  0.00000000000E+00 0.  1.
          2   -1    0    0  501    0  0.00000000000E+00 -0.00000000000E+00 -0.95866800017E+03  0.95866800017E+03  0.00000000000E+00 0. -1.
         23    2    1    2    0    0  0.69399188904E+02 -0.50943486810E+02 -0.38509422539E+03  0.40546838188E+03  0.93249986599E+02 0.  0.
          5    1    1    2  502    0 -0.43236771415E+02  0.87906171506E+02 -0.27944588096E+03  0.29614926334E+03  0.41800000000E+01 0.  1.
         -5    1    1    2    0  502 -0.26162417488E+02 -0.36962684697E+02 -0.27371297584E+03  0.27746527295E+03  0.41800000000E+01 0.  1.
        -11    1    3    3    0    0  0.36635869113E+02  0.85452839468E+00 -0.37206669704E+02  0.52223111693E+02  0.00000000000E+00 0.  1.
         11    1    3    3    0    0  0.32763319790E+02 -0.51798015204E+02 -0.34788755569E+03  0.35324527018E+03  0.00000000000E+00 0. -1.
</event>
<event>
 7    1  0.6988825E-006  0.1222963E+03  0.7561462E-02  0.1239356E+00
          2   -1    0    0  501    0  0.00000000000E+00  0.00000000000E+00  0.27267505540E+03  0.27267505540E+03  0.00000000000E+00 0. -1.
         -2   -1    0    0    0  501 -0.00000000000E+00 -0.00000000000E+00 -0.55543412963E+02  0.55543412963E+02  0.00000000000E+00 0.  1.
         23    2    1    2    0    0 -0.18610052010E+02  0.55668431242E+02  0.97342619311E+02  0.14534544290E+03  0.90578164948E+02 0.  0.
          5    1    1    2  502    0 -0.30804671387E+02  0.27268913071E+02  0.40394490733E+02  0.57807514052E+02  0.41800000000E+01 0.  1.
         -5    1    1    2    0  502  0.49414723397E+02 -0.82937344312E+02  0.79394532390E+02  0.12506551141E+03  0.41800000000E+01 0.  1.
        -11    1    3    3    0    0  0.31443610439E+02 -0.40199949189E+00  0.39584197394E+02  0.50554633066E+02  0.00000000000E+00 0. -1.
         11    1    3    3    0    0 -0.50053662449E+02  0.56070430733E+02  0.57758421917E+02  0.94790809837E+02  0.00000000000E+00 0.  1.
</event>
<event>
 7    1  0.6988825E-006  0.1381886E+03  0.7561462E-02  0.1215787E+00
         -2   -1    0    0    0  501 -0.00000000000E+00  0.00000000000E+00  0.41163847281E+02  0.41163847281E+02  0.00000000000E+00 0.  1.
          2   -1    0    0  501    0  0.00000000000E+00 -0.00000000000E+00 -0.51626014027E+03  0.51626014027E+03  0.00000000000E+00 0. -1.
         23    2    1    2    0    0  0.24038088248E+01  0.87091809238E+02 -0.13083104216E+03  0.18091725792E+03  0.89574165291E+02 0.  0.
          5    1    1    2  502    0 -0.47594926955E+02 -0.94859876106E+02 -0.24852884661E+03  0.27027344147E+03  0.41800000000E+01 0.  1.
         -5    1    1    2    0  502  0.45191118130E+02  0.77680668676E+01 -0.95736404219E+02  0.10623328816E+03  0.41800000000E+01 0.  1.
        -11    1    3    3    0    0  0.29193345830E+02 -0.37293355920E+01 -0.22568316744E+02  0.37087576159E+02  0.00000000000E+00 0. -1.
         11    1    3    3    0    0 -0.26789537005E+02  0.90821144830E+02 -0.10826272542E+03  0.14382968176E+03  0.00000000000E+00 0.  1.
</event>
<event>
 7    1  0.6988825E-006  0.1509898E+03  0.7561462E-02  0.1199262E+00
          2   -1    0    0  501    0  0.00000000000E+00  0.00000000000E+00  0.17884517265E+04  0.17884517265E+04  0.00000000000E+00 0. -1.
         -2   -1    0    0    0  501 -0.00000000000E+00 -0.00000000000E+00 -0.18777018239E+02  0.18777018239E+02  0.00000000000E+00 0.  1.
         23    2    1    2    0    0 -0.54340784967E+02 -0.12887412579E+03  0.59768896118E+03  0.62031719720E+03  0.89441990205E+02 0.  0.
          5    1    1    2  502    0  0.44594921383E+02  0.98568918968E+02  0.40402913663E+03  0.41828405952E+03  0.41800000000E+01 0. -1.
         -5    1    1    2    0  502  0.97458635836E+01  0.30305206818E+02  0.76795661049E+03  0.76862748807E+03  0.41800000000E+01 0. -1.
        -11    1    3    3    0    0  0.21582521567E+02 -0.28433177814E+02  0.81145403179E+02  0.88650027044E+02  0.00000000000E+00 0.  1.
         11    1    3    3    0    0 -0.75923306533E+02 -0.10044094797E+03  0.51654355801E+03  0.53166717016E+03  0.00000000000E+00 0. -1.
</event>
<event>
 7    1  0.6988825E-006  0.9562185E+02  0.7561462E-02  0.1289782E+00
          2   -1    0    0  501    0  0.00000000000E+00  0.00000000000E+00  0.31337645526E+03  0.31337645526E+03  0.00000000000E+00 0. -1.
         -2   -1    0    0    0  501 -0.00000000000E+00 -0.00000000000E+00 -0.50378901699E+02  0.50378901699E+02  0.00000000000E+00 0.  1.
         23    2    1    2    0    0  0.50446650588E+00 -0.61342546391E+02  0.10028727369E+03  0.14954701633E+03  0.92431652295E+02 0.  0.
          5    1    1    2  502    0  0.39041866326E+02  0.35015677509E+02  0.15771196520E+03  0.16625553033E+03  0.41800000000E+01 0. -1.
         -5    1    1    2    0  502 -0.39546332832E+02  0.26326868882E+02  0.49983146675E+01  0.47952810294E+02  0.41800000000E+01 0. -1.
        -11    1    3    3    0    0 -0.19346764233E+02  0.63785930395E+01 -0.66445337523E+01  0.21427402181E+02  0.00000000000E+00 0.  1.
         11    1    3    3    0    0  0.19851230739E+02 -0.67721139430E+02  0.10693180744E+03  0.12811961415E+03  0.00000000000E+00 0. -1.
</event>
<event>
 7    1  0.6988825E-006  0.9591463E+02  0.7561462E-02  0.1289129E+00
         -2   -1    0    0    0  501 -0.00000000000E+00  0.00000000000E+00  0.70234537920E+02  0.70234537920E+02  0.00000000000E+00 0.  1.
          2   -1    0    0  501    0  0.00000000000E+00 -0.00000000000E+00 -0.19034631323E+03  0.19034631323E+03  0.00000000000E+00 0. -1.
         23    2    1    2    0    0  0.20566131378E+02 -0.22592168390E+02 -0.21210876763E+02  0.98232519597E+02  0.90919496154E+02 0.  0.
          5    1    1    2  502    0 -0.51572315273E+02  0.35812979799E+02 -0.57386934332E+01  0.63187642993E+02  0.41800000000E+01 0. -1.
         -5    1    1    2    0  502  0.31006183894E+02 -0.13220811409E+02 -0.93162205118E+02  0.99160688564E+02  0.41800000000E+01 0. -1.
        -11    1    3    3    0    0 -0.14478379720E+02 -0.48976111252E+02 -0.44183717046E+01  0.51262120140E+02  0.00000000000E+00 0.  1.
         11    1    3    3    0    0  0.35044511098E+02  0.26383942862E+02 -0.16792505058E+02  0.46970399457E+02  0.00000000000E+00 0. -1.
</event>
<event>
 7    1  0.6988825E-006  0.8650699E+02  0.7561462E-02  0.1311538E+00
          1   -1    0    0  501    0  0.00000000000E+00  0.00000000000E+00  0.33447958894E+02  0.33447958894E+02  0.00000000000E+00 0. -1.
         -1   -1    0    0    0  501 -0.00000000000E+00 -0.00000000000E+00 -0.36674606895E+03  0.36674606895E+03  0.00000000000E+00 0.  1.
         23    2    1    2    0    0  0.23409048846E+02  0.46468991090E+01 -0.18790750925E+03  0.20691898584E+03  0.83286598132E+02 0.  0.
          5    1    1    2  502    0 -0.91176162599E+01  0.40593770995E+02 -0.16477333765E+01  0.41847014172E+02  0.41800000000E+01 0.  1.
         -5    1    1    2    0  502 -0.14291432586E+02 -0.45240670104E+02 -0.14374286743E+03  0.15142802783E+03  0.41800000000E+01 0.  1.
        -11    1    3    3    0    0  0.35348352090E+02  0.35738133014E+02 -0.13845332087E+03  0.14729576439E+03  0.00000000000E+00 0.  1.
         11    1    3    3    0    0 -0.11939303244E+02 -0.31091233905E+02 -0.49454188381E+02  0.59623221450E+02  0.00000000000E+00 0. -1.
</event>
<event>
 7    1  0.6988825E-006  0.2078430E+03  0.7561462E-02  0.1143286E+00
          2   -1    0    0  501    0  0.00000000000E+00  0.00000000000E+00  0.23675711307E+03  0.23675711307E+03  0.00000000000E+00 0. -1.
         -2   -1    0    0    0  501 -0.00000000000E+00 -0.00000000000E+00 -0.18539858266E+03  0.18539858266E+03  0.00000000000E+00 0.  1.
         23    2    1    2    0    0 -0.89388709643E+02 -0.15719059436E+03  0.21250003832E+02  0.20022220807E+03  0.83295531540E+02 0.  0.
          5    1    1    2  502    0  0.14635406346E+01  0.12280913419E+03  0.33495429553E+02  0.12737205970E+03  0.41800000000E+01 0.  1.
         -5    1    1    2    0  502  0.87925169008E+02  0.34381460167E+02 -0.33869029777E+01  0.94561427972E+02  0.41800000000E+01 0.  1.
        -11    1    3    3    0    0 -0.97739045686E+02 -0.97607717146E+02  0.65447303191E+01  0.13828601156E+03  0.00000000000E+00 0. -1.
         11    1    3    3    0    0  0.83503360432E+01 -0.59582877209E+02  0.14705273513E+02  0.61936196507E+02  0.00000000000E+00 0.  1.
</event>
<event>
 7    1  0.6988825E-006  0.8705852E+02  0.7561462E-02  0.1310135E+00
         -1   -1    0    0    0  501 -0.00000000000E+00  0.00000000000E+00  0.14073471262E+02  0.14073471262E+02  0.00000000000E+00 0.  1.
          1   -1    0    0  501    0  0.00000000000E+00 -0.00000000000E+00 -0.88358401724E+03  0.88358401724E+03  0.00000000000E+00 0. -1.
         23    2    1    2    0    0  0.49360713377E+00  0.12523453973E+02 -0.26120219936E+03  0.27649443385E+03  0.89808142453E+02 0.  0.
          5    1    1    2  502    0 -0.42692207107E+02 -0.90678278551E+01 -0.53193345663E+03  0.53373731810E+03  0.41800000000E+01 0.  1.
         -5    1    1    2    0  502  0.42198599973E+02 -0.34556261175E+01 -0.76374889991E+02  0.87425736558E+02  0.41800000000E+01 0.  1.
        -11    1    3    3    0    0  0.40198692312E+02 -0.10870648585E+02 -0.89469780699E+02  0.98686106026E+02  0.00000000000E+00 0.  1.
         11    1    3    3    0    0 -0.39705085178E+02  0.23394102558E+02 -0.17173241866E+03  0.17780832782E+03  0.00000000000E+00 0. -1.
</event>
<event>
 7    1  0.6988825E-006  0.1884840E+03  0.7561462E-02  0.1159836E+00
          1   -1    0    0  501    0  0.00000000000E+00  0.00000000000E+00  0.43237866382E+03  0.43237866382E+03  0.00000000000E+00 0. -1.
         -1   -1    0    0    0  501 -0.00000000000E+00 -0.00000000000E+00 -0.10565698468E+03  0.10565698468E+03  0.00000000000E+00 0.  1.
         23    2    1    2    0    0  0.59482014495E+02  0.17327846357E+03  0.14746697703E+03  0.25282822142E+03  0.92801208206E+02 0.  0.
          5    1    1    2  502    0 -0.31874853052E+02 -0.91585188413E+02  0.17334760723E+03  0.19867238944E+03  0.41800000000E+01 0.  1.
         -5    1    1    2    0  502 -0.27607161443E+02 -0.81693275160E+02  0.59070948865E+01  0.86535037640E+02  0.41800000000E+01 0.  1.
        -11    1    3    3    0    0  0.37801687840E+02  0.28924404860E+02  0.33761767263E+01  0.47717788814E+02  0.00000000000E+00 0.  1.
         11    1    3    3    0    0  0.21680326655E+02  0.14435405871E+03  0.14409080030E+03  0.20511043260E+03  0.00000000000E+00 0. -1.
</event>
<event>
 7    1  0.6988825E-006  0.1144028E+03  0.7561462E-02  0.1252627E+00
          1   -1    0    0  501    0  0.00000000000E+00  0.00000000000E+00  0.78770386614E+02  0.78770386614E+02  0.00000000000E+00 0. -1.
         -1   -1    0    0    0  501 -0.00000000000E+00 -0.00000000000E+00 -0.20924083171E+03  0.20924083171E+03  0.00000000000E+00 0.  1.
         23    2    1    2    0    0  0.53255014294E+02  0.43589719927E+02 -0.61958321038E+02  0.12965330483E+03  0.90746821861E+02 0.  0.
          5    1    1    2  502    0 -0.74280180871E+02  0.11263018743E+02 -0.64878205266E+02  0.99353182032E+02  0.41800000000E+01 0.  1.
         -5    1    1    2    0  502  0.21025166577E+02 -0.54852738669E+02 -0.36339187974E+01  0.59004731462E+02  0.41800000000E+01 0.  1.
        -11    1    3    3    0    0  0.33743650766E+02 -0.11952381452E+02 -0.61056327504E+02  0.70776892540E+02  0.00000000000E+00 0.  1.
         11    1    3    3    0    0  0.19511363528E+02  0.55542101378E+02 -0.90199353398E+00  0.58876412294E+02  0.00000000000E+00 0. -1.
</event>
<event>
 7    1  0.6988825E-006  0.8366740E+02  0.7561462E-02  0.1318955E+00
         -2   -1    0    0    0  501 -0.00000000000E+00  0.00000000000E+00  0.34309375698E+02  0.34309375698E+02  0.00000000000E+00 0.  1.
          2   -1    0    0  501    0  0.00000000000E+00 -0.00000000000E+00 -0.39480165048E+03  0.39480165048E+03  0.00000000000E+00 0. -1.
         23    2    1    2    0    0  0.94537494911E+01 -0.36492458974E+02 -0.11776408098E+03  0.15345619610E+03  0.90880979383E+02 0.  0.
          5    1    1    2  502    0 -0.47438006551E+01 -0.25854469487E+02 -0.19519788812E+03  0.19700417549E+03  0.41800000000E+01 0.  1.
         -5    1    1    2    0  502 -0.47099488359E+01  0.62346928461E+02 -0.47530305691E+02  0.78650654579E+02  0.41800000000E+01 0.  1.
        -11    1    3    3    0    0 -0.28851071452E+02 -0.24687242890E+02 -0.11178317366E+02  0.39582812742E+02  0.00000000000E+00 0.  1.
         11    1    3    3    0    0  0.38304820943E+02 -0.11805216084E+02 -0.10658576361E+03  0.11387338336E+03  0.00000000000E+00 0. -1.
</event>
<event>
 7    1  0.6988825E-006  0.9208053E+02  0.7561462E-02  0.1297890E+00
          3   -1    0    0  501    0  0.00000000000E+00  0.00000000000E+00  0.47585403000E+02  0.47585403000E+02  0.00000000000E+00 0. -1.
         -3   -1    0    0    0  501 -0.00000000000E+00 -0.00000000000E+00 -0.42382692465E+03  0.42382692465E+03  0.00000000000E+00 0.  1.
         23    2    1    2    0    0  0.34202235726E+01 -0.60028207731E+02 -0.31096849030E+03  0.32928292504E+03  0.90059753006E+02 0.  0.
          5    1    1    2  502    0  0.10105374037E+02 -0.61124213259E+01  0.25803298403E+02  0.28683843664E+02  0.41800000000E+01 0. -1.
         -5    1    1    2    0  502 -0.13525597610E+02  0.66140629057E+02 -0.91076329747E+02  0.11344555894E+03  0.41800000000E+01 0.  1.
        -11    1    3    3    0    0  0.22295876873E+02  0.14840141565E+02 -0.45334278413E+02  0.52654845233E+02  0.00000000000E+00 0.  1.
         11    1    3    3    0    0 -0.18875653300E+02 -0.74868349297E+02 -0.26563421189E+03  0.27662807981E+03  0.00000000000E+00 0. -1.
</event>
<event>
 7    1  0.6988825E-006  0.6461700E+02  0.7561462E-02  0.1379418E+00
         -1   -1    0    0    0  501 -0.00000000000E+00  0.00000000000E+00  0.19681965136E+02  0.19681965136E+02  0.00000000000E+00 0.  1.
          1   -1    0    0  501    0  0.00000000000E+00 -0.00000000000E+00 -0.98159192724E+03  0.98159192724E+03  0.00000000000E+00 0. -1.
         23    2    1    2    0    0 -0.14282358943E+02  0.23580958618E+02 -0.14033152178E+03  0.16977068234E+03  0.91482791770E+02 0.  0.
          5    1    1    2  502    0 -0.32111308624E+01  0.35359270525E+01 -0.77304508339E+03  0.77307114000E+03  0.41800000000E+01 0. -1.
         -5    1    1    2    0  502  0.17493489806E+02 -0.27116885670E+02 -0.48533356933E+02  0.58432070040E+02  0.41800000000E+01 0. -1.
        -11    1    3    3    0    0 -0.50438270102E+02  0.19018140235E+02 -0.55136681957E+02  0.77108770228E+02  0.00000000000E+00 0.  1.
         11    1    3    3    0    0  0.36155911159E+02  0.45628183825E+01 -0.85194839824E+02  0.92661912110E+02  0.00000000000E+00 0. -1.
</event>
<event>
 7    1  0.6988825E-006  0.1076726E+03  0.7561462E-02  0.1264942E+00
          1   -1    0    0  501    0  0.00000000000E+00  0.00000000000E+00  0.97387108815E+03  0.97387108815E+03  0.00000000000E+00 0. -1.
         -1   -1    0    0    0  501 -0.00000000000E+00 -0.00000000000E+00 -0.29125008444E+02  0.29125008444E+02  0.00000000000E+00 0.  1.
         23    2    1    2    0    0 -0.15189581896E+01 -0.40252765041E+02  0.80271745431E+02  0.12858992340E+03  0.92028381258E+02 0.  0.
          5    1    1    2  502    0  0.38805769232E+02 -0.21171952230E+02  0.55046911762E+03  0.55225706074E+03  0.41800000000E+01 0.  1.
         -5    1    1    2    0  502 -0.37286811042E+02  0.61424717271E+02  0.31400521666E+03  0.32214911246E+03  0.41800000000E+01 0.  1.
        -11    1    3    3    0    0  0.18481402477E+02  0.24787415963E+02  0.35785675971E+02  0.47292629789E+02  0.00000000000E+00 0.  1.
         11    1    3    3    0    0 -0.20000360667E+02 -0.65040181004E+02  0.44486069460E+02  0.81297293607E+02  0.00000000000E+00 0. -1.
</event>
<event>
 7    1  0.6988825E-006  0.1592845E+03  0.7561462E-02  0.1189507E+00
          1   -1    0    0  501    0  0.00000000000E+00  0.00000000000E+00  0.93974724607E+03  0.93974724607E+03  0.00000000000E+00 0. -1.
         -1   -1    0    0    0  501 -0.00000000000E+00 -0.00000000000E+00 -0.36187032309E+02  0.36187032309E+02  0.00000000000E+00 0.  1.
         23    2    1    2    0    0 -0.47630088723E+02 -0.13414759997E+03  0.33113454347E+03  0.37295639936E+03  0.95823723676E+02 0.  0.
          5    1    1    2  502    0 -0.53289202920E+01  0.45050003673E+01 -0.44917039528E+01  0.92919440479E+01  0.41800000000E+01 0. -1.
         -5    1    1    2    0  502  0.52959009015E+02  0.12964259961E+03  0.57691737425E+03  0.59368593497E+03  0.41800000000E+01 0. -1.
        -11    1    3    3    0    0  0.28415971829E+02 -0.44171131730E+02  0.12397928322E+03  0.13464553093E+03  0.00000000000E+00 0. -1.
         11    1    3    3    0    0 -0.76046060552E+02 -0.89976468245E+02  0.20715526025E+03  0.23831086843E+03  0.00000000000E+00 0.  1.
</event>
<event>
 7    1  0.6988825E-006  0.1194015E+03  0.7561462E-02  0.1244088E+00
         -1   -1    0    0    0  501 -0.00000000000E+00  0.00000000000E+00  0.51835133237E+03  0.51835133237E+03  0.00000000000E+00 0.  1.
          1   -1    0    0  501    0  0.00000000000E+00 -0.00000000000E+00 -0.27898162887E+02  0.27898162887E+02  0.00000000000E+00 0. -1.
         23    2    1    2    0    0 -0.47931238327E+02  0.18053916217E+02  0.23915995665E+03  0.26091041780E+03  0.90848300755E+02 0.  0.
          5    1    1    2  502    0  0.71948288074E+01  0.52665750043E+02  0.10533235244E+03  0.11805856030E+03  0.41800000000E+01 0.  1.
         -5    1    1    2    0  502  0.40736409520E+02 -0.70719666259E+02  0.14596086039E+03  0.16728051716E+03  0.41800000000E+01 0.  1.
        -11    1    3    3    0    0 -0.38924851483E+02 -0.33544814475E+02  0.10533547593E+03  0.11720051677E+03  0.00000000000E+00 0.  1.
         11    1    3    3    0    0 -0.90063868439E+01  0.51598730692E+02  0.13382448072E+03  0.14370990103E+03  0.00000000000E+00 0. -1.
</event>
<event>
 7    1  0.6988825E-006  0.1031995E+03  0.7561462E-02  0.1273708E+00
         -1   -1    0    0    0  501 -0.00000000000E+00  0.00000000000E+00  0.39369735503E+02  0.39369735503E+02  0.00000000000E+00 0.  1.
          1   -1    0    0  501    0  0.00000000000E+00 -0.00000000000E+00 -0.31090898483E+03  0.31090898483E+03  0.00000000000E+00 0. -1.
         23    2    1    2    0    0  0.16402412613E+02  0.51069391650E+01 -0.76500379174E+02  0.11793689191E+03  0.88100411421E+02 0.  0.
          5    1    1    2  502    0  0.13252547782E+02 -0.56071727016E+02 -0.14050248528E+03  0.15191474373E+03  0.41800000000E+01 0.  1.
         -5    1    1    2    0  502 -0.29654960395E+02  0.50964787851E+02 -0.54536384873E+02  0.80427084690E+02  0.41800000000E+01 0.  1.
        -11    1    3    3    0    0 -0.35324342290E+02  0.12060509731E+02 -0.27672122557E+02  0.46465163510E+02  0.00000000000E+00 0.  1.
         11    1    3    3    0    0  0.51726754903E+02 -0.69535705663E+01 -0.48828256617E+02  0.71471728401E+02  0.00000000000E+00 0. -1.
</event>
<event>
 7    1  0.6988825E-006  0.1549136E+03  0.7561462E-02  0.1194562E+00
         -2   -1    0    0    0  501 -0.00000000000E+00  0.00000000000E+00  0.17940937857E+02  0.17940937857E+02  0.00000000000E+00 0.  1.
          2   -1    0    0  501    0  0.00000000000E+00 -0.00000000000E+00 -0.14247810951E+04  0.14247810951E+04  0.00000000000E+00 0. -1.
         23    2    1    2    0    0 -0.35639163074E+02  0.10984919557E+03 -0.69776086902E+03  0.71349125093E+03  0.94141059673E+02 0.  0.
          5    1    1    2  502    0 -0.43182275190E+02 -0.19767654099E+02 -0.26654502168E+03  0.27077516507E+03  0.41800000000E+01 0.  1.
         -5    1    1    2    0  502  0.78821438264E+02 -0.90081541470E+02 -0.44253426653E+03  0.45845561694E+03  0.41800000000E+01 0.  1.
        -11    1    3    3    0    0 -0.24402636785E+02 -0.66888464051E+01 -0.60719375210E+02  0.65780482471E+02  0.00000000000E+00 0.  1.
         11    1    3    3    0    0 -0.11236526288E+02  0.11653804197E+03 -0.63704149381E+03  0.64771076846E+03  0.00000000000E+00 0. -1.
</event>
<event>
 7    1  0.6988825E-006  0.1795197E+03  0.7561462E-02  0.1168269E+00
         -1   -1    0    0    0  501 -0.00000000000E+00  0.00000000000E+00  0.71030288892E+02  0.71030288892E+02  0.00000000000E+00 0.  1.
          1   -1    0    0  501    0  0.00000000000E+00 -0.00000000000E+00 -0.46062066585E+03  0.46062066585E+03  0.00000000000E+00 0. -1.
         23    2    1    2    0    0 -0.10813825061E+03 -0.94734638494E+02 -0.19490940723E+03  0.25921743307E+03  0.92387594413E+02 0.  0.
          5    1    1    2  502    0  0.92309979325E+02  0.12398733558E+03 -0.14170371126E+03  0.20974128314E+03  0.41800000000E+01 0. -1.
         -5    1    1    2    0  502  0.15828271288E+02 -0.29252697083E+02 -0.52977258461E+02  0.62692238536E+02  0.41800000000E+01 0. -1.
        -11    1    3    3    0    0 -0.66735058667E+02 -0.10839022705E+03 -0.14410906789E+03  0.19227436860E+03  0.00000000000E+00 0.  1.
         11    1    3    3    0    0 -0.41403191946E+02  0.13655588553E+02 -0.50800339347E+02  0.66943064464E+02  0.00000000000E+00 0. -1.
</event>
<event>
 7    1  0.6988825E-006  0.7363339E+02  0.7561462E-02  0.1348156E+00
          2   -1    0    0  501    0  0.00000000000E+00  0.00000000000E+00  0.30143546665E+04  0.30143546665E+04  0.00000000000E+00 0. -1.
         -2   -1    0    0    0  501 -0.00000000000E+00 -0.00000000000E+00 -0.11597080252E+02  0.11597080252E+02  0.00000000000E+00 0.  1.
         23    2    1    2    0    0  0.41225792655E+02  0.26068028646E+02  0.25293887757E+03  0.27285755418E+03  0.89966999456E+02 0.  0.
          5    1    1    2  502    0 -0.41291339740E+01 -0.27956039571E+02  0.25270358247E+04  0.25271972858E+04  0.41800000000E+01 0. -1.
         -5    1    1    2    0  502 -0.37096658681E+02  0.18880109251E+01  0.22278288398E+03  0.22589690671E+03  0.41800000000E+01 0. -1.
        -11    1    3    3    0    0  0.26282029983E+02 -0.19912099715E+02  0.29486147006E+02  0.44234259125E+02  0.00000000000E+00 0.  1.
         11    1    3    3    0    0  0.14943762671E+02  0.45980128361E+02  0.22345273056E+03  0.22862329506E+03  0.00000000000E+00 0. -1.
</event>
<event>
 6    1  0.8627390E-006  0.8883358E+02  0.7561462E-02  0.1305701E+00
          2   -1    0    0  501    0  0.00000000000E+00  0.00000000000E+00  0.71728079789E+03  0.71728079789E+03  0.00000000000E+00 0. -1.
         -2   -1    0    0    0  501 -0.00000000000E+00 -0.00000000000E+00 -0.19695380654E+02  0.19695380654E+02  0.00000000000E+00 0.  1.
          5    1    1    2  502    0  0.69725167711E+02 -0.15566073037E+02  0.16996549224E+03  0.18441703445E+03  0.41800000000E+01 0. -1.
         -5    1    1    2    0  502 -0.12466504895E+02  0.40472301596E+02  0.40820677183E+03  0.41041888591E+03  0.41800000000E+01 0. -1.
        -11    1    1    2    0    0 -0.36242127044E+02 -0.21828509862E+02  0.34442888938E+02  0.54555368332E+02  0.00000000000E+00 0.  1.
         11    1    1    2    0    0 -0.21016535773E+02 -0.30777186966E+01  0.84970264220E+02  0.87584889849E+02  0.00000000000E+00 0. -1.
</event>
<event>
 7    1  0.6988825E-006  0.1243641E+03  0.7561462E-02  0.1236066E+00
         -4   -1    0    0    0  501 -0.00000000000E+00  0.00000000000E+00  0.80344117614E+02  0.80344117614E+02  0.00000000000E+00 0.  1.
          4   -1    0    0  501    0  0.00000000000E+00 -0.00000000000E+00 -0.28117087187E+03  0.28117087187E+03  0.00000000000E+00 0. -1.
         23    2    1    2    0    0  0.10368929593E+03  0.14943259465E+02 -0.92861324599E+02  0.16586544233E+03  0.88957002317E+02 0.  0.
          5    1    1    2  502    0 -0.52788336195E+02 -0.35229874291E+02 -0.12317781162E+03  0.13862899465E+03  0.41800000000E+01 0.  1.
         -5    1    1    2    0  502 -0.50900959730E+02  0.20286614826E+02  0.15212381967E+02  0.57020552502E+02  0.41800000000E+01 0.  1.
        -11    1    3    3    0    0  0.48002074665E+02 -0.31705841461E+02 -0.68033360469E+02  0.89095441475E+02  0.00000000000E+00 0. -1.
         11    1    3    3    0    0  0.55687221261E+02  0.46649100926E+02 -0.24827964130E+02  0.76770000859E+02  0.00000000000E+00 0.  1.
</event>
<event>
 7    1  0.6988825E-006  0.7922805E+02  0.7561462E-02  0.1331256E+00
         -2   -1    0    0    0  501 -0.00000000000E+00  0.00000000000E+00  0.40818978507E+02  0.40818978507E+02  0.00000000000E+00 0.  1.
          2   -1    0    0  501    0  0.00000000000E+00 -0.00000000000E+00 -0.37494291260E+03  0.37494291260E+03  0.00000000000E+00 0. -1.
         23    2    1    2    0    0 -0.33372409917E+02 -0.20407568627E+02 -0.70306425902E+02  0.12118193916E+03  0.90619436410E+02 0.  0.
          5    1    1    2  502    0  0.27829934660E+02 -0.34596907735E+02 -0.28745624717E+02  0.53058784648E+02  0.41800000000E+01 0. -1.
         -5    1    1    2    0  502  0.55424752567E+01  0.55004476362E+02 -0.23507188348E+03  0.24152116730E+03  0.41800000000E+01 0. -1.
        -11    1    3    3    0    0 -0.43304388019E+02 -0.10869418066E+02  0.47253478011E+01  0.44897028662E+02  0.00000000000E+00 0.  1.
         11    1    3    3    0    0  0.99319781023E+01 -0.95381505611E+01 -0.75031773703E+02  0.76284910501E+02  0.00000000000E+00 0. -1.
</event>
<event>
 7    1  0.6988825E-006  0.1404061E+03  0.7561462E-02  0.1212784E+00
          1   -1    0    0  501    0  0.00000000000E+00  0.00000000000E+00  0.81886800405E+02  0.81886800405E+02  0.00000000000E+00 0. -1.
         -1   -1    0    0    0  501 -0.00000000000E+00 -0.00000000000E+00 -0.31514223425E+03  0.31514223425E+03  0.00000000000E+00 0.  1.
         23    2    1    2    0    0  0.57187882905E+02 -0.84537240826E+02 -0.18154422454E+03  0.22750287476E+03  0.91554647743E+02 0.  0.
          5    1    1    2  502    0 -0.51005523530E+02  0.10784308019E+03 -0.82570271149E+01  0.11965510550E+03  0.41800000000E+01 0. -1.
         -5    1    1    2    0  502 -0.61823593750E+01 -0.23305839369E+02 -0.43454182187E+02  0.49871054387E+02  0.41800000000E+01 0. -1.
        -11    1    3    3    0    0  0.58020845390E+02 -0.10314524240E+03 -0.16024243933E+03  0.19920592082E+03  0.00000000000E+00 0.  1.
         11    1    3    3    0    0 -0.83296248525E+00  0.18608001572E+02 -0.21301785217E+02  0.28296953942E+02  0.00000000000E+00 0. -1.
</event>
<event>
 7    1  0.6988825E-006  0.1881382E+03  0.7561462E-02  0.1160151E+00
          2   -1    0    0  501    0  0.00000000000E+00  0.00000000000E+00  0.80295872919E+03  0.80295872919E+03  0.00000000000E+00 0. -1.
         -2   -1    0    0    0  501 -0.00000000000E+00 -0.00000000000E+00 -0.62056678893E+02  0.62056678893E+02  0.00000000000E+00 0.  1.
         23    2    1    2    0    0  0.58508931213E+02 -0.17015487622E+03  0.21367709448E+03  0.29405865614E+03  0.91851051236E+02 0.  0.
          5    1    1    2  502    0 -0.45101089729E+02  0.12457457446E+03  0.19786685307E+03  0.23816317272E+03  0.41800000000E+01 0. -1.
         -5    1    1    2    0  502 -0.13407841484E+02  0.45580301762E+02  0.32935810275E+03  0.33279357921E+03  0.41800000000E+01 0. -1.
        -11    1    3    3    0    0 -0.11219753435E+02 -0.86044981239E+02  0.13062875107E+03  0.15682312415E+03  0.00000000000E+00 0. -1.
         11    1    3    3    0    0  0.69728684648E+02 -0.84109894985E+02  0.83048343408E+02  0.13723553199E+03  0.00000000000E+00 0.  1.
</event>
<event>
 7    1  0.6988825E-006  0.1069979E+03  0.7561462E-02  0.1266232E+00
          1   -1    0    0  501    0  0.00000000000E+00  0.00000000000E+00  0.54274326157E+02  0.54274326157E+02  0.00000000000E+00 0. -1.
         -1   -1    0    0    0  501 -0.00000000000E+00 -0.00000000000E+00 -0.25316782407E+03  0.25316782407E+03  0.00000000000E+00 0.  1.
         23    2    1    2    0    0 -0.17294465980E+02 -0.16811311626E+01 -0.14108217727E+03  0.16855012806E+03  0.90570636352E+02 0.  0.
          5    1    1    2  502    0 -0.52756537333E+02 -0.13130842833E+02 -0.26712172649E+02  0.60718068419E+02  0.41800000000E+01 0. -1.
         -5    1    1    2    0  502  0.70051003313E+02  0.14811973996E+02 -0.31099147991E+02  0.78173953748E+02  0.41800000000E+01 0. -1.
        -11    1    3    3    0    0  0.30638660373E+02  0.18442979140E+02 -0.33204318457E+02  0.48799567142E+02  0.00000000000E+00 0.  1.
         11    1    3    3    0    0 -0.47933126353E+02 -0.20124110302E+02 -0.10787785881E+03  0.11975056091E+03  0.00000000000E+00 0. -1.
</event>
<event>
 7    1  0.6988825E-006  0.2005725E+03  0.7561462E-02  0.1149257E+00
         -1   -1    0    0    0  501 -0.00000000000E+00  0.00000000000E+00  0.27634334620E+02  0.27634334620E+02  0.00000000000E+00 0.  1.
          1   -1    0    0  501    0  0.00000000000E+00 -0.00000000000E+00 -0.16726227615E+04  0.16726227615E+04  0.00000000000E+00 0. -1.
         23    2    1    2    0    0 -0.11237364696E+03  0.37655485179E+02 -0.39695206827E+03  0.42369873403E+03  0.88903884188E+02 0.  0.
          5    1    1    2  502    0 -0.62292888594E+02 -0.65922300737E+02 -0.46293542372E+03  0.47175505577E+03  0.41800000000E+01 0. -1.
         -5    1    1    2    0  502  0.17466653555E+03  0.28266815557E+02 -0.78510093493E+03  0.80480330636E+03  0.41800000000E+01 0.  1.
        -11    1    3    3    0    0 -0.54023638339E+02 -0.13586707098E+02 -0.26326180368E+03  0.26909093145E+03  0.00000000000E+00 0.  1.
         11    1    3    3    0    0 -0.58350008617E+02  0.51242192277E+02 -0.13369026458E+03  0.15460780258E+03  0.00000000000E+00 0. -1.
</event>
<event>
 7    1  0.6988825E-006  0.1101543E+03  0.7561462E-02  0.1260284E+00
          2   -1    0    0  501    0  0.00000000000E+00  0.00000000000E+00  0.27792733561E+03  0.27792733561E+03  0.00000000000E+00 0. -1.
         -2   -1    0    0    0  501 -0.00000000000E+00 -0.00000000000E+00 -0.76119492999E+02  0.76119492999E+02  0.00000000000E+00 0.  1.
         23    2    1    2    0    0 -0.61274290015E+02 -0.36379938842E+02  0.16511035703E+02  0.11939677158E+03  0.94365969484E+02 0.  0.
          5    1    1    2  502    0  0.73746160699E+02  0.11559795252E+02  0.36449732510E+02  0.83175600294E+02  0.41800000000E+01 0.  1.
         -5    1    1    2    0  502 -0.12471870685E+02  0.24820143590E+02  0.14884707440E+03  0.15147445673E+03  0.41800000000E+01 0.  1.
        -11    1    3    3    0    0 -0.69291070544E+02  0.10334388463E+02  0.16609265252E+02  0.71999442597E+02  0.00000000000E+00 0.  1.
         11    1    3    3    0    0  0.80167805294E+01 -0.46714327305E+02 -0.98229549345E-01  0.47397328983E+02  0.00000000000E+00 0. -1.
</event>
<event>
 7    1  0.6988825E-006  0.2348478E+03  0.7561462E-02  0.1123273E+00
          2   -1    0    0  501    0  0.00000000000E+00  0.00000000000E+00  0.15127657506E+04  0.15127657506E+04  0.00000000000E+00 0. -1.
         -2   -1    0    0    0  501 -0.00000000000E+00 -0.00000000000E+00 -0.39537425905E+02  0.39537425905E+02  0.00000000000E+00 0.  1.
         23    2    1    2    0    0  0.95660137145E+02 -0.19307272945E+03  0.59189271486E+03  0.63642728478E+03  0.90965720008E+02 0.  0.
          5    1    1    2  502    0  0.18049551539E+02  0.91102727279E+01  0.23928964351E+02  0.31604605912E+02  0.41800000000E+01 0. -1.
         -5    1    1    2    0  502 -0.11370968868E+03  0.18396245672E+03  0.85740664545E+03  0.88427128577E+03  0.41800000000E+01 0. -1.
        -11    1    3    3    0    0  0.85200390179E+02 -0.72952070660E+02  0.25392443126E+03  0.27759453866E+03  0.00000000000E+00 0.  1.
         11    1    3    3    0    0  0.10459746966E+02 -0.12012065879E+03  0.33796828360E+03  0.35883274613E+03  0.00000000000E+00 0. -1.
</event>
<event>
 7    1  0.6988825E-006  0.9918098E+02  0.7561462E-02  0.1282028E+00
          2   -1    0    0  501    0  0.00000000000E+00  0.00000000000E+00  0.16045614435E+03  0.16045614435E+03  0.00000000000E+00 0. -1.
         -2   -1    0    0    0  501 -0.00000000000E+00 -0.00000000000E+00 -0.10301720487E+03  0.10301720487E+03  0.00000000000E+00 0.  1.
         23    2    1    2    0    0 -0.41652042640E+02  0.37790396841E+02 -0.17123714805E+02  0.10736474863E+03  0.89838526761E+02 0.  0.
          5    1    1    2  502    0 -0.30297103023E+02 -0.22042454513E+01  0.69038284847E+02  0.75541580102E+02  0.41800000000E+01 0. -1.
         -5    1    1    2    0  502  0.71949145663E+02 -0.35586151389E+02  0.55243694354E+01  0.80567020486E+02  0.41800000000E+01 0. -1.
        -11    1    3    3    0    0  0.40463890946E+01 -0.16136159838E+02  0.21208580337E+02  0.26954643365E+02  0.00000000000E+00 0.  1.
         11    1    3    3    0    0 -0.45698431735E+02  0.53926556678E+02 -0.38332295142E+02  0.80410105267E+02  0.00000000000E+00 0. -1.
</event>
<event>
 7    1  0.6988825E-006  0.1251140E+03  0.7561462E-02  0.1234891E+00
          2   -1    0    0  501    0  0.00000000000E+00  0.00000000000E+00  0.57619425944E+03  0.57619425944E+03  0.00000000000E+00 0. -1.
         -2   -1    0    0    0  501 -0.00000000000E+00 -0.00000000000E+00 -0.59320091549E+02  0.59320091549E+02  0.00000000000E+00 0.  1.
         23    2    1    2    0    0  0.11204771942E+03  0.17568692563E+02  0.77389144650E+02  0.16470871061E+03  0.90975432158E+02 0.  0.
          5    1    1    2  502    0 -0.86833565420E+02 -0.36729132881E+02  0.42566476163E+03  0.43600121443E+03  0.41800000000E+01 0. -1.
         -5    1    1    2    0  502 -0.25214153996E+02  0.19160440318E+02  0.13820261606E+02  0.34804425951E+02  0.41800000000E+01 0. -1.
        -11    1    3    3    0    0  0.20295868890E+02 -0.16378229591E+02 -0.15052371852E+02  0.30112166925E+02  0.00000000000E+00 0.  1.
         11    1    3    3    0    0  0.91751850526E+02  0.33946922154E+02  0.92441516502E+02  0.13459654368E+03  0.00000000000E+00 0. -1.
</event>
<event>
 7    1  0.6988825E-006  0.1241172E+03  0.7561462E-02  0.1236455E+00
         -2   -1    0    0    0  501 -0.00000000000E+00  0.00000000000E+00  0.60723411127E+02  0.60723411127E+02  0.00000000000E+00 0.  1.
          2   -1    0    0  501    0  0.00000000000E+00 -0.00000000000E+00 -0.25487159826E+03  0.25487159826E+03  0.00000000000E+00 0. -1.
         23    2    1    2    0    0  0.98386246575E+01  0.60004100045E+02 -0.94587450093E+02  0.14454637227E+03  0.90827184609E+02 0.  0.
          5    1    1    2  502    0 -0.24319342861E+02 -0.96431838814E+02 -0.74556253513E+02  0.12436493602E+03  0.41800000000E+01 0.  1.
         -5    1    1    2    0  502  0.14480718203E+02  0.36427738769E+02 -0.25004483530E+02  0.46683701097E+02  0.41800000000E+01 0.  1.
        -11    1    3    3    0    0  0.41353162206E+02  0.65323439239E+02 -0.68422350852E+02  0.10324172526E+03  0.00000000000E+00 0. -1.
         11    1    3    3    0    0 -0.31514537549E+02 -0.53193391941E+01 -0.26165099241E+02  0.41304647010E+02  0.00000000000E+00 0.  1.
</event>
<event>
 7    1  0.6988825E-006  0.1430767E+03  0.7561462E-02  0.1209248E+00
         -1   -1    0    0    0  501 -0.00000000000E+00  0.00000000000E+00  0.76405441570E+03  0.76405441570E+03  0.00000000000E+00 0.  1.
          1   -1    0    0  501    0  0.00000000000E+00 -0.00000000000E+00 -0.73506831202E+02  0.73506831202E+02  0.00000000000E+00 0. -1.
         23    2    1    2    0    0  0.86937155338E+01  0.10971214898E+03  0.65162428616E+03  0.66646231763E+03  0.86287161155E+02 0.  0.
          5    1    1    2  502    0  0.18172467857E+02  0.11906641771E+02  0.40857358388E+02  0.46462918986E+02  0.41800000000E+01 0.  1.
         -5    1    1    2    0  502 -0.26866183391E+02 -0.12161879075E+03 -0.19340600502E+01  0.12463601029E+03  0.41800000000E+01 0.  1.
        -11    1    3    3    0    0  0.43533682080E+01 -0.14490234551E+02  0.88858913055E+02  0.90137811940E+02  0.00000000000E+00 0.  1.
         11    1    3    3    0    0  0.43403473258E+01  0.12420238353E+03  0.56276537311E+03  0.57632450569E+03  0.00000000000E+00 0. -1.
</event>
<event>
 7    1  0.6988825E-006  0.1010768E+03  0.7561462E-02  0.1278048E+00
         -1   -1    0    0    0  501 -0.00000000000E+00  0.00000000000E+00  0.76396412543E+02  0.76396412543E+02  0.00000000000E+00 0.  1.
          1   -1    0    0  501    0  0.00000000000E+00 -0.00000000000E+00 -0.25348433115E+03  0.25348433115E+03  0.00000000000E+00 0. -1.
         23    2    1    2    0    0 -0.99628324494E+01 -0.77283909745E+02 -0.34651694681E+02  0.12492293210E+03  0.91284929118E+02 0.  0.
          5    1    1    2  502    0  0.43796135343E+02  0.45631402718E+02 -0.14512207926E+03  0.15836103269E+03  0.41800000000E+01 0.  1.
         -5    1    1    2    0  502 -0.33833302894E+02  0.31652507027E+02  0.26858553321E+01  0.46596778909E+02  0.41800000000E+01 0.  1.
        -11    1    3    3    0    0  0.15311861456E+02 -0.59257396313E+02  0.18004087588E+02  0.63796859553E+02  0.00000000000E+00 0.  1.
         11    1    3    3    0    0 -0.25274693905E+02 -0.18026513432E+02 -0.52655782269E+02  0.61126072546E+02  0.00000000000E+00 0. -1.
</event>
<event>
 7    1  0.6988825E-006  0.1072558E+03  0.7561462E-02  0.1265738E+00
         -1   -1    0    0    0  501 -0.00000000000E+00  0.00000000000E+00  0.44157841715E+02  0.44157841715E+02  0.00000000000E+00 0.  1.
          1   -1    0    0  501    0  0.00000000000E+00 -0.00000000000E+00 -0.60643886746E+03  0.60643886746E+03  0.00000000000E+00 0. -1.
         23    2    1    2    0    0  0.16294720095E+02  0.62564159334E+02 -0.56476106573E+02  0.12555746835E+03  0.91626062390E+02 0.  0.
          5    1    1    2  502    0  0.31721252082E+02 -0.12130228956E+02 -0.34470544094E+02  0.48570269696E+02  0.41800000000E+01 0.  1.
         -5    1    1    2    0  502 -0.48015972177E+02 -0.50433930379E+02 -0.47133437508E+03  0.47646897113E+03  0.41800000000E+01 0.  1.
        -11    1    3    3    0    0 -0.34917402339E+02  0.43746355070E+02 -0.18002971281E+02  0.58796900793E+02  0.00000000000E+00 0. -1.
         11    1    3    3    0    0  0.51212122434E+02  0.18817804264E+02 -0.38473135292E+02  0.66760567558E+02  0.00000000000E+00 0.  1.
</event>
<event>
 7    1  0.6988825E-006  0.1336780E+03  0.7561462E-02  0.1222098E+00
          2   -1    0    0  501    0  0.00000000000E+00  0.00000000000E+00  0.15965342796E+04  0.15965342796E+04  0.00000000000E+00 0. -1.
         -2   -1    0    0    0  501 -0.00000000000E+00 -0.00000000000E+00 -0.15076157404E+02  0.15076157404E+02  0.00000000000E+00 0.  1.
         23    2    1    2    0    0 -0.53045960651E+02  0.28735651243E+02  0.37063805811E+03  0.39285195358E+03  0.11541436533E+03 0.  0.
          5    1    1    2  502    0  0.17069406944E+02  0.49533813747E+02  0.43914735014E+03  0.44228139333E+03  0.41800000000E+01 0. -1.
         -5    1    1    2    0  502  0.35976553707E+02 -0.78269464990E+02  0.77167271397E+03  0.77647709010E+03  0.41800000000E+01 0. -1.
        -11    1    3    3    0    0 -0.52509891143E+02 -0.36096203293E+02  0.15233463489E+03  0.16512439417E+03  0.00000000000E+00 0.  1.
         11    1    3    3    0    0 -0.53606950769E+00  0.64831854537E+02  0.21830342321E+03  0.22772755942E+03  0.00000000000E+00 0. -1.
</event>
<event>
 7    1  0.6988825E-006  0.1115929E+03  0.7561462E-02  0.1257648E+00
         -2   -1    0    0    0  501 -0.00000000000E+00  0.00000000000E+00  0.13442677500E+02  0.13442677500E+02  0.00000000000E+00 0.  1.
          2   -1    0    0  501    0  0.00000000000E+00 -0.00000000000E+00 -0.12858758076E+04  0.12858758076E+04  0.00000000000E+00 0. -1.
         23    2    1    2    0    0  0.44121499156E+02 -0.10264952219E+02 -0.35882894559E+03  0.37608031235E+03  0.10308304034E+03 0.  0.
          5    1    1    2  502    0 -0.29493733623E+01  0.57505888002E+02 -0.63616685509E+03  0.63878115648E+03  0.41800000000E+01 0.  1.
         -5    1    1    2    0  502 -0.41172125794E+02 -0.47240935782E+02 -0.27743732946E+03  0.28445701632E+03  0.41800000000E+01 0.  1.
        -11    1    3    3    0    0 -0.20883787575E+01  0.36701632568E+02 -0.21175412250E+03  0.21492133341E+03  0.00000000000E+00 0. -1.
         11    1    3    3    0    0  0.46209877914E+02 -0.46966584787E+02 -0.14707482310E+03  0.16115897894E+03  0.00000000000E+00 0.  1.
</event>
<event>
 7    1  0.6988825E-006  0.1722406E+03  0.7561462E-02  0.1175531E+00
          2   -1    0    0  501    0  0.00000000000E+00  0.00000000000E+00  0.74274475668E+03  0.74274475668E+03  0.00000000000E+00 0. -1.
         -2   -1    0    0    0  501 -0.00000000000E+00 -0.00000000000E+00 -0.50470001071E+02  0.50470001071E+02  0.00000000000E+00 0.  1.
         23    2    1    2    0    0 -0.44052482115E+02  0.12126969610E+03  0.18638921190E+03  0.25636067845E+03  0.11972008507E+03 0.  0.
          5    1    1    2  502    0  0.32676542805E+01 -0.13120634268E+03  0.43477137319E+03  0.45416891271E+03  0.41800000000E+01 0.  1.
         -5    1    1    2    0  502  0.40784827835E+02  0.99366465834E+01  0.71114170520E+02  0.82685166600E+02  0.41800000000E+01 0.  1.
        -11    1    3    3    0    0  0.36140620914E+02  0.60072164363E+02  0.47415102450E+02  0.84634516313E+02  0.00000000000E+00 0.  1.
         11    1    3    3    0    0 -0.80193103029E+02  0.61197531733E+02  0.13897410945E+03  0.17172616213E+03  0.00000000000E+00 0. -1.
</event>
<event>
 7    1  0.6988825E-006  0.1732426E+03  0.7561462E-02  0.1174508E+00
          2   -1    0    0  501    0  0.00000000000E+00  0.00000000000E+00  0.16906089757E+03  0.16906089757E+03  0.00000000000E+00 0. -1.
         -2   -1    0    0    0  501 -0.00000000000E+00 -0.00000000000E+00 -0.27470600788E+03  0.27470600788E+03  0.00000000000E+00 0.  1.
         23    2    1    2    0    0  0.11007644970E+02 -0.16906069581E+03 -0.12657409465E+03  0.23213390502E+03  0.95720746477E+02 0.  0.
          5    1    1    2  502    0  0.89691601531E+01  0.70687764489E+02  0.69866827228E+02  0.99880187371E+02  0.41800000000E+01 0. -1.
         -5    1    1    2    0  502 -0.19976805123E+02  0.98372931325E+02 -0.48937842885E+02  0.11175281306E+03  0.41800000000E+01 0. -1.
        -11    1    3    3    0    0 -0.13381512591E+02 -0.10897465050E+03 -0.26598741281E+02  0.11296916556E+03  0.00000000000E+00 0. -1.
         11    1    3    3    0    0  0.24389157561E+02 -0.60086045318E+02 -0.99975353373E+02  0.11916473946E+03  0.00000000000E+00 0.  1.
</event>
<event>
 7    1  0.6988825E-006  0.1111936E+03  0.7561462E-02  0.1258375E+00
          2   -1    0    0  501    0  0.00000000000E+00  0.00000000000E+00  0.49354280692E+03  0.49354280692E+03  0.00000000000E+00 0.  1.
         -2   -1    0    0    0  501 -0.00000000000E+00 -0.00000000000E+00 -0.29107695441E+02  0.29107695441E+02  0.00000000000E+00 0. -1.
         23    2    1    2    0    0  0.67525481454E+01 -0.49132912733E+02  0.22381454440E+03  0.24696131045E+03  0.91854768804E+02 0.  0.
          5    1    1    2  502    0  0.36787603333E+02  0.62171047524E+02  0.76334516945E+02  0.10518078620E+03  0.41800000000E+01 0.  1.
         -5    1    1    2    0  502 -0.43540151478E+02 -0.13038134791E+02  0.16428605014E+03  0.17050840571E+03  0.41800000000E+01 0.  1.
        -11    1    3    3    0    0 -0.36187933147E+02  0.36150325313E+01  0.76956513396E+02  0.85117212828E+02  0.00000000000E+00 0.  1.
         11    1    3    3    0    0  0.42940481292E+02 -0.52747945265E+02  0.14685803100E+03  0.16184409762E+03  0.00000000000E+00 0. -1.
</event>
<event>
 7    1  0.1125936E-005  0.3587633E+03  0.7561462E-02  0.1059075E+00
         -1   -1    0    0    0  501 -0.00000000000E+00  0.00000000000E+00  0.81362555085E+03  0.81362555085E+03  0.00000000000E+00 0.  1.
          1   -1    0    0  501    0  0.00000000000E+00 -0.00000000000E+00 -0.17693804614E+03  0.17693804614E+03  0.00000000000E+00 0. -1.
         23    2    1    2    0    0  0.51116740037E+02 -0.34685715030E+03  0.43336078924E+03  0.56640372829E+03  0.10044304830E+03 0.  0.
          5    1    1    2  502    0  0.19004085449E+02  0.70068793506E+02  0.92928427621E+02  0.11799981418E+03  0.41800000000E+01 0. -1.
         -5    1    1    2    0  502 -0.70120825486E+02  0.27678835679E+03  0.11039828784E+03  0.30616005451E+03  0.41800000000E+01 0. -1.
        -11    1    3    3    0    0  0.70153367971E+02 -0.21860351936E+03  0.22818743761E+03  0.32369507318E+03  0.00000000000E+00 0.  1.
         11    1    3    3    0    0 -0.19036627933E+02 -0.12825363094E+03  0.20517335163E+03  0.24270865512E+03  0.00000000000E+00 0. -1.
</event>
<event>
 7    1  0.6988825E-006  0.1245071E+03  0.7561462E-02  0.1235842E+00
          1   -1    0    0  501    0  0.00000000000E+00  0.00000000000E+00  0.88388279609E+03  0.88388279609E+03  0.00000000000E+00 0. -1.
         -1   -1    0    0    0  501 -0.00000000000E+00 -0.00000000000E+00 -0.21865588082E+02  0.21865588082E+02  0.00000000000E+00 0.  1.
         23    2    1    2    0    0  0.64492694891E+02  0.31282987959E+02  0.22331001342E+03  0.25097048685E+03  0.89335827886E+02 0.  0.
          5    1    1    2  502    0 -0.12155995394E+02 -0.71038322064E+02  0.42714062629E+03  0.43319833616E+03  0.41800000000E+01 0. -1.
         -5    1    1    2    0  502 -0.52336699497E+02  0.39755334106E+02  0.21156656829E+03  0.22157956116E+03  0.41800000000E+01 0. -1.
        -11    1    3    3    0    0  0.63431715693E+02  0.56968438069E+02  0.19445693756E+03  0.21232636684E+03  0.00000000000E+00 0. -1.
         11    1    3    3    0    0  0.10609791986E+01 -0.25685450110E+02  0.28853075863E+02  0.38644120005E+02  0.00000000000E+00 0.  1.
</event>
<event>
 7    1  0.6988825E-006  0.9686054E+02  0.7561462E-02  0.1287040E+00
          2   -1    0    0  501    0  0.00000000000E+00  0.00000000000E+00  0.73442007832E+03  0.73442007832E+03  0.00000000000E+00 0. -1.
         -2   -1    0    0    0  501 -0.00000000000E+00 -0.00000000000E+00 -0.36928159748E+02  0.36928159748E+02  0.00000000000E+00 0.  1.
         23    2    1    2    0    0  0.32805559318E+02  0.24144731605E+02  0.71853844169E+02  0.13202812369E+03  0.10300134823E+03 0.  0.
          5    1    1    2  502    0 -0.27309582061E+02 -0.55307121060E+02  0.14508264606E+03  0.15770585753E+03  0.41800000000E+01 0. -1.
         -5    1    1    2    0  502 -0.54959772573E+01  0.31162389455E+02  0.48055542835E+03  0.48161425685E+03  0.41800000000E+01 0. -1.
        -11    1    3    3    0    0 -0.29808722619E+02  0.22493361661E+02  0.86023956489E+00  0.37353062459E+02  0.00000000000E+00 0.  1.
         11    1    3    3    0    0  0.62614281937E+02  0.16513699442E+01  0.70993604604E+02  0.94675061235E+02  0.00000000000E+00 0. -1.
</event>
<event>
 7    1  0.6988825E-006  0.7339067E+02  0.7561462E-02  0.1348928E+00
          1   -1    0    0  501    0  0.00000000000E+00  0.00000000000E+00  0.12535424100E+04  0.12535424100E+04  0.00000000000E+00 0. -1.
         -1   -1    0    0    0  501 -0.00000000000E+00 -0.00000000000E+00 -0.18803526865E+02  0.18803526865E+02  0.00000000000E+00 0.  1.
         23    2    1    2    0    0  0.41932289345E+01 -0.15752656198E+02  0.12638508505E+03  0.15683126701E+03  0.91417324637E+02 0.  0.
          5    1    1    2  502    0 -0.17830464399E+02  0.39040226290E+02  0.13377841075E+03  0.14055675122E+03  0.41800000000E+01 0.  1.
         -5    1    1    2    0  502  0.13637235465E+02 -0.23287570092E+02  0.97457538734E+03  0.97495791864E+03  0.41800000000E+01 0.  1.
        -11    1    3    3    0    0 -0.35240169469E+02 -0.85866785141E+01  0.16467109681E+02  0.39834235192E+02  0.00000000000E+00 0.  1.
         11    1    3    3    0    0  0.39433398404E+02 -0.71659776841E+01  0.10991797537E+03  0.11699703182E+03  0.00000000000E+00 0. -1.
</event>
<event>
 7    1  0.6988825E-006  0.1589954E+03  0.7561462E-02  0.1189836E+00
          3   -1    0    0  501    0  0.00000000000E+00  0.00000000000E+00  0.16621900631E+03  0.16621900631E+03  0.00000000000E+00 0. -1.
         -3   -1    0    0    0  501 -0.00000000000E+00 -0.00000000000E+00 -0.17582410367E+03  0.17582410367E+03  0.00000000000E+00 0.  1.
         23    2    1    2    0    0  0.90545812532E+02  0.76813988184E+02 -0.61063281991E+02  0.16205855722E+03  0.91843990617E+02 0.  0.
          5    1    1    2  502    0 -0.12151129450E+03 -0.51353936280E+02  0.35886736107E+02  0.13677555225E+03  0.41800000000E+01 0. -1.
         -5    1    1    2    0  502  0.30965481973E+02 -0.25460051904E+02  0.15571448515E+02  0.43209000517E+02  0.41800000000E+01 0. -1.
        -11    1    3    3    0    0  0.50372051555E+02 -0.87957830382E+01 -0.32895516164E+01  0.51239930981E+02  0.00000000000E+00 0. -1.
         11    1    3    3    0    0  0.40173760976E+02  0.85609771222E+02 -0.57773730375E+02  0.11081862624E+03  0.00000000000E+00 0.  1.
</event>
<event>
 7    1  0.6988825E-006  0.1383332E+03  0.7561462E-02  0.1215590E+00
         -1   -1    0    0    0  501 -0.00000000000E+00  0.00000000000E+00  0.73550732016E+02  0.73550732016E+02  0.00000000000E+00 0.  1.
          1   -1    0    0  501    0  0.00000000000E+00 -0.00000000000E+00 -0.42133048379E+03  0.42133048379E+03  0.00000000000E+00 0. -1.
         23    2    1    2    0    0  0.12885605331E+03 -0.50386350441E+01 -0.84893920970E+02  0.17647008085E+03  0.85471874312E+02 0.  0.
          5    1    1    2  502    0 -0.16792981915E+02  0.25291169434E+02 -0.16609324843E+03  0.16889667571E+03  0.41800000000E+01 0. -1.
         -5    1    1    2    0  502 -0.11206307140E+03 -0.20252534390E+02 -0.96792582376E+02  0.14951445925E+03  0.41800000000E+01 0. -1.
        -11    1    3    3    0    0  0.11794885660E+03 -0.12855252520E+02 -0.10078208833E+03  0.15567343903E+03  0.00000000000E+00 0. -1.
         11    1    3    3    0    0  0.10907196713E+02  0.78166174757E+01  0.15888167361E+02  0.20796641820E+02  0.00000000000E+00 0.  1.
</event>
<event>
 7    1  0.6988825E-006  0.2164708E+03  0.7561462E-02  0.1136542E+00
          2   -1    0    0  501    0  0.00000000000E+00  0.00000000000E+00  0.39203340393E+03  0.39203340393E+03  0.00000000000E+00 0. -1.
         -2   -1    0    0    0  501 -0.00000000000E+00 -0.00000000000E+00 -0.15920530090E+03  0.15920530090E+03  0.00000000000E+00 0.  1.
         23    2    1    2    0    0 -0.13280670473E+03 -0.15789536401E+03  0.14833772123E+02  0.22606549762E+03  0.91197596565E+02 0.  0.
          5    1    1    2  502    0  0.91442109039E+02  0.46861126920E+02  0.16697043908E+03  0.19609748710E+03  0.41800000000E+01 0.  1.
         -5    1    1    2    0  502  0.41364595696E+02  0.11103423709E+03  0.51023891832E+02  0.12907572011E+03  0.41800000000E+01 0.  1.
        -11    1    3    3    0    0 -0.32545789599E+02 -0.12356100552E+02  0.33547800647E+02  0.48346215671E+02  0.00000000000E+00 0. -1.
         11    1    3    3    0    0 -0.10026091514E+03 -0.14553926346E+03 -0.18714028524E+02  0.17771928195E+03  0.00000000000E+00 0.  1.
</event>
<event>
 7    1  0.6988825E-006  0.2210906E+03  0.7561462E-02  0.1133073E+00
         -2   -1    0    0    0  501 -0.00000000000E+00  0.00000000000E+00  0.97224275547E+02  0.97224275547E+02  0.00000000000E+00 0.  1.
          2   -1    0    0  501    0  0.00000000000E+00 -0.00000000000E+00 -0.54592429112E+03  0.54592429112E+03  0.00000000000E+00 0. -1.
         23    2    1    2    0    0 -0.92188178558E+01  0.19582522970E+03 -0.14407923752E+03  0.25990742229E+03  0.91435957307E+02 0.  0.
          5    1    1    2  502    0  0.62218165556E+02 -0.59373472710E+02 -0.11159223004E+03  0.14094895385E+03  0.41800000000E+01 0.  1.
         -5    1    1    2    0  502 -0.52999347700E+02 -0.13645175699E+03 -0.19302854801E+03  0.24229219052E+03  0.41800000000E+01 0.  1.
        -11    1    3    3    0    0 -0.16388716694E+02  0.29810449881E+01 -0.33701323628E+02  0.37593295657E+02  0.00000000000E+00 0. -1.
         11    1    3    3    0    0  0.71698988381E+01  0.19284418471E+03 -0.11037791389E+03  0.22231412663E+03  0.00000000000E+00 0.  1.
</event>
<event>
 7    1  0.6988825E-006  0.2034363E+03  0.7561462E-02  0.1146872E+00
         -1   -1    0    0    0  501 -0.00000000000E+00  0.00000000000E+00  0.78673390962E+02  0.78673390962E+02  0.00000000000E+00 0.  1.
          1   -1    0    0  501    0  0.00000000000E+00 -0.00000000000E+00 -0.18366406298E+04  0.18366406298E+04  0.00000000000E+00 0. -1.
         23    2    1    2    0    0 -0.53964753556E+02 -0.19335427764E+03 -0.10290712036E+03  0.24343788244E+03  0.91509867672E+02 0.  0.
          5    1    1    2  502    0  0.33973649405E+02  0.14607850417E+03 -0.15190717656E+04  0.15264631144E+04  0.41800000000E+01 0.  1.
         -5    1    1    2    0  502  0.19991104150E+02  0.47275773465E+02 -0.13598835290E+03  0.14541302392E+03  0.41800000000E+01 0.  1.
        -11    1    3    3    0    0  0.68510778214E+01 -0.35893446501E+02 -0.58369012907E+02  0.68863767228E+02  0.00000000000E+00 0. -1.
         11    1    3    3    0    0 -0.60815831377E+02 -0.15746083114E+03 -0.44538107452E+02  0.17457411522E+03  0.00000000000E+00 0.  1.
</event>
<event>
 7    1  0.6988825E-006  0.1205595E+03  0.7561462E-02  0.1242177E+00
         -3   -1    0    0    0  501 -0.00000000000E+00  0.00000000000E+00  0.43309608548E+03  0.43309608548E+03  0.00000000000E+00 0.  1.
          3   -1    0    0  501    0  0.00000000000E+00 -0.00000000000E+00 -0.40538826953E+02  0.40538826953E+02  0.00000000000E+00 0. -1.
         23    2    1    2    0    0  0.71620634472E+02  0.29630080889E+02  0.24182183397E+03  0.27052228551E+03  0.93257978718E+02 0.  0.
          5    1    1    2  502    0  0.18147882009E+02  0.13596197507E+02  0.83606873313E+00  0.23073222986E+02  0.41800000000E+01 0. -1.
         -5    1    1    2    0  502 -0.89768516481E+02 -0.43226278396E+02  0.14989935582E+03  0.18003940394E+03  0.41800000000E+01 0.  1.
        -11    1    3    3    0    0 -0.82030066109E+01 -0.21860896993E+02  0.75014881661E+02  0.78564754218E+02  0.00000000000E+00 0.  1.
         11    1    3    3    0    0  0.79823641083E+02  0.51490977882E+02  0.16680695231E+03  0.19195753129E+03  0.00000000000E+00 0. -1.
</event>
<event>
 7    1  0.6988825E-006  0.9032571E+02  0.7561462E-02  0.1302065E+00
          2   -1    0    0  501    0  0.00000000000E+00  0.00000000000E+00  0.10973690573E+03  0.10973690573E+03  0.00000000000E+00 0. -1.
         -2   -1    0    0    0  501 -0.00000000000E+00 -0.00000000000E+00 -0.14575544673E+03  0.14575544673E+03  0.00000000000E+00 0.  1.
         23    2    1    2    0    0 -0.41662300371E+01 -0.47704068747E+02 -0.62182221351E+02  0.11901806363E+03  0.89474215113E+02 0.  0.
          5    1    1    2  502    0 -0.14596177438E+02 -0.38147495635E+02 -0.84752472325E+01  0.41923526029E+02  0.41800000000E+01 0.  1.
         -5    1    1    2    0  502  0.18762407475E+02  0.85851564382E+02  0.34638927586E+02  0.94550762797E+02  0.41800000000E+01 0.  1.
        -11    1    3    3    0    0 -0.11556933054E+02 -0.21741494664E+02 -0.81944164924E+02  0.85563435280E+02  0.00000000000E+00 0.  1.
         11    1    3    3    0    0  0.73907030171E+01 -0.25962574083E+02  0.19761943573E+02  0.33454628348E+02  0.00000000000E+00 0. -1.
</event>
<event>
 7    1  0.6988825E-006  0.1593913E+03  0.7561462E-02  0.1189386E+00
         -2   -1    0    0    0  501 -0.00000000000E+00  0.00000000000E+00  0.11674071803E+03  0.11674071803E+03  0.00000000000E+00 0.  1.
          2   -1    0    0  501    0  0.00000000000E+00 -0.00000000000E+00 -0.22372924891E+03  0.22372924891E+03  0.00000000000E+00 0. -1.
         23    2    1    2    0    0 -0.17113417861E+02 -0.11667993937E+03 -0.28838649091E+02  0.15160533661E+03  0.90804367109E+02 0.  0.
          5    1    1    2  502    0  0.54903188650E+02  0.88173184234E+01 -0.38731529896E+02  0.67894838067E+02  0.41800000000E+01 0. -1.
         -5    1    1    2    0  502 -0.37789770789E+02  0.10786262094E+03 -0.39418351892E+02  0.12096979226E+03  0.41800000000E+01 0. -1.
        -11    1    3    3    0    0  0.36239330379E+02 -0.30855975447E+02 -0.57165169388E+01  0.47938073105E+02  0.00000000000E+00 0. -1.
         11    1    3    3    0    0 -0.53352748240E+02 -0.85823963918E+02 -0.23122132153E+02  0.10366726351E+03  0.00000000000E+00 0.  1.
</event>
<event>
 7    1  0.6988825E-006  0.1243328E+03  0.7561462E-02  0.1236116E+00
          1   -1    0    0  501    0  0.00000000000E+00  0.00000000000E+00  0.77733956087E+02  0.77733956087E+02  0.00000000000E+00 0. -1.
         -1   -1    0    0    0  501 -0.00000000000E+00 -0.00000000000E+00 -0.32342232018E+03  0.32342232018E+03  0.00000000000E+00 0.  1.
         23    2    1    2    0    0 -0.13888296195E+02 -0.30055293216E+02 -0.14585436803E+03  0.17712221597E+03  0.94881912362E+02 0.  0.
          5    1    1    2  502    0  0.96775120801E+02  0.55431325905E+02 -0.72337963486E+02  0.13299740320E+03  0.41800000000E+01 0. -1.
         -5    1    1    2    0  502 -0.82886824607E+02 -0.25376032689E+02 -0.27496032580E+02  0.91036657100E+02  0.41800000000E+01 0.  1.
        -11    1    3    3    0    0 -0.27083744512E+02 -0.19384112444E+02 -0.15451909499E+03  0.15806778213E+03  0.00000000000E+00 0.  1.
         11    1    3    3    0    0  0.13195448317E+02 -0.10671180772E+02  0.86647269600E+01  0.19054433832E+02  0.00000000000E+00 0. -1.
</event>
<event>
 7    1  0.6988825E-006  0.1403763E+03  0.7561462E-02  0.1212824E+00
          4   -1    0    0  501    0  0.00000000000E+00  0.00000000000E+00  0.23872135209E+03  0.23872135209E+03  0.00000000000E+00 0. -1.
         -4   -1    0    0    0  501 -0.00000000000E+00 -0.00000000000E+00 -0.12031972052E+03  0.12031972052E+03  0.00000000000E+00 0.  1.
         23    2    1    2    0    0 -0.11129551810E+03  0.25058868644E+02 -0.75888432108E+01  0.14800705670E+03  0.93988611243E+02 0.  0.
          5    1    1    2  502    0  0.46709471854E+02 -0.45226207268E+02  0.12754965010E+03  0.14322559207E+03  0.41800000000E+01 0.  1.
         -5    1    1    2    0  502  0.64586046247E+02  0.20167338624E+02 -0.15591753122E+01  0.67808423847E+02  0.41800000000E+01 0.  1.
        -11    1    3    3    0    0 -0.10784191708E+03 -0.13869202007E+02 -0.53074042623E+01  0.10885955348E+03  0.00000000000E+00 0. -1.
         11    1    3    3    0    0 -0.34536010242E+01  0.38928070651E+02 -0.22814389485E+01  0.39147503220E+02  0.00000000000E+00 0.  1.
</event>
<event>
 7    1  0.6988825E-006  0.8403809E+02  0.7561462E-02  0.1317967E+00
         -2   -1    0    0    0  501 -0.00000000000E+00  0.00000000000E+00  0.27942772362E+02  0.27942772362E+02  0.00000000000E+00 0.  1.
          2   -1    0    0  501    0  0.00000000000E+00 -0.00000000000E+00 -0.71719272518E+03  0.71719272518E+03  0.00000000000E+00 0. -1.
         23    2    1    2    0    0  0.68674758971E+02  0.17900629487E+02 -0.16711866132E+03  0.20355987613E+03  0.92039780289E+02 0.  0.
          5    1    1    2  502    0 -0.64733666955E+01 -0.31356590466E+02 -0.26259924200E+02  0.41619661952E+02  0.41800000000E+01 0.  1.
         -5    1    1    2    0  502 -0.62201392275E+02  0.13455960979E+02 -0.49587136730E+03  0.49995595946E+03  0.41800000000E+01 0.  1.
        -11    1    3    3    0    0  0.49300019105E+02  0.70455073623E+01 -0.17345707524E+03  0.18046464476E+03  0.00000000000E+00 0. -1.
         11    1    3    3    0    0  0.19374739866E+02  0.10855122125E+02  0.63384139215E+01  0.23095231375E+02  0.00000000000E+00 0.  1.
</event>
<event>
 7    1  0.6988825E-006  0.1127455E+03  0.7561462E-02  0.1255568E+00
          1   -1    0    0  501    0  0.00000000000E+00  0.00000000000E+00  0.45067169550E+03  0.45067169550E+03  0.00000000000E+00 0. -1.
         -1   -1    0    0    0  501 -0.00000000000E+00 -0.00000000000E+00 -0.60667446723E+02  0.60667446723E+02  0.00000000000E+00 0.  1.
         23    2    1    2    0    0 -0.83629601297E+02  0.50203630437E+02  0.65111173168E+02  0.14979082802E+03  0.93185366687E+02 0.  0.
          5    1    1    2  502    0  0.62338598240E+01 -0.42320279112E+01  0.23188000958E+03  0.23204004462E+03  0.41800000000E+01 0.  1.
         -5    1    1    2    0  502  0.77395741473E+02 -0.45971602526E+02  0.93013066038E+02  0.12950826958E+03  0.41800000000E+01 0.  1.
        -11    1    3    3    0    0 -0.85898797710E+02  0.99867522201E+01  0.18956484820E+02  0.88530712099E+02  0.00000000000E+00 0.  1.
         11    1    3    3    0    0  0.22691964133E+01  0.40216878217E+02  0.46154688348E+02  0.61260115919E+02  0.00000000000E+00 0. -1.
</event>
<event>
 7    1  0.6988825E-006  0.1179918E+03  0.7561462E-02  0.1246447E+00
         -2   -1    0    0    0  501 -0.00000000000E+00  0.00000000000E+00  0.82188698725E+02  0.82188698725E+02  0.00000000000E+00 0.  1.
          2   -1    0    0  501    0  0.00000000000E+00 -0.00000000000E+00 -0.24958066924E+03  0.24958066924E+03  0.00000000000E+00 0. -1.
         23    2    1    2    0    0  0.93607972265E+02 -0.83860028373E+01 -0.65074302894E+02  0.14630668267E+03  0.91313761177E+02 0.  0.
          5    1    1    2  502    0 -0.30495536399E+02  0.43087867103E+02 -0.10014757005E+03  0.11328526038E+03  0.41800000000E+01 0. -1.
         -5    1    1    2    0  502 -0.63112435866E+02 -0.34701864265E+02 -0.21700975670E+01  0.72177424919E+02  0.41800000000E+01 0.  1.
        -11    1    3    3    0    0  0.59884775180E+01 -0.21474781424E+02  0.15015658200E+02  0.26879324608E+02  0.00000000000E+00 0.  1.
         11    1    3    3    0    0  0.87619494747E+02  0.13088778586E+02 -0.80089961094E+02  0.11942735806E+03  0.00000000000E+00 0. -1.
</event>
<event>
 7    1  0.7662871E-006  0.2606192E+03  0.7561462E-02  0.1106772E+00
         -2   -1    0    0    0  501 -0.00000000000E+00  0.00000000000E+00  0.31749712809E+02  0.31749712809E+02  0.00000000000E+00 0.  1.
          2   -1    0    0  501    0  0.00000000000E+00 -0.00000000000E+00 -0.22296566732E+04  0.22296566732E+04  0.00000000000E+00 0. -1.
         23    2    1    2    0    0 -0.15667862436E+03 -0.18301519773E+03 -0.95455885529E+03  0.98876933404E+03  0.91866390981E+02 0.  0.
          5    1    1    2  502    0  0.58926648535E+02  0.16028106634E+03 -0.80578251722E+03  0.82369005554E+03  0.41800000000E+01 0. -1.
         -5    1    1    2    0  502  0.97751975824E+02  0.22734131391E+02 -0.43756558787E+03  0.44894699642E+03  0.41800000000E+01 0. -1.
        -11    1    3    3    0    0 -0.14411124978E+03 -0.12550079059E+03 -0.61049316143E+03  0.63970336947E+03  0.00000000000E+00 0.  1.
         11    1    3    3    0    0 -0.12567374578E+02 -0.57514407139E+02 -0.34406569385E+03  0.34906596457E+03  0.00000000000E+00 0. -1.
</event>
<event>
 7    1  0.6988825E-006  0.7556174E+02  0.7561462E-02  0.1342140E+00
         -1   -1    0    0    0  501 -0.00000000000E+00  0.00000000000E+00  0.12985642863E+03  0.12985642863E+03  0.00000000000E+00 0.  1.
          1   -1    0    0  501    0  0.00000000000E+00 -0.00000000000E+00 -0.11809806043E+03  0.11809806043E+03  0.00000000000E+00 0. -1.
         23    2    1    2    0    0  0.49972939271E+02  0.24700583467E+02  0.28101952646E+02  0.11003436987E+03  0.90611419414E+02 0.  0.
          5    1    1    2  502    0 -0.42386412087E+02 -0.48455175520E+01 -0.68859331618E+02  0.81112063966E+02  0.41800000000E+01 0. -1.
         -5    1    1    2    0  502 -0.75865271840E+01 -0.19855065915E+02  0.52515747170E+02  0.56808055222E+02  0.41800000000E+01 0. -1.
        -11    1    3    3    0    0  0.40872720325E+02 -0.16738937950E+02  0.46193665012E+02  0.63911078834E+02  0.00000000000E+00 0.  1.
         11    1    3    3    0    0  0.91002189461E+01  0.41439521417E+02 -0.18091712366E+02  0.46123291041E+02  0.00000000000E+00 0. -1.
</event>
<event>
 7    1  0.6988825E-006  0.1733987E+03  0.7561462E-02  0.1174349E+00
         -1   -1    0    0    0  501 -0.00000000000E+00  0.00000000000E+00  0.21012080367E+03  0.21012080367E+03  0.00000000000E+00 0.  1.
          1   -1    0    0  501    0  0.00000000000E+00 -0.00000000000E+00 -0.16728635894E+03  0.16728635894E+03  0.00000000000E+00 0. -1.
         23    2    1    2    0    0 -0.28196758462E+02 -0.14711974271E+03 -0.98420823540E+01  0.17526531861E+03  0.90453244495E+02 0.  0.
          5    1    1    2  502    0 -0.37085186502E+02  0.11761760408E+03  0.33552357313E+02  0.12787667860E+03  0.41800000000E+01 0. -1.
         -5    1    1    2    0  502  0.65281944963E+02  0.29502138626E+02  0.19124169776E+02  0.74265165396E+02  0.41800000000E+01 0. -1.
        -11    1    3    3    0    0 -0.19886263870E+02 -0.13748876686E+03 -0.38292536412E+02  0.14410046096E+03  0.00000000000E+00 0. -1.
         11    1    3    3    0    0 -0.83104945918E+01 -0.96309758448E+01  0.28450454058E+02  0.31164857648E+02  0.00000000000E+00 0.  1.
</event>
<event>
 7    1  0.6988825E-006  0.1198909E+03  0.7561462E-02  0.1243277E+00
         -1   -1    0    0    0  501 -0.00000000000E+00  0.00000000000E+00  0.53923000699E+02  0.53923000699E+02  0.00000000000E+00 0.  1.
          1   -1    0    0  501    0  0.00000000000E+00 -0.00000000000E+00 -0.44887372551E+03  0.44887372551E+03  0.00000000000E+00 0. -1.
         23    2    1    2    0    0 -0.10600500611E+03  0.43356564357E+02 -0.11237032660E+03  0.17322827096E+03  0.65300004344E+02 0.  0.
          5    1    1    2  502    0  0.69305161939E+02 -0.32458105065E+02 -0.28073902130E+03  0.29101306592E+03  0.41800000000E+01 0.  1.
         -5    1    1    2    0  502  0.36699844171E+02 -0.10898459291E+02 -0.18413769115E+01  0.38555389325E+02  0.41800000000E+01 0.  1.
        -11    1    3    3    0    0 -0.62097494841E+02 -0.11488785269E+01 -0.27769194249E+02  0.68033425143E+02  0.00000000000E+00 0.  1.
         11    1    3    3    0    0 -0.43907511269E+02  0.44505442883E+02 -0.84601132349E+02  0.10519484582E+03  0.00000000000E+00 0. -1.
</event>
<event>
 7    1  0.6988825E-006  0.1085050E+03  0.7561462E-02  0.1263364E+00
         -2   -1    0    0    0  501 -0.00000000000E+00  0.00000000000E+00  0.56137236859E+02  0.56137236859E+02  0.00000000000E+00 0.  1.
          2   -1    0    0  501    0  0.00000000000E+00 -0.00000000000E+00 -0.23017971271E+03  0.23017971271E+03  0.00000000000E+00 0. -1.
         23    2    1    2    0    0 -0.33709346001E+01  0.32098193078E+02 -0.85632146680E+02  0.12977526908E+03  0.92016839333E+02 0.  0.
          5    1    1    2  502    0  0.54038424155E+02 -0.42846104847E+02 -0.22605882865E+02  0.72694142307E+02  0.41800000000E+01 0. -1.
         -5    1    1    2    0  502 -0.50667489555E+02  0.10747911769E+02 -0.65804446301E+02  0.83847538176E+02  0.41800000000E+01 0. -1.
        -11    1    3    3    0    0  0.43470333035E+02  0.13008637480E+02 -0.52095506663E+02  0.69085717176E+02  0.00000000000E+00 0.  1.
         11    1    3    3    0    0 -0.46841267635E+02  0.19089555598E+02 -0.33536640018E+02  0.60689551904E+02  0.00000000000E+00 0. -1.
</event>
<event>
 7    1  0.6988825E-006  0.1672441E+03  0.7561462E-02  0.1180753E+00
         -1   -1    0    0    0  501 -0.00000000000E+00  0.00000000000E+00  0.27210978730E+03  0.27210978730E+03  0.00000000000E+00 0.  1.
          1   -1    0    0  501    0  0.00000000000E+00 -0.00000000000E+00 -0.10849131446E+03  0.10849131446E+03  0.00000000000E+00 0. -1.
         23    2    1    2    0    0 -0.12755084019E+03  0.35989603314E+02  0.80047665188E+02  0.18011120426E+03  0.92021458480E+02 0.  0.
          5    1    1    2  502    0  0.62009126883E+02 -0.75171183050E+02  0.75983292433E+02  0.12363968500E+03  0.41800000000E+01 0.  1.
         -5    1    1    2    0  502  0.65541713302E+02  0.39181579736E+02  0.75875152150E+01  0.76850212493E+02  0.41800000000E+01 0.  1.
        -11    1    3    3    0    0  0.10034979862E+02 -0.11186711050E+02  0.13338620130E+02  0.20093832684E+02  0.00000000000E+00 0.  1.
         11    1    3    3    0    0 -0.13758582005E+03  0.47176314364E+02  0.66709045058E+02  0.16001737158E+03  0.00000000000E+00 0. -1.
</event>
<event>
 7    1  0.6988825E-006  0.8807389E+02  0.7561462E-02  0.1307584E+00
          2   -1    0    0  501    0  0.00000000000E+00  0.00000000000E+00  0.42035317772E+02  0.42035317772E+02  0.00000000000E+00 0. -1.
         -2   -1    0    0    0  501 -0.00000000000E+00 -0.00000000000E+00 -0.43117335255E+03  0.43117335255E+03  0.00000000000E+00 0.  1.
         23    2    1    2    0    0 -0.81900087961E+02  0.46892775868E+01 -0.18337719505E+03  0.21881767903E+03  0.86743110719E+02 0.  0.
          5    1    1    2  502    0  0.32825694597E+02  0.92335473345E+01  0.74243017508E+01  0.35147934202E+02  0.41800000000E+01 0. -1.
         -5    1    1    2    0  502  0.49074393364E+02 -0.13922824921E+02 -0.21318514147E+03  0.21924305709E+03  0.41800000000E+01 0. -1.
        -11    1    3    3    0    0 -0.33102753252E+02  0.20950298979E+02 -0.15540795968E+03  0.16026958923E+03  0.00000000000E+00 0.  1.
         11    1    3    3    0    0 -0.48797334709E+02 -0.16261021393E+02 -0.27969235372E+02  0.58548089796E+02  0.00000000000E+00 0. -1.
</event>
<event>
 7    1  0.1359465E-005  0.8539197E+02  0.7561462E-02  0.1314411E+00
          2   -1    0    0  501    0  0.00000000000E+00  0.00000000000E+00  0.39381163034E+03  0.39381163034E+03  0.00000000000E+00 0. -1.
         -2   -1    0    0    0  501 -0.00000000000E+00 -0.00000000000E+00 -0.30431313609E+02  0.30431313609E+02  0.00000000000E+00 0.  1.
         23    2    1    2    0    0  0.65272854819E+00  0.35770028877E+02  0.14435255856E+03  0.16948764183E+03  0.81292549173E+02 0.  0.
          5    1    1    2  502    0  0.58980579218E+02 -0.76577828535E+01  0.71392712013E+02  0.93014741260E+02  0.41800000000E+01 0.  1.
         -5    1    1    2    0  502 -0.59633307767E+02 -0.28112246024E+02  0.14763504615E+03  0.16174056085E+03  0.41800000000E+01 0.  1.
        -11    1    3    3    0    0  0.12071594174E+02  0.65595049592E+01 -0.66492726430E+01  0.15263135913E+02  0.00000000000E+00 0.  1.
         11    1    3    3    0    0 -0.11418865626E+02  0.29210523918E+02  0.15100183120E+03  0.15422450592E+03  0.00000000000E+00 0. -1.
</event>
<event>
 7    1  0.6988825E-006  0.1156304E+03  0.7561462E-02  0.1250485E+00
          1   -1    0    0  501    0  0.00000000000E+00  0.00000000000E+00  0.25569771365E+03  0.25569771365E+03  0.00000000000E+00 0. -1.
         -1   -1    0    0    0  501 -0.00000000000E+00 -0.00000000000E+00 -0.61576578498E+02  0.61576578498E+02  0.00000000000E+00 0.  1.
         23    2    1    2    0    0  0.23500619090E+02 -0.38648094374E+02  0.27463668871E+02  0.10404085048E+03  0.89578407910E+02 0.  0.
          5    1    1    2  502    0  0.33940091311E+02 -0.28524420348E+02  0.56640259024E+02  0.72049730719E+02  0.41800000000E+01 0. -1.
         -5    1    1    2    0  502 -0.57440710401E+02  0.67172514722E+02  0.11001720726E+03  0.14118371095E+03  0.41800000000E+01 0. -1.
        -11    1    3    3    0    0 -0.93087665072E+01 -0.58939700134E+02  0.26915234068E+02  0.65459691496E+02  0.00000000000E+00 0.  1.
         11    1    3    3    0    0  0.32809385598E+02  0.20291605760E+02  0.54843480284E+00  0.38581158981E+02  0.00000000000E+00 0. -1.
</event>
<event>
 7    1  0.6988825E-006  0.2621795E+03  0.7561462E-02  0.1105841E+00
          1   -1    0    0  501    0  0.00000000000E+00  0.00000000000E+00  0.15499049962E+03  0.15499049962E+03  0.00000000000E+00 0. -1.
         -1   -1    0    0    0  501 -0.00000000000E+00 -0.00000000000E+00 -0.50111012835E+03  0.50111012835E+03  0.00000000000E+00 0.  1.
         23    2    1    2    0    0 -0.23602225453E+03  0.95334824576E+02 -0.20566551565E+03  0.33960595238E+03  0.90767092898E+02 0.  0.
          5    1    1    2  502    0  0.60498618146E+02 -0.51251490712E+02  0.11399162047E+02  0.80213536222E+02  0.41800000000E+01 0.  1.
         -5    1    1    2    0  502  0.17552363639E+03 -0.44083333864E+02 -0.15185327513E+03  0.23628113937E+03  0.41800000000E+01 0.  1.
        -11    1    3    3    0    0 -0.37807946071E+02  0.46246458365E+02 -0.79977045458E+02  0.99822359708E+02  0.00000000000E+00 0.  1.
         11    1    3    3    0    0 -0.19821430846E+03  0.49088366211E+02 -0.12568847020E+03  0.23978359268E+03  0.00000000000E+00 0. -1.
</event>
<event>
 7    1  0.6988825E-006  0.1000853E+03  0.7561462E-02  0.1280117E+00
         -1   -1    0    0    0  501 -0.00000000000E+00  0.00000000000E+00  0.97838912817E+02  0.97838912817E+02  0.00000000000E+00 0.  1.
          1   -1    0    0  501    0  0.00000000000E+00 -0.00000000000E+00 -0.42338023628E+03  0.42338023628E+03  0.00000000000E+00 0. -1.
         23    2    1    2    0    0  0.54327370606E+02 -0.93439007814E+01  0.59597779097E+02  0.11583472825E+03  0.82625766658E+02 0.  0.
          5    1    1    2  502    0 -0.74937475500E+02 -0.30463088077E+02 -0.23008575700E+03  0.24392735178E+03  0.41800000000E+01 0. -1.
         -5    1    1    2    0  502  0.20610104895E+02  0.39806988858E+02 -0.15505334555E+03  0.16145706907E+03  0.41800000000E+01 0. -1.
        -11    1    3    3    0    0 -0.45619276759E+01 -0.14340434209E+02 -0.14605852740E+02  0.20971174780E+02  0.00000000000E+00 0. -1.
         11    1    3    3    0    0  0.58889298282E+02  0.49965334272E+01  0.74203631836E+02  0.94863553466E+02  0.00000000000E+00 0.  1.
</event>
<event>
 7    1  0.6988825E-006  0.1168164E+03  0.7561462E-02  0.1248443E+00
          1   -1    0    0  501    0  0.00000000000E+00  0.00000000000E+00  0.91956829873E+02  0.91956829873E+02  0.00000000000E+00 0. -1.
         -1   -1    0    0    0  501 -0.00000000000E+00 -0.00000000000E+00 -0.24410773173E+03  0.24410773173E+03  0.00000000000E+00 0.  1.
         23    2    1    2    0    0 -0.24742827399E+02  0.99399379980E+02 -0.86621245450E+02  0.16161099703E+03  0.90124524681E+02 0.  0.
          5    1    1    2  502    0  0.38824361149E+02 -0.10062732157E+03 -0.67024522254E+00  0.10794030986E+03  0.41800000000E+01 0. -1.
         -5    1    1    2    0  502 -0.14081533749E+02  0.12279415888E+01 -0.64859411184E+02  0.66513254712E+02  0.41800000000E+01 0. -1.
        -11    1    3    3    0    0 -0.32032213404E+02  0.40647591091E+02 -0.88341071330E+02  0.10238375965E+03  0.00000000000E+00 0.  1.
         11    1    3    3    0    0  0.72893860042E+01  0.58751788889E+02  0.17198258803E+01  0.59227237374E+02  0.00000000000E+00 0. -1.
</event>
<event>
 7    1  0.6988825E-006  0.1252540E+03  0.7561462E-02  0.1234673E+00
         -2   -1    0    0    0  501 -0.00000000000E+00  0.00000000000E+00  0.16712082842E+02  0.16712082842E+02  0.00000000000E+00 0.  1.
          2   -1    0    0  501    0  0.00000000000E+00 -0.00000000000E+00 -0.25409759080E+04  0.25409759080E+04  0.00000000000E+00 0. -1.
         23    2    1    2    0    0 -0.54743298440E+02 -0.89418454355E+02 -0.33802870424E+03  0.36536844468E+03  0.90764567843E+02 0.  0.
          5    1    1    2  502    0  0.14158957447E+02  0.11460348066E+01 -0.26187044271E+02  0.30083602833E+02  0.41800000000E+01 0. -1.
         -5    1    1    2    0  502  0.40584340992E+02  0.88272419548E+02 -0.21600480767E+04  0.21622359433E+04  0.41800000000E+01 0. -1.
        -11    1    3    3    0    0  0.21818546409E+02 -0.44826336907E+02 -0.13172579292E+03  0.14084436080E+03  0.00000000000E+00 0. -1.
         11    1    3    3    0    0 -0.76561844849E+02 -0.44592117448E+02 -0.20630291131E+03  0.22452408388E+03  0.00000000000E+00 0.  1.
</event>
<event>
 7    1  0.6988825E-006  0.1246087E+03  0.7561462E-02  0.1235682E+00
         -2   -1    0    0    0  501 -0.00000000000E+00  0.00000000000E+00  0.26628913152E+03  0.26628913152E+03  0.00000000000E+00 0.  1.
          2   -1    0    0  501    0  0.00000000000E+00 -0.00000000000E+00 -0.13364808291E+03  0.13364808291E+03  0.00000000000E+00 0. -1.
         23    2    1    2    0    0  0.61305742189E+02 -0.86620988152E+02  0.18098451740E+03  0.22892350453E+03  0.91591406660E+02 0.  0.
          5    1    1    2  502    0 -0.45264901220E+02  0.10556397884E+03 -0.72691279967E+02  0.13599323326E+03  0.41800000000E+01 0. -1.
         -5    1    1    2    0  502 -0.16040840969E+02 -0.18942990683E+02  0.24347811179E+02  0.35020476642E+02  0.41800000000E+01 0. -1.
        -11    1    3    3    0    0  0.33690101716E+02 -0.67745380708E+02  0.18022771286E+03  0.19546480001E+03  0.00000000000E+00 0. -1.
         11    1    3    3    0    0  0.27615640473E+02 -0.18875607444E+02  0.75680454273E+00  0.33458704521E+02  0.00000000000E+00 0.  1.
</event>
<event>
 7    1  0.6988825E-006  0.1995572E+03  0.7561462E-02  0.1150113E+00
          3   -1    0    0  501    0  0.00000000000E+00  0.00000000000E+00  0.11829000430E+04  0.11829000430E+04  0.00000000000E+00 0. -1.
         -3   -1    0    0    0  501 -0.00000000000E+00 -0.00000000000E+00 -0.69160704491E+02  0.69160704491E+02  0.00000000000E+00 0.  1.
         23    2    1    2    0    0 -0.25960586070E+02  0.15173929205E+03  0.29033456123E+03  0.34050152627E+03  0.89153615559E+02 0.  0.
          5    1    1    2  502    0 -0.23118652203E+02 -0.18383509666E+03  0.15793322267E+03  0.24349577012E+03  0.41800000000E+01 0. -1.
         -5    1    1    2    0  502  0.49079238273E+02  0.32095804611E+02  0.66547155464E+03  0.66806345113E+03  0.41800000000E+01 0.  1.
        -11    1    3    3    0    0 -0.75099318657E+01  0.95707321481E+02  0.89744007223E+02  0.13141642703E+03  0.00000000000E+00 0.  1.
         11    1    3    3    0    0 -0.18450654204E+02  0.56031970569E+02  0.20059055401E+03  0.20908509924E+03  0.00000000000E+00 0. -1.
</event>
<event>
 7    1  0.6988825E-006  0.1313403E+03  0.7561462E-02  0.1225480E+00
         -1   -1    0    0    0  501 -0.00000000000E+00  0.00000000000E+00  0.21860503662E+03  0.21860503662E+03  0.00000000000E+00 0.  1.
          1   -1    0    0  501    0  0.00000000000E+00 -0.00000000000E+00 -0.87464792526E+02  0.87464792526E+02  0.00000000000E+00 0. -1.
         23    2    1    2    0    0  0.55350782847E+02 -0.63775018929E+02  0.74331017414E+02  0.14480531845E+03  0.91173010806E+02 0.  0.
          5    1    1    2  502    0 -0.39383392928E+02 -0.31677025792E+02  0.35981318653E+02  0.62182097854E+02  0.41800000000E+01 0.  1.
         -5    1    1    2    0  502 -0.15967389919E+02  0.95452044720E+02  0.20827908025E+02  0.99082412843E+02  0.41800000000E+01 0.  1.
        -11    1    3    3    0    0 -0.20230035409E+02 -0.13810357496E+02 -0.42644444684E+01  0.24862940161E+02  0.00000000000E+00 0. -1.
         11    1    3    3    0    0  0.75580818256E+02 -0.49964661433E+02  0.78595461882E+02  0.11994237829E+03  0.00000000000E+00 0.  1.
</event>
<event>
 7    1  0.6988825E-006  0.1294974E+03  0.7561462E-02  0.1228203E+00
          1   -1    0    0  501    0  0.00000000000E+00  0.00000000000E+00  0.44388814101E+03  0.44388814101E+03  0.00000000000E+00 0. -1.
         -1   -1    0    0    0  501 -0.00000000000E+00 -0.00000000000E+00 -0.12852318599E+03  0.12852318599E+03  0.00000000000E+00 0.  1.
         23    2    1    2    0    0  0.16274059538E+02  0.71949164856E+02 -0.79625923486E+02  0.14131394226E+03  0.90486547336E+02 0.  0.
          5    1    1    2  502    0 -0.71195378034E+02 -0.11365989821E+02  0.28481399574E+03  0.29382724881E+03  0.41800000000E+01 0.  1.
         -5    1    1    2    0  502  0.54921318496E+02 -0.60583175035E+02  0.11017688276E+03  0.13727013593E+03  0.41800000000E+01 0. -1.
        -11    1    3    3    0    0  0.40373857577E+02  0.69885925866E+02 -0.29996298694E+02  0.86103826542E+02  0.00000000000E+00 0.  1.
         11    1    3    3    0    0 -0.24099798039E+02  0.20632389901E+01 -0.49629624792E+02  0.55210115718E+02  0.00000000000E+00 0. -1.
</event>
<event>
 7    1  0.6988825E-006  0.6011236E+02  0.7561462E-02  0.1397361E+00
         -1   -1    0    0    0  501 -0.00000000000E+00  0.00000000000E+00  0.18664679110E+02  0.18664679110E+02  0.00000000000E+00 0.  1.
          1   -1    0    0  501    0  0.00000000000E+00 -0.00000000000E+00 -0.79122606455E+03  0.79122606455E+03  0.00000000000E+00 0. -1.
         23    2    1    2    0    0 -0.93155424441E+01  0.26778171775E+02 -0.13486525693E+03  0.16031522125E+03  0.81905328424E+02 0.  0.
          5    1    1    2  502    0  0.17702514712E+02 -0.18956545032E+02 -0.63679434224E+03  0.63733604663E+03  0.41800000000E+01 0. -1.
         -5    1    1    2    0  502 -0.83869722682E+01 -0.78216267423E+01 -0.90178626732E+00  0.12239475773E+02  0.41800000000E+01 0.  1.
        -11    1    3    3    0    0 -0.41333385929E+02  0.22158156352E+01 -0.41556229950E+02  0.58653890569E+02  0.00000000000E+00 0. -1.
         11    1    3    3    0    0  0.32017843485E+02  0.24562356139E+02 -0.93309026979E+02  0.10166133068E+03  0.00000000000E+00 0.  1.
</event>
<event>
 7    1  0.6988825E-006  0.1186070E+03  0.7561462E-02  0.1245413E+00
         -2   -1    0    0    0  501 -0.00000000000E+00  0.00000000000E+00  0.28898207872E+02  0.28898207872E+02  0.00000000000E+00 0.  1.
          2   -1    0    0  501    0  0.00000000000E+00 -0.00000000000E+00 -0.57278742870E+03  0.57278742870E+03  0.00000000000E+00 0. -1.
         23    2    1    2    0    0 -0.16032989975E+00 -0.45187423304E+02 -0.20250226506E+03  0.23530709840E+03  0.11099700119E+03 0.  0.
          5    1    1    2  502    0  0.51460157881E+02 -0.13500030599E+02 -0.11178456436E+03  0.12386952775E+03  0.41800000000E+01 0.  1.
         -5    1    1    2    0  502 -0.51299827982E+02  0.58687453904E+02 -0.22960239140E+03  0.24250901042E+03  0.41800000000E+01 0.  1.
        -11    1    3    3    0    0 -0.17723629628E+02 -0.71771028505E+02 -0.18438896511E+03  0.19865673417E+03  0.00000000000E+00 0. -1.
         11    1    3    3    0    0  0.17563299729E+02  0.26583605200E+02 -0.18113299958E+02  0.36650364229E+02  0.00000000000E+00 0.  1.
</event>
<event>
 7    1  0.6988825E-006  0.1725094E+03  0.7561462E-02  0.1175256E+00
          2   -1    0    0  501    0  0.00000000000E+00  0.00000000000E+00  0.19164407377E+03  0.19164407377E+03  0.00000000000E+00 0. -1.
         -2   -1    0    0    0  501 -0.00000000000E+00 -0.00000000000E+00 -0.20918546259E+03  0.20918546259E+03  0.00000000000E+00 0.  1.
         23    2    1    2    0    0 -0.16616276570E+03  0.34334719794E+02 -0.24080342207E+02  0.18993301478E+03  0.81888641071E+02 0.  0.
          5    1    1    2  502    0  0.77240035186E+02  0.41436529384E+01  0.61961444371E+02  0.99196198938E+02  0.41800000000E+01 0. -1.
         -5    1    1    2    0  502  0.88922730510E+02 -0.38478372733E+02 -0.55422490990E+02  0.11170032264E+03  0.41800000000E+01 0. -1.
        -11    1    3    3    0    0 -0.42245715151E+02  0.16617829021E+02 -0.43953284748E+02  0.63188162896E+02  0.00000000000E+00 0. -1.
         11    1    3    3    0    0 -0.12391705055E+03  0.17716890773E+02  0.19872942541E+02  0.12674485189E+03  0.00000000000E+00 0.  1.
</event>
<event>
 7    1  0.6988825E-006  0.1139221E+03  0.7561462E-02  0.1253474E+00
         -1   -1    0    0    0  501 -0.00000000000E+00  0.00000000000E+00  0.39061225986E+03  0.39061225986E+03  0.00000000000E+00 0.  1.
          1   -1    0    0  501    0  0.00000000000E+00 -0.00000000000E+00 -0.39385203437E+02  0.39385203437E+02  0.00000000000E+00 0. -1.
         23    2    1    2    0    0  0.25643750463E+02  0.17297683088E+02  0.17106242623E+03  0.19639673402E+03  0.91392076735E+02 0.  0.
          5    1    1    2  502    0 -0.74960378877E+02  0.10945290396E+02  0.48274148725E+02  0.89926212076E+02  0.41800000000E+01 0. -1.
         -5    1    1    2    0  502  0.49316628415E+02 -0.28242973483E+02  0.13189048147E+03  0.14367451720E+03  0.41800000000E+01 0.  1.
        -11    1    3    3    0    0  0.49571219985E+02  0.38698003611E+02  0.12872374112E+03  0.14326424139E+03  0.00000000000E+00 0.  1.
         11    1    3    3    0    0 -0.23927469523E+02 -0.21400320524E+02  0.42338685107E+02  0.53132492628E+02  0.00000000000E+00 0. -1.
</event>
<event>
 7    1  0.6988825E-006  0.1274727E+03  0.7561462E-02  0.1231255E+00
          2   -1    0    0  501    0  0.00000000000E+00  0.00000000000E+00  0.17677998045E+04  0.17677998045E+04  0.00000000000E+00 0. -1.
         -2   -1    0    0    0  501 -0.00000000000E+00 -0.00000000000E+00 -0.11014823708E+02  0.11014823708E+02  0.00000000000E+00 0.  1.
         23    2    1    2    0    0  0.64094823026E+02 -0.30070857528E+02  0.46386889219E+03  0.47793377386E+03  0.90741061544E+02 0.  0.
          5    1    1    2  502    0 -0.29764729816E+02 -0.48955048883E+02  0.52868882710E+03  0.53180060573E+03  0.41800000000E+01 0.  1.
         -5    1    1    2    0  502 -0.34330093210E+02  0.79025906411E+02  0.76422726147E+03  0.76908024858E+03  0.41800000000E+01 0.  1.
        -11    1    3    3    0    0  0.83540977463E+02 -0.35912803280E+02  0.41792117740E+03  0.42769958485E+03  0.00000000000E+00 0.  1.
         11    1    3    3    0    0 -0.19446154437E+02  0.58419457511E+01  0.45947714784E+02  0.50234189019E+02  0.00000000000E+00 0. -1.
</event>
<event>
 7    1  0.6988825E-006  0.8907206E+02  0.7561462E-02  0.1305115E+00
         -1   -1    0    0    0  501 -0.00000000000E+00  0.00000000000E+00  0.23721979010E+03  0.23721979010E+03  0.00000000000E+00 0.  1.
          1   -1    0    0  501    0  0.00000000000E+00 -0.00000000000E+00 -0.51838090604E+02  0.51838090604E+02  0.00000000000E+00 0. -1.
         23    2    1    2    0    0  0.11777302052E+02 -0.17993960707E+02  0.76105446194E+02  0.12157289265E+03  0.92333319131E+02 0.  0.
          5    1    1    2  502    0  0.45614065696E+02  0.39372533834E+02  0.30648158816E+02  0.67731982465E+02  0.41800000000E+01 0.  1.
         -5    1    1    2    0  502 -0.57391367748E+02 -0.21378573127E+02  0.78628094482E+02  0.99753005583E+02  0.41800000000E+01 0.  1.
        -11    1    3    3    0    0  0.32459432676E+02 -0.82360398969E+01  0.89159346487E+02  0.95240937568E+02  0.00000000000E+00 0.  1.
         11    1    3    3    0    0 -0.20682130624E+02 -0.97579208102E+01 -0.13053900293E+02  0.26331955084E+02  0.00000000000E+00 0. -1.
</event>
<event>
 7    1  0.6988825E-006  0.1540017E+03  0.7561462E-02  0.1195640E+00
         -1   -1    0    0    0  501 -0.00000000000E+00  0.00000000000E+00  0.19911347130E+03  0.19911347130E+03  0.00000000000E+00 0.  1.
          1   -1    0    0  501    0  0.00000000000E+00 -0.00000000000E+00 -0.12341597887E+03  0.12341597887E+03  0.00000000000E+00 0. -1.
         23    2    1    2    0    0  0.71135586151E+00  0.10473418293E+03  0.29836835992E+02  0.15306166659E+03  0.10755408824E+03 0.  0.
          5    1    1    2  502    0 -0.54550263432E+02 -0.92146634682E+02  0.23693594044E+02  0.10975241374E+03  0.41800000000E+01 0.  1.
         -5    1    1    2    0  502  0.53838907570E+02 -0.12587548246E+02  0.22167062387E+02  0.59715369831E+02  0.41800000000E+01 0.  1.
        -11    1    3    3    0    0 -0.49957036585E+02  0.56761745790E+02 -0.35742771392E+01  0.75699251955E+02  0.00000000000E+00 0. -1.
         11    1    3    3    0    0  0.50668392447E+02  0.47972437138E+02  0.33411113131E+02  0.77362414639E+02  0.00000000000E+00 0.  1.
</event>
<event>
 7    1  0.6988825E-006  0.2156299E+03  0.7561462E-02  0.1137184E+00
         -1   -1    0    0    0  501 -0.00000000000E+00  0.00000000000E+00  0.27226833543E+03  0.27226833543E+03  0.00000000000E+00 0.  1.
          1   -1    0    0  501    0  0.00000000000E+00 -0.00000000000E+00 -0.25888782437E+03  0.25888782437E+03  0.00000000000E+00 0. -1.
         23    2    1    2    0    0 -0.63282377841E+02 -0.18955662446E+03  0.14279418778E+03  0.26221023650E+03  0.91802259417E+02 0.  0.
          5    1    1    2  502    0  0.21053978637E+02  0.18751068611E+03 -0.83466832527E+02  0.20636790437E+03  0.41800000000E+01 0.  1.
         -5    1    1    2    0  502  0.42228399204E+02  0.20459383548E+01 -0.45946844193E+02  0.62578018939E+02  0.41800000000E+01 0.  1.
        -11    1    3    3    0    0 -0.30641825423E+02 -0.10581808702E+03  0.13162512314E+03  0.17164370669E+03  0.00000000000E+00 0. -1.
         11    1    3    3    0    0 -0.32640552418E+02 -0.83738537445E+02  0.11169064647E+02  0.90566529803E+02  0.00000000000E+00 0.  1.
</event>
<event>
 7    1  0.6988825E-006  0.8881152E+02  0.7561462E-02  0.1305756E+00
          2   -1    0    0  501    0  0.00000000000E+00  0.00000000000E+00  0.63493786766E+03  0.63493786766E+03  0.00000000000E+00 0. -1.
         -2   -1    0    0    0  501 -0.00000000000E+00 -0.00000000000E+00 -0.18306694798E+02  0.18306694798E+02  0.00000000000E+00 0.  1.
         23    2    1    2    0    0  0.10576004611E+02 -0.84785934896E+01  0.18994633778E+03  0.21146741191E+03  0.91951708209E+02 0.  0.
          5    1    1    2  502    0 -0.61112452984E+02  0.15059350355E+02  0.22039257816E+03  0.22924196136E+03  0.41800000000E+01 0. -1.
         -5    1    1    2    0  502  0.50536448373E+02 -0.65807568654E+01  0.20629225692E+03  0.21253518918E+03  0.41800000000E+01 0.  1.
        -11    1    3    3    0    0  0.34802357299E+02 -0.15628131574E+02  0.18051894488E+03  0.18450618426E+03  0.00000000000E+00 0.  1.
         11    1    3    3    0    0 -0.24226352688E+02  0.71495380846E+01  0.94273929007E+01  0.26961227648E+02  0.00000000000E+00 0. -1.
</event>
<event>
 7    1  0.6988825E-006  0.1499532E+03  0.7561462E-02  0.1200531E+00
          2   -1    0    0  501    0  0.00000000000E+00  0.00000000000E+00  0.17286649311E+04  0.17286649311E+04  0.00000000000E+00 0. -1.
         -2   -1    0    0    0  501 -0.00000000000E+00 -0.00000000000E+00 -0.17991375124E+02  0.17991375124E+02  0.00000000000E+00 0.  1.
         23    2    1    2    0    0  0.59575371599E+01  0.12187030228E+03  0.48243361609E+03  0.50604805585E+03  0.91948779635E+02 0.  0.
          5    1    1    2  502    0  0.22229196322E+02  0.17344260710E+01  0.55858558103E+03  0.55904603491E+03  0.41800000000E+01 0.  1.
         -5    1    1    2    0  502 -0.28186733482E+02 -0.12360472836E+03  0.66965435886E+03  0.68156221547E+03  0.41800000000E+01 0.  1.
        -11    1    3    3    0    0 -0.41062305573E+02  0.55719776844E+02  0.17805055840E+03  0.19103090802E+03  0.00000000000E+00 0.  1.
         11    1    3    3    0    0  0.47019842732E+02  0.66150525441E+02  0.30438305768E+03  0.31501714784E+03  0.00000000000E+00 0. -1.
</event>
<event>
 7    1  0.6988825E-006  0.2098542E+03  0.7561462E-02  0.1141681E+00
          1   -1    0    0  501    0  0.00000000000E+00  0.00000000000E+00  0.11807019683E+04  0.11807019683E+04  0.00000000000E+00 0. -1.
         -1   -1    0    0    0  501 -0.00000000000E+00 -0.00000000000E+00 -0.48359017438E+02  0.48359017438E+02  0.00000000000E+00 0.  1.
         23    2    1    2    0    0  0.15366141039E+03 -0.10801438922E+03  0.29027780215E+03  0.35728077991E+03  0.90052295634E+02 0.  0.
          5    1    1    2  502    0 -0.10899877868E+03  0.13259255779E+03  0.70124823752E+03  0.72196127538E+03  0.41800000000E+01 0.  1.
         -5    1    1    2    0  502 -0.44662631705E+02 -0.24578168568E+02  0.14081691117E+03  0.14981893042E+03  0.41800000000E+01 0.  1.
        -11    1    3    3    0    0  0.93351115434E+02 -0.98674697552E+02  0.13992125565E+03  0.19501047273E+03  0.00000000000E+00 0.  1.
         11    1    3    3    0    0  0.60310294952E+02 -0.93396916695E+01  0.15035654650E+03  0.16227030718E+03  0.00000000000E+00 0. -1.
</event>
<event>
 7    1  0.6988825E-006  0.1222928E+03  0.7561462E-02  0.1239362E+00
          1   -1    0    0  501    0  0.00000000000E+00  0.00000000000E+00  0.49491970498E+03  0.49491970498E+03  0.00000000000E+00 0. -1.
         -1   -1    0    0    0  501 -0.00000000000E+00 -0.00000000000E+00 -0.47817078234E+02  0.47817078234E+02  0.00000000000E+00 0.  1.
         23    2    1    2    0    0 -0.11270050777E+02  0.60066289889E+02  0.48720288760E+02  0.12071833768E+03  0.92001506995E+02 0.  0.
          5    1    1    2  502    0 -0.51854589992E+02 -0.46390013510E+02  0.15103425804E+03  0.16634227171E+03  0.41800000000E+01 0.  1.
         -5    1    1    2    0  502  0.63124640770E+02 -0.13676276379E+02  0.24734807995E+03  0.25567617382E+03  0.41800000000E+01 0.  1.
        -11    1    3    3    0    0 -0.41494342725E+02 -0.15562870391E+01  0.14151103705E+02  0.43868624820E+02  0.00000000000E+00 0.  1.
         11    1    3    3    0    0  0.30224291948E+02  0.61622576928E+02  0.34569185055E+02  0.76849712858E+02  0.00000000000E+00 0. -1.
</event>
<event>
 7    1  0.6988825E-006  0.1065170E+03  0.7561462E-02  0.1267159E+00
          3   -1    0    0  501    0  0.00000000000E+00  0.00000000000E+00  0.19217682240E+03  0.19217682240E+03  0.00000000000E+00 0. -1.
         -3   -1    0    0    0  501 -0.00000000000E+00 -0.00000000000E+00 -0.88725590446E+02  0.88725590446E+02  0.00000000000E+00 0.  1.
         23    2    1    2    0    0 -0.58932732114E+02 -0.23893566839E+02  0.85083023389E+01  0.11147438416E+03  0.91160175870E+02 0.  0.
          5    1    1    2  502    0 -0.11452779209E+02 -0.39047989374E+02  0.50486403628E+02  0.64978927177E+02  0.41800000000E+01 0. -1.
         -5    1    1    2    0  502  0.70385511323E+02  0.62941556213E+02  0.44456525983E+02  0.10444910151E+03  0.41800000000E+01 0. -1.
        -11    1    3    3    0    0 -0.25006095649E+02  0.12415397545E+02 -0.35453755733E+02  0.45126662976E+02  0.00000000000E+00 0.  1.
         11    1    3    3    0    0 -0.33926636465E+02 -0.36308964384E+02  0.43962058072E+02  0.66347721184E+02  0.00000000000E+00 0. -1.
</event>
<event>
 7    1  0.6988825E-006  0.1161976E+03  0.7561462E-02  0.1249505E+00
         -2   -1    0    0    0  501 -0.00000000000E+00  0.00000000000E+00  0.23172792679E+02  0.23172792679E+02  0.00000000000E+00 0.  1.
          2   -1    0    0  501    0  0.00000000000E+00 -0.00000000000E+00 -0.61903645128E+03  0.61903645128E+03  0.00000000000E+00 0. -1.
         23    2    1    2    0    0 -0.26918634583E+01  0.42880498053E+02 -0.19826734302E+03  0.22319151369E+03  0.93051218347E+02 0.  0.
          5    1    1    2  502    0 -0.59649891079E+02 -0.28141630666E+02 -0.16550936187E+03  0.17821583024E+03  0.41800000000E+01 0.  1.
         -5    1    1    2    0  502  0.62341754537E+02 -0.14738867387E+02 -0.23208695371E+03  0.24080190002E+03  0.41800000000E+01 0.  1.
        -11    1    3    3    0    0 -0.21644132934E+02  0.67589793718E+02 -0.14636391834E+03  0.16266298073E+03  0.00000000000E+00 0. -1.
         11    1    3    3    0    0  0.18952269475E+02 -0.24709295666E+02 -0.51903424671E+02  0.60528532967E+02  0.00000000000E+00 0.  1.
</event>
<event>
 7    1  0.6988825E-006  0.1220455E+03  0.7561462E-02  0.1239760E+00
         -1   -1    0    0    0  501 -0.00000000000E+00  0.00000000000E+00  0.24524509831E+02  0.24524509831E+02  0.00000000000E+00 0.  1.
          1   -1    0    0  501    0  0.00000000000E+00 -0.00000000000E+00 -0.61705195561E+03  0.61705195561E+03  0.00000000000E+00 0. -1.
         23    2    1    2    0    0 -0.34644178555E+02  0.44735210084E+02 -0.23041607320E+03  0.25431198713E+03  0.91550870442E+02 0.  0.
          5    1    1    2  502    0 -0.42786765064E+02  0.67566085572E+01 -0.97925941825E+02  0.10716026085E+03  0.41800000000E+01 0. -1.
         -5    1    1    2    0  502  0.77430943619E+02 -0.51491818641E+02 -0.26418543075E+03  0.28010421746E+03  0.41800000000E+01 0. -1.
        -11    1    3    3    0    0  0.27986641834E+02 -0.38145282170E+01 -0.66279830056E+02  0.72047335960E+02  0.00000000000E+00 0. -1.
         11    1    3    3    0    0 -0.62630820389E+02  0.48549738301E+02 -0.16413624314E+03  0.18226465117E+03  0.00000000000E+00 0.  1.
</event>
<event>
 7    1  0.6988825E-006  0.7223412E+02  0.7561462E-02  0.1352656E+00
         -1   -1    0    0    0  501 -0.00000000000E+00  0.00000000000E+00  0.50905934330E+02  0.50905934330E+02  0.00000000000E+00 0. -1.
          1   -1    0    0  501    0  0.00000000000E+00 -0.00000000000E+00 -0.28308759145E+03  0.28308759145E+03  0.00000000000E+00 0.  1.
         23    2    1    2    0    0  0.65034276492E+00  0.49758308842E+02 -0.11764951955E+03  0.15723988839E+03  0.91687844376E+02 0.  0.
          5    1    1    2  502    0 -0.71970232919E+01 -0.10536947026E+02  0.26745641463E+02  0.29927013452E+02  0.41800000000E+01 0.  1.
         -5    1    1    2    0  502  0.65466805270E+01 -0.39221361815E+02 -0.14127777903E+03  0.14682662394E+03  0.41800000000E+01 0.  1.
        -11    1    3    3    0    0 -0.58025853030E-01 -0.20647873854E+02 -0.68051480286E+02  0.71114991604E+02  0.00000000000E+00 0.  1.
         11    1    3    3    0    0  0.70836861795E+00  0.70406182695E+02 -0.49598039266E+02  0.86124896789E+02  0.00000000000E+00 0. -1.
</event>
<event>
 7    1  0.6988825E-006  0.1998873E+03  0.7561462E-02  0.1149834E+00
          1   -1    0    0  501    0  0.00000000000E+00  0.00000000000E+00  0.10611889418E+04  0.10611889418E+04  0.00000000000E+00 0. -1.
         -1   -1    0    0    0  501 -0.00000000000E+00 -0.00000000000E+00 -0.44992190778E+02  0.44992190778E+02  0.00000000000E+00 0.  1.
         23    2    1    2    0    0  0.12966329620E+03 -0.13877927143E+03  0.51408231287E+03  0.55496544221E+03  0.87371397400E+02 0.  0.
          5    1    1    2  502    0 -0.68197459442E+02  0.84530559363E+02  0.42467948028E+03  0.43836793030E+03  0.41800000000E+01 0. -1.
         -5    1    1    2    0  502 -0.61465836760E+02  0.54248712065E+02  0.77434957829E+02  0.11284776003E+03  0.41800000000E+01 0. -1.
        -11    1    3    3    0    0  0.21894052985E+02 -0.86476139660E+02  0.22626028575E+03  0.24321017494E+03  0.00000000000E+00 0. -1.
         11    1    3    3    0    0  0.10776924322E+03 -0.52303131768E+02  0.28782202712E+03  0.31175526727E+03  0.00000000000E+00 0.  1.
</event>
<event>
 7    1  0.1163050E-005  0.1285300E+03  0.7561462E-02  0.1229653E+00
          2   -1    0    0  501    0  0.00000000000E+00  0.00000000000E+00  0.82973996162E+03  0.82973996162E+03  0.00000000000E+00 0. -1.
         -2   -1    0    0    0  501 -0.00000000000E+00 -0.00000000000E+00 -0.31111626532E+02  0.31111626532E+02  0.00000000000E+00 0.  1.
         23    2    1    2    0    0 -0.81318911946E+02  0.85206574431E+02  0.26586002224E+03  0.30106415475E+03  0.78007359131E+02 0.  0.
          5    1    1    2  502    0  0.60843541218E+02 -0.62672680111E+02  0.13509485904E+03  0.16092822835E+03  0.41800000000E+01 0. -1.
         -5    1    1    2    0  502  0.20475370728E+02 -0.22533894320E+02  0.39767345381E+03  0.39885920507E+03  0.41800000000E+01 0. -1.
        -11    1    3    3    0    0 -0.11906982460E+02 -0.13633107054E+02  0.56909151785E+02  0.59718417562E+02  0.00000000000E+00 0. -1.
         11    1    3    3    0    0 -0.69411929485E+02  0.98839681485E+02  0.20895087046E+03  0.24134573718E+03  0.00000000000E+00 0.  1.
</event>
<event>
 7    1  0.6988825E-006  0.1016386E+03  0.7561462E-02  0.1276887E+00
          1   -1    0    0  501    0  0.00000000000E+00  0.00000000000E+00  0.49301157783E+03  0.49301157783E+03  0.00000000000E+00 0. -1.
         -1   -1    0    0    0  501 -0.00000000000E+00 -0.00000000000E+00 -0.34866708054E+02  0.34866708054E+02  0.00000000000E+00 0.  1.
         23    2    1    2    0    0  0.55107196545E+02  0.15432984444E+02  0.94238477782E+02  0.13884262780E+03  0.84388414371E+02 0.  0.
          5    1    1    2  502    0 -0.44628954772E+02  0.50785591828E+02  0.22063316390E+03  0.23079728195E+03  0.41800000000E+01 0. -1.
         -5    1    1    2    0  502 -0.10478241773E+02 -0.66218576272E+02  0.14327322809E+03  0.15823837614E+03  0.41800000000E+01 0. -1.
        -11    1    3    3    0    0  0.25062352555E+02 -0.11904787185E+02 -0.79616280640E+01  0.28865775496E+02  0.00000000000E+00 0.  1.
         11    1    3    3    0    0  0.30044843990E+02  0.27337771629E+02  0.10220010585E+03  0.10997685231E+03  0.00000000000E+00 0. -1.
</event>
<event>
 7    1  0.6988825E-006  0.1133196E+03  0.7561462E-02  0.1254543E+00
         -2   -1    0    0    0  501 -0.00000000000E+00  0.00000000000E+00  0.83925778782E+02  0.83925778782E+02  0.00000000000E+00 0.  1.
          2   -1    0    0  501    0  0.00000000000E+00 -0.00000000000E+00 -0.26441932111E+03  0.26441932111E+03  0.00000000000E+00 0. -1.
         23    2    1    2    0    0 -0.31899642373E+02 -0.24675582270E+02  0.26748384351E+02  0.10293964053E+03  0.90854950243E+02 0.  0.
          5    1    1    2  502    0  0.23899169267E+02  0.73909176315E+02 -0.97052079449E+02  0.12437972166E+03  0.41800000000E+01 0. -1.
         -5    1    1    2    0  502  0.80004731061E+01 -0.49233594046E+02 -0.11018984723E+03  0.12102573770E+03  0.41800000000E+01 0. -1.
        -11    1    3    3    0    0  0.20579202513E+02  0.20869120672E+02  0.13201781698E+02  0.32145152258E+02  0.00000000000E+00 0.  1.
         11    1    3    3    0    0 -0.52478844886E+02 -0.45544702942E+02  0.13546602653E+02  0.70794488274E+02  0.00000000000E+00 0. -1.
</event>
<event>
 7    1  0.6988825E-006  0.9630009E+02  0.7561462E-02  0.1288275E+00
         -2   -1    0    0    0  501 -0.00000000000E+00  0.00000000000E+00  0.40403271704E+02  0.40403271704E+02  0.00000000000E+00 0.  1.
          2   -1    0    0  501    0  0.00000000000E+00 -0.00000000000E+00 -0.30531927300E+03  0.30531927300E+03  0.00000000000E+00 0. -1.
         23    2    1    2    0    0 -0.18909296066E+02  0.66329436618E+01 -0.82014451459E+02  0.12323173908E+03  0.89767108946E+02 0.  0.
          5    1    1    2  502    0 -0.15621411700E+02 -0.59011793060E+02 -0.11277126776E+03  0.12830140863E+03  0.41800000000E+01 0. -1.
         -5    1    1    2    0  502  0.34530707766E+02  0.52378849398E+02 -0.70130282081E+02  0.94189397003E+02  0.41800000000E+01 0. -1.
        -11    1    3    3    0    0 -0.43257769134E+02  0.86170357988E+01 -0.87684440684E+02  0.98153191668E+02  0.00000000000E+00 0. -1.
         11    1    3    3    0    0  0.24348473068E+02 -0.19840921370E+01  0.56699892253E+01  0.25078547409E+02  0.00000000000E+00 0.  1.
</event>
<event>
 7    1  0.6988825E-006  0.8662188E+02  0.7561462E-02  0.1311245E+00
         -1   -1    0    0    0  501 -0.00000000000E+00  0.00000000000E+00  0.18397224206E+03  0.18397224206E+03  0.00000000000E+00 0.  1.
          1   -1    0    0  501    0  0.00000000000E+00 -0.00000000000E+00 -0.19097253386E+03  0.19097253386E+03  0.00000000000E+00 0. -1.
         23    2    1    2    0    0 -0.36241152583E+02 -0.38848229437E+02  0.13955521735E+03  0.17507056286E+03  0.91386198188E+02 0.  0.
          5    1    1    2  502    0 -0.17109114896E+02  0.93890646423E+01 -0.13651709622E+03  0.13796835256E+03  0.41800000000E+01 0. -1.
         -5    1    1    2    0  502  0.53350267479E+02  0.29459164795E+02 -0.10038412932E+02  0.61905860504E+02  0.41800000000E+01 0. -1.
        -11    1    3    3    0    0 -0.37108888625E+02 -0.60259782164E+02  0.13605156325E+03  0.15335690015E+03  0.00000000000E+00 0.  1.
         11    1    3    3    0    0  0.86773604130E+00  0.21411552727E+02  0.35036540972E+01  0.21713662705E+02  0.00000000000E+00 0. -1.
</event>
<event>
 7    1  0.6988825E-006  0.9625010E+02  0.7561462E-02  0.1288385E+00
         -1   -1    0    0    0  501 -0.00000000000E+00  0.00000000000E+00  0.11465512217E+03  0.11465512217E+03  0.00000000000E+00 0.  1.
          1   -1    0    0  501    0  0.00000000000E+00 -0.00000000000E+00 -0.12104928551E+03  0.12104928551E+03  0.00000000000E+00 0. -1.
         23    2    1    2    0    0 -0.44667906583E+02  0.13672953363E+01  0.45201684166E+01  0.10242342028E+03  0.92049083240E+02 0.  0.
          5    1    1    2  502    0  0.46422787558E+02  0.46401712670E+02 -0.40184580624E+02  0.77074425482E+02  0.41800000000E+01 0. -1.
         -5    1    1    2    0  502 -0.17548809750E+01 -0.47769008007E+02  0.29270248874E+02  0.56206561915E+02  0.41800000000E+01 0. -1.
        -11    1    3    3    0    0 -0.51219767476E+02  0.22997684053E+02  0.33724038388E+02  0.65495563340E+02  0.00000000000E+00 0.  1.
         11    1    3    3    0    0  0.65518608931E+01 -0.21630388717E+02 -0.29203869971E+02  0.36927856944E+02  0.00000000000E+00 0. -1.
</event>
<event>
 7    1  0.6988825E-006  0.1087584E+03  0.7561462E-02  0.1262887E+00
         -1   -1    0    0    0  501 -0.00000000000E+00  0.00000000000E+00  0.43410733846E+02  0.43410733846E+02  0.00000000000E+00 0.  1.
          1   -1    0    0  501    0  0.00000000000E+00 -0.00000000000E+00 -0.36717882384E+03  0.36717882384E+03  0.00000000000E+00 0. -1.
         23    2    1    2    0    0 -0.10299298766E+02  0.41664078561E+02 -0.70269708614E+02  0.12466668506E+03  0.93605445446E+02 0.  0.
          5    1    1    2  502    0  0.46198602603E+02 -0.60956596305E+02 -0.22015553125E+03  0.23310072470E+03  0.41800000000E+01 0. -1.
         -5    1    1    2    0  502 -0.35899303838E+02  0.19292517745E+02 -0.33342850129E+02  0.52822147927E+02  0.41800000000E+01 0. -1.
        -11    1    3    3    0    0  0.40161706942E+02  0.21990915454E+02 -0.17409914009E+02  0.48986408041E+02  0.00000000000E+00 0.  1.
         11    1    3    3    0    0 -0.50461005707E+02  0.19673163107E+02 -0.52859794605E+02  0.75680277017E+02  0.00000000000E+00 0. -1.
</event>
<event>
 7    1  0.6988825E-006  0.1094097E+03  0.7561462E-02  0.1261667E+00
         -2   -1    0    0    0  501 -0.00000000000E+00  0.00000000000E+00  0.23120360547E+02  0.23120360547E+02  0.00000000000E+00 0.  1.
          2   -1    0    0  501    0  0.00000000000E+00 -0.00000000000E+00 -0.75314467755E+03  0.75314467755E+03  0.00000000000E+00 0. -1.
         23    2    1    2    0    0 -0.26976697011E+02  0.58134224947E+02 -0.21330500102E+03  0.24077100538E+03  0.91456674329E+02 0.  0.
          5    1    1    2  502    0  0.63775310928E+02 -0.51255949144E+01 -0.15018086425E+03  0.16329521241E+03  0.41800000000E+01 0. -1.
         -5    1    1    2    0  502 -0.36798613916E+02 -0.53008630033E+02 -0.36653845173E+03  0.37219882031E+03  0.41800000000E+01 0. -1.
        -11    1    3    3    0    0 -0.39656294420E+02  0.10894500309E+02 -0.29610909979E+02  0.50676600260E+02  0.00000000000E+00 0.  1.
         11    1    3    3    0    0  0.12679597408E+02  0.47239724638E+02 -0.18369409104E+03  0.19009440512E+03  0.00000000000E+00 0. -1.
</event>
<event>
 7    1  0.6988825E-006  0.1172550E+03  0.7561462E-02  0.1247695E+00
          1   -1    0    0  501    0  0.00000000000E+00  0.00000000000E+00  0.52880555734E+03  0.52880555734E+03  0.00000000000E+00 0. -1.
         -1   -1    0    0    0  501 -0.00000000000E+00 -0.00000000000E+00 -0.47823540279E+02  0.47823540279E+02  0.00000000000E+00 0.  1.
         23    2    1    2    0    0  0.94527179589E+02 -0.19321173152E+02  0.93623834194E+02  0.15829621065E+03  0.83567772275E+02 0.  0.
          5    1    1    2  502    0 -0.87946252127E+02 -0.25578549758E+02  0.14376016269E+03  0.17050883334E+03  0.41800000000E+01 0.  1.
         -5    1    1    2    0  502 -0.65809274615E+01  0.44899722910E+02  0.24359802017E+03  0.24782405363E+03  0.41800000000E+01 0.  1.
        -11    1    3    3    0    0  0.82557696583E+02 -0.20946041352E+02  0.25212545716E+02  0.88826698548E+02  0.00000000000E+00 0.  1.
         11    1    3    3    0    0  0.11969483006E+02  0.16248682005E+01  0.68411288478E+02  0.69469512099E+02  0.00000000000E+00 0. -1.
</event>
<event>
 7    1  0.6988825E-006  0.1191424E+03  0.7561462E-02  0.1244519E+00
         -1   -1    0    0    0  501 -0.00000000000E+00  0.00000000000E+00  0.24644789361E+03  0.24644789361E+03  0.00000000000E+00 0.  1.
          1   -1    0    0  501    0  0.00000000000E+00 -0.00000000000E+00 -0.85700356416E+02  0.85700356416E+02  0.00000000000E+00 0. -1.
         23    2    1    2    0    0 -0.34008866771E+02 -0.87286474932E+02  0.10323898775E+03  0.16562528943E+03  0.89431069438E+02 0.  0.
          5    1    1    2  502    0  0.72239613783E+02  0.72696611974E+02  0.69235029405E+02  0.12375104399E+03  0.41800000000E+01 0. -1.
         -5    1    1    2    0  502 -0.38230747012E+02  0.14589862959E+02 -0.11726479959E+02  0.42771916610E+02  0.41800000000E+01 0. -1.
        -11    1    3    3    0    0 -0.96797579301E+01 -0.11754642420E+02  0.82105991117E+02  0.83506066303E+02  0.00000000000E+00 0.  1.
         11    1    3    3    0    0 -0.24329108841E+02 -0.75531832513E+02  0.21132996631E+02  0.82119223123E+02  0.00000000000E+00 0. -1.
</event>
<event>
 7    1  0.6988825E-006  0.1131513E+03  0.7561462E-02  0.1254843E+00
         -2   -1    0    0    0  501 -0.00000000000E+00  0.00000000000E+00  0.97009138911E+02  0.97009138911E+02  0.00000000000E+00 0.  1.
          2   -1    0    0  501    0  0.00000000000E+00 -0.00000000000E+00 -0.14439172155E+03  0.14439172155E+03  0.00000000000E+00 0. -1.
         23    2    1    2    0    0 -0.97168009167E+01 -0.40701428090E+02  0.49408484192E+01  0.99499426438E+02  0.90137125590E+02 0.  0.
          5    1    1    2  502    0  0.36963099510E+01 -0.43615950405E+02 -0.33291579889E+02  0.55152656586E+02  0.41800000000E+01 0.  1.
         -5    1    1    2    0  502  0.60204909657E+01  0.84317378495E+02 -0.19031851169E+02  0.86748777436E+02  0.41800000000E+01 0.  1.
        -11    1    3    3    0    0  0.11467906663E+02  0.25621930211E+02 -0.68216834823E+01  0.28888259839E+02  0.00000000000E+00 0.  1.
         11    1    3    3    0    0 -0.21184707580E+02 -0.66323358302E+02  0.11762531901E+02  0.70611166599E+02  0.00000000000E+00 0. -1.
</event>
<event>
 7    1  0.6988825E-006  0.7884798E+02  0.7561462E-02  0.1332353E+00
          2   -1    0    0  501    0  0.00000000000E+00  0.00000000000E+00  0.32379885489E+03  0.32379885489E+03  0.00000000000E+00 0. -1.
         -2   -1    0    0    0  501 -0.00000000000E+00 -0.00000000000E+00 -0.54143717817E+02  0.54143717817E+02  0.00000000000E+00 0.  1.
         23    2    1    2    0    0 -0.51989932944E+02 -0.52719457630E+02  0.14612303075E+03  0.18718315272E+03  0.90572060849E+02 0.  0.
          5    1    1    2  502    0 -0.37847238632E+01 -0.40051346964E+00 -0.23796789786E+02  0.24459030027E+02  0.41800000000E+01 0.  1.
         -5    1    1    2    0  502  0.55774656807E+02  0.53119971100E+02  0.14732889611E+03  0.16630038996E+03  0.41800000000E+01 0.  1.
        -11    1    3    3    0    0 -0.17580197047E+02 -0.10639830444E+02 -0.92801929060E+01  0.22547534244E+02  0.00000000000E+00 0.  1.
         11    1    3    3    0    0 -0.34409735896E+02 -0.42079627186E+02  0.15540322366E+03  0.16463561848E+03  0.00000000000E+00 0. -1.
</event>
<event>
 7    1  0.6988825E-006  0.1221917E+03  0.7561462E-02  0.1239525E+00
          1   -1    0    0  501    0  0.00000000000E+00  0.00000000000E+00  0.34039603401E+03  0.34039603401E+03  0.00000000000E+00 0. -1.
         -1   -1    0    0    0  501 -0.00000000000E+00 -0.00000000000E+00 -0.48812369609E+02  0.48812369609E+02  0.00000000000E+00 0.  1.
         23    2    1    2    0    0  0.49745768027E+02  0.26487872544E+02  0.75867337599E+02  0.13355977307E+03  0.94372195265E+02 0.  0.
          5    1    1    2  502    0 -0.91434356043E+02 -0.23117909198E+02  0.13639521014E+03  0.16587888636E+03  0.41800000000E+01 0. -1.
         -5    1    1    2    0  502  0.41688588016E+02 -0.33699633461E+01  0.79321116664E+02  0.89769744193E+02  0.41800000000E+01 0. -1.
        -11    1    3    3    0    0  0.64164129440E+02 -0.13386074862E+02  0.33462602056E+02  0.73593262214E+02  0.00000000000E+00 0.  1.
         11    1    3    3    0    0 -0.14418361413E+02  0.39873947406E+02  0.42404735543E+02  0.59966510854E+02  0.00000000000E+00 0. -1.
</event>
<event>
 7    1  0.6988825E-006  0.9020383E+02  0.7561462E-02  0.1302359E+00
         -2   -1    0    0    0  501 -0.00000000000E+00  0.00000000000E+00  0.38716949468E+02  0.38716949468E+02  0.00000000000E+00 0.  1.
          2   -1    0    0  501    0  0.00000000000E+00 -0.00000000000E+00 -0.89689058895E+03  0.89689058895E+03  0.00000000000E+00 0. -1.
         23    2    1    2    0    0  0.45294223374E+02  0.50557882820E+01 -0.46777059541E+02  0.11335946535E+03  0.92656070598E+02 0.  0.
          5    1    1    2  502    0 -0.55396675631E+02 -0.22909029680E+02 -0.16650797171E+03  0.17701975132E+03  0.41800000000E+01 0.  1.
         -5    1    1    2    0  502  0.10102452257E+02  0.17853241398E+02 -0.64488860823E+03  0.64522832175E+03  0.41800000000E+01 0.  1.
        -11    1    3    3    0    0 -0.26634197227E+02 -0.38188976847E+01 -0.27262849851E+02  0.38304404753E+02  0.00000000000E+00 0. -1.
         11    1    3    3    0    0  0.71928420602E+02  0.88746859668E+01 -0.19514209689E+02  0.75055060596E+02  0.00000000000E+00 0.  1.
</event>
<event>
 7    1  0.6988825E-006  0.8727348E+02  0.7561462E-02  0.1309592E+00
          4   -1    0    0  501    0  0.00000000000E+00  0.00000000000E+00  0.49449165743E+02  0.49449165743E+02  0.00000000000E+00 0.  1.
         -4   -1    0    0    0  501 -0.00000000000E+00 -0.00000000000E+00 -0.31316692315E+03  0.31316692315E+03  0.00000000000E+00 0. -1.
         23    2    1    2    0    0 -0.14739772332E+02  0.42805063579E+02 -0.17487399688E+03  0.20264878459E+03  0.91848139637E+02 0.  0.
          5    1    1    2  502    0  0.45296490870E+02  0.89738512915E+01  0.68575913476E+01  0.46870044285E+02  0.41800000000E+01 0.  1.
         -5    1    1    2    0  502 -0.30556718539E+02 -0.51778914871E+02 -0.95701351874E+02  0.11309726002E+03  0.41800000000E+01 0.  1.
        -11    1    3    3    0    0 -0.27478124948E+02  0.48826757577E+01 -0.15588957016E+03  0.15836807114E+03  0.00000000000E+00 0. -1.
         11    1    3    3    0    0  0.12738352616E+02  0.37922387821E+02 -0.18984426720E+02  0.44280713447E+02  0.00000000000E+00 0.  1.
</event>
<event>
 7    1  0.6988825E-006  0.1119872E+03  0.7561462E-02  0.1256934E+00
         -2   -1    0    0    0  501 -0.00000000000E+00  0.00000000000E+00  0.13972211535E+02  0.13972211535E+02  0.00000000000E+00 0.  1.
          2   -1    0    0  501    0  0.00000000000E+00 -0.00000000000E+00 -0.20328784557E+04  0.20328784557E+04  0.00000000000E+00 0. -1.
         23    2    1    2    0    0  0.50520087240E+02  0.68440857405E+01 -0.21915270860E+03  0.24205462395E+03  0.89237943529E+02 0.  0.
          5    1    1    2  502    0 -0.33408394569E+02  0.55449530151E+02 -0.11492065278E+04  0.11510360060E+04  0.41800000000E+01 0. -1.
         -5    1    1    2    0  502 -0.17111692671E+02 -0.62293615892E+02 -0.65054700774E+03  0.65376003724E+03  0.41800000000E+01 0.  1.
        -11    1    3    3    0    0  0.24995795767E+02  0.43221230895E+02 -0.16282371007E+03  0.17030685590E+03  0.00000000000E+00 0. -1.
         11    1    3    3    0    0  0.25524291473E+02 -0.36377145154E+02 -0.56328998529E+02  0.71747768049E+02  0.00000000000E+00 0.  1.
</event>
<event>
 7    1  0.6988825E-006  0.9139589E+02  0.7561462E-02  0.1299506E+00
          2   -1    0    0  501    0  0.00000000000E+00  0.00000000000E+00  0.17300009331E+03  0.17300009331E+03  0.00000000000E+00 0. -1.
         -2   -1    0    0    0  501 -0.00000000000E+00 -0.00000000000E+00 -0.74194192390E+02  0.74194192390E+02  0.00000000000E+00 0.  1.
         23    2    1    2    0    0  0.20006251085E+02 -0.29843869727E+02  0.37583881648E+02  0.10336711198E+03  0.89338149948E+02 0.  0.
          5    1    1    2  502    0 -0.38176349666E+02  0.73085485668E+02  0.32892580878E+02  0.88872471362E+02  0.41800000000E+01 0.  1.
         -5    1    1    2    0  502  0.18170098581E+02 -0.43241615941E+02  0.28329438392E+02  0.54954702358E+02  0.41800000000E+01 0.  1.
        -11    1    3    3    0    0 -0.10289335783E+02 -0.17756923709E+02 -0.25269974555E+02  0.32553807526E+02  0.00000000000E+00 0.  1.
         11    1    3    3    0    0  0.30295586868E+02 -0.12086946018E+02  0.62853856203E+02  0.70813304451E+02  0.00000000000E+00 0. -1.
</event>
<event>
 7    1  0.6988825E-006  0.1668613E+03  0.7561462E-02  0.1181161E+00
          1   -1    0    0  501    0  0.00000000000E+00  0.00000000000E+00  0.87035600350E+03  0.87035600350E+03  0.00000000000E+00 0. -1.
         -1   -1    0    0    0  501 -0.00000000000E+00 -0.00000000000E+00 -0.39286281332E+02  0.39286281332E+02  0.00000000000E+00 0.  1.
         23    2    1    2    0    0 -0.13987602253E+03 -0.32356421188E+02  0.29197882528E+03  0.33790946279E+03  0.91208173757E+02 0.  0.
          5    1    1    2  502    0  0.34575402804E+02  0.68246709106E+02  0.26619757974E+03  0.27700486574E+03  0.41800000000E+01 0.  1.
         -5    1    1    2    0  502  0.10530061973E+03 -0.35890287918E+02  0.27289331715E+03  0.29472795630E+03  0.41800000000E+01 0.  1.
        -11    1    3    3    0    0 -0.72900125382E+02 -0.29785995372E+02  0.24146079363E+03  0.25397824446E+03  0.00000000000E+00 0. -1.
         11    1    3    3    0    0 -0.66975897151E+02 -0.25704258159E+01  0.50518031652E+02  0.83931218328E+02  0.00000000000E+00 0.  1.
</event>
<event>
 7    1  0.6988825E-006  0.8374682E+02  0.7561462E-02  0.1318743E+00
         -2   -1    0    0    0  501 -0.00000000000E+00  0.00000000000E+00  0.21459030235E+02  0.21459030235E+02  0.00000000000E+00 0.  1.
          2   -1    0    0  501    0  0.00000000000E+00 -0.00000000000E+00 -0.60474694688E+03  0.60474694688E+03  0.00000000000E+00 0. -1.
         23    2    1    2    0    0 -0.27598861762E+02  0.18877094520E+02 -0.20522900345E+03  0.22635348354E+03  0.89436646758E+02 0.  0.
          5    1    1    2  502    0 -0.36006258052E+02  0.37110802638E+01 -0.26950449547E+03  0.27195655574E+03  0.41800000000E+01 0. -1.
         -5    1    1    2    0  502  0.63605119814E+02 -0.22588174784E+02 -0.10855441773E+03  0.12789593783E+03  0.41800000000E+01 0.  1.
        -11    1    3    3    0    0 -0.14568404556E+02  0.37768234326E+02 -0.19828750918E+03  0.20237740544E+03  0.00000000000E+00 0.  1.
         11    1    3    3    0    0 -0.13030457207E+02 -0.18891139805E+02 -0.69414942700E+01  0.23976078096E+02  0.00000000000E+00 0. -1.
</event>
<event>
 7    1  0.6988825E-006  0.1448216E+03  0.7561462E-02  0.1206985E+00
          2   -1    0    0  501    0  0.00000000000E+00  0.00000000000E+00  0.32455770638E+03  0.32455770638E+03  0.00000000000E+00 0.  1.
         -2   -1    0    0    0  501 -0.00000000000E+00 -0.00000000000E+00 -0.65261838248E+02  0.65261838248E+02  0.00000000000E+00 0. -1.
         23    2    1    2    0    0 -0.86433246961E+02  0.13417684565E+02  0.12471151105E+03  0.18631661842E+03  0.10728551101E+03 0.  0.
          5    1    1    2  502    0 -0.12812641623E+02 -0.45161458537E+02  0.30333596327E+02  0.56047485123E+02  0.41800000000E+01 0.  1.
         -5    1    1    2    0  502  0.99245888584E+02  0.31743773972E+02  0.10425076075E+03  0.14745544108E+03  0.41800000000E+01 0.  1.
        -11    1    3    3    0    0 -0.79380928794E+02 -0.36817203377E+02  0.83629395802E+02  0.12104013451E+03  0.00000000000E+00 0.  1.
         11    1    3    3    0    0 -0.70523181668E+01  0.50234887942E+02  0.41082115252E+02  0.65276483911E+02  0.00000000000E+00 0. -1.
</event>
<event>
 7    1  0.6988825E-006  0.1134244E+03  0.7561462E-02  0.1254357E+00
          1   -1    0    0  501    0  0.00000000000E+00  0.00000000000E+00  0.16774289950E+03  0.16774289950E+03  0.00000000000E+00 0. -1.
         -1   -1    0    0    0  501 -0.00000000000E+00 -0.00000000000E+00 -0.10422138939E+03  0.10422138939E+03  0.00000000000E+00 0.  1.
         23    2    1    2    0    0 -0.11904281178E+02  0.74571218588E+02  0.17457371109E+02  0.11875971150E+03  0.89980724137E+02 0.  0.
          5    1    1    2  502    0  0.46558469358E+02 -0.93818829639E+02  0.23576385766E+02  0.10743827172E+03  0.41800000000E+01 0.  1.
         -5    1    1    2    0  502 -0.34654188180E+02  0.19247611051E+02  0.22487753239E+02  0.45766305677E+02  0.41800000000E+01 0.  1.
        -11    1    3    3    0    0 -0.22596544228E+02  0.39530804420E+02 -0.33122284973E+02  0.56306074903E+02  0.00000000000E+00 0.  1.
         11    1    3    3    0    0  0.10692263050E+02  0.35040414168E+02  0.50579656082E+02  0.62453636592E+02  0.00000000000E+00 0. -1.
</event>
<event>
 7    1  0.6988825E-006  0.9827757E+02  0.7561462E-02  0.1283960E+00
         -1   -1    0    0    0  501 -0.00000000000E+00  0.00000000000E+00  0.17685068901E+03  0.17685068901E+03  0.00000000000E+00 0.  1.
          1   -1    0    0  501    0  0.00000000000E+00 -0.00000000000E+00 -0.76633640865E+02  0.76633640865E+02  0.00000000000E+00 0. -1.
         23    2    1    2    0    0 -0.29437226304E+01  0.64241856654E+01  0.88917011011E+02  0.12769469119E+03  0.91377041129E+02 0.  0.
          5    1    1    2  502    0  0.41511304491E+02  0.31520215869E+02  0.38648738353E+02  0.65022379110E+02  0.41800000000E+01 0. -1.
         -5    1    1    2    0  502 -0.38567581860E+02 -0.37944401534E+02 -0.27348701219E+02  0.60767259579E+02  0.41800000000E+01 0. -1.
        -11    1    3    3    0    0  0.20143770201E+02 -0.36255932220E+02  0.29078413988E+02  0.50653906652E+02  0.00000000000E+00 0.  1.
         11    1    3    3    0    0 -0.23087492831E+02  0.42680117885E+02  0.59838597022E+02  0.77040784533E+02  0.00000000000E+00 0. -1.
</event>
<event>
 7    1  0.6988825E-006  0.7445090E+02  0.7561462E-02  0.1345580E+00
          2   -1    0    0  501    0  0.00000000000E+00  0.00000000000E+00  0.27295953466E+03  0.27295953466E+03  0.00000000000E+00 0. -1.
         -2   -1    0    0    0  501 -0.00000000000E+00 -0.00000000000E+00 -0.47189517379E+02  0.47189517379E+02  0.00000000000E+00 0.  1.
         23    2    1    2    0    0 -0.26249221065E+02 -0.13359829460E+02  0.73195345976E+02  0.12066429448E+03  0.91295162199E+02 0.  0.
          5    1    1    2  502    0 -0.20245460940E+02  0.25989348711E+00  0.14947758479E+03  0.15090052017E+03  0.41800000000E+01 0. -1.
         -5    1    1    2    0  502  0.46494682005E+02  0.13099935973E+02  0.30970865138E+01  0.48584237383E+02  0.41800000000E+01 0. -1.
        -11    1    3    3    0    0  0.54874636938E+01  0.27479026496E+02 -0.34157165195E+01  0.28228997048E+02  0.00000000000E+00 0.  1.
         11    1    3    3    0    0 -0.31736684759E+02 -0.40838855956E+02  0.76611062496E+02  0.92435297436E+02  0.00000000000E+00 0. -1.
</event>
<event>
 7    1  0.6988825E-006  0.2388458E+03  0.7561462E-02  0.1120564E+00
         -2   -1    0    0    0  501 -0.00000000000E+00  0.00000000000E+00  0.21270158429E+03  0.21270158429E+03  0.00000000000E+00 0.  1.
          2   -1    0    0  501    0  0.00000000000E+00 -0.00000000000E+00 -0.41100097387E+03  0.41100097387E+03  0.00000000000E+00 0. -1.
         23    2    1    2    0    0 -0.19282893527E+03  0.98244082549E+02  0.82159736677E+02  0.24801686209E+03  0.89035069040E+02 0.  0.
          5    1    1    2  502    0  0.19011505116E+03 -0.43713922831E+02 -0.21485349653E+03  0.29023117871E+03  0.41800000000E+01 0. -1.
         -5    1    1    2    0  502  0.27138841073E+01 -0.54530159719E+02 -0.65605629718E+02  0.85454517356E+02  0.41800000000E+01 0. -1.
        -11    1    3    3    0    0 -0.35910456858E+02  0.53868674274E+02  0.50006450793E+02  0.81804890445E+02  0.00000000000E+00 0.  1.
         11    1    3    3    0    0 -0.15691847841E+03  0.44375408275E+02  0.32153285884E+02  0.16621197165E+03  0.00000000000E+00 0. -1.
</event>
<event>
 7    1  0.6988825E-006  0.1180799E+03  0.7561462E-02  0.1246299E+00
         -2   -1    0    0    0  501 -0.00000000000E+00  0.00000000000E+00  0.97210295974E+01  0.97210295974E+01  0.00000000000E+00 0.  1.
          2   -1    0    0  501    0  0.00000000000E+00 -0.00000000000E+00 -0.18232904314E+04  0.18232904314E+04  0.00000000000E+00 0. -1.
         23    2    1    2    0    0 -0.34676900167E+02 -0.38687120496E+02 -0.42281645527E+03  0.43567850887E+03  0.91339080073E+02 0.  0.
          5    1    1    2  502    0  0.13149195262E+01  0.81158288535E+02 -0.83291901219E+03  0.83687511021E+03  0.41800000000E+01 0.  1.
         -5    1    1    2    0  502  0.33361980641E+02 -0.42471168040E+02 -0.55783393435E+03  0.56045784193E+03  0.41800000000E+01 0.  1.
        -11    1    3    3    0    0 -0.19403743897E+02 -0.66342420939E+02 -0.34182074543E+03  0.34873950752E+03  0.00000000000E+00 0.  1.
         11    1    3    3    0    0 -0.15273156270E+02  0.27655300443E+02 -0.80995709837E+02  0.86939001357E+02  0.00000000000E+00 0. -1.
</event>
<event>
 7    1  0.6988825E-006  0.1035971E+03  0.7561462E-02  0.1272908E+00
          2   -1    0    0  501    0  0.00000000000E+00  0.00000000000E+00  0.47387550385E+03  0.47387550385E+03  0.00000000000E+00 0. -1.
         -2   -1    0    0    0  501 -0.00000000000E+00 -0.00000000000E+00 -0.78679440123E+02  0.78679440123E+02  0.00000000000E+00 0.  1.
         23    2    1    2    0    0 -0.44040349988E+02  0.18216252825E+02  0.74992170452E+02  0.11965178335E+03  0.80133259854E+02 0.  0.
          5    1    1    2  502    0 -0.29154023722E+02  0.16206206663E+02  0.34620968491E+03  0.34783791708E+03  0.41800000000E+01 0. -1.
         -5    1    1    2    0  502  0.73194373710E+02 -0.34422459488E+02 -0.26005791640E+02  0.85065243542E+02  0.41800000000E+01 0.  1.
        -11    1    3    3    0    0  0.11385207112E+02  0.33259699672E+02  0.35445237274E+02  0.49921893079E+02  0.00000000000E+00 0.  1.
         11    1    3    3    0    0 -0.55425557100E+02 -0.15043446846E+02  0.39546933178E+02  0.69729890267E+02  0.00000000000E+00 0. -1.
</event>
<event>
 7    1  0.6988825E-006  0.1191524E+03  0.7561462E-02  0.1244502E+00
          1   -1    0    0  501    0  0.00000000000E+00  0.00000000000E+00  0.88292189434E+02  0.88292189434E+02  0.00000000000E+00 0. -1.
         -1   -1    0    0    0  501 -0.00000000000E+00 -0.00000000000E+00 -0.16556308016E+03  0.16556308016E+03  0.00000000000E+00 0.  1.
         23    2    1    2    0    0 -0.48444133001E+02  0.13173348189E+02 -0.20265588159E+02  0.10750905286E+03  0.92882351702E+02 0.  0.
          5    1    1    2  502    0 -0.38667289490E+02  0.15815854718E+02 -0.25851881620E+02  0.49306112402E+02  0.41800000000E+01 0. -1.
         -5    1    1    2    0  502  0.87111422491E+02 -0.28989202906E+02 -0.31153420950E+02  0.97040104340E+02  0.41800000000E+01 0. -1.
        -11    1    3    3    0    0  0.26898312189E+02  0.10946961579E+02 -0.12893175420E+02  0.31774032461E+02  0.00000000000E+00 0.  1.
         11    1    3    3    0    0 -0.75342445190E+02  0.22263866092E+01 -0.73724127392E+01  0.75735020394E+02  0.00000000000E+00 0. -1.
</event>
<event>
 7    1  0.6988825E-006  0.1515559E+03  0.7561462E-02  0.1198574E+00
         -1   -1    0    0    0  501 -0.00000000000E+00  0.00000000000E+00  0.81326302585E+02  0.81326302585E+02  0.00000000000E+00 0.  1.
          1   -1    0    0  501    0  0.00000000000E+00 -0.00000000000E+00 -0.30088967274E+03  0.30088967274E+03  0.00000000000E+00 0. -1.
         23    2    1    2    0    0 -0.10038527078E+03  0.50407902863E+02 -0.86248826400E+02  0.16764938301E+03  0.89717870620E+02 0.  0.
          5    1    1    2  502    0 -0.21608046310E+02 -0.27384975855E+02 -0.62191414119E+02  0.71428908419E+02  0.41800000000E+01 0. -1.
         -5    1    1    2    0  502  0.12199331709E+03 -0.23022927009E+02 -0.71123129639E+02  0.14313768390E+03  0.41800000000E+01 0. -1.
        -11    1    3    3    0    0 -0.93689894188E+02  0.78904454538E+00 -0.56150941751E+02  0.10923070596E+03  0.00000000000E+00 0.  1.
         11    1    3    3    0    0 -0.66953765890E+01  0.49618858318E+02 -0.30097884649E+02  0.58418677054E+02  0.00000000000E+00 0. -1.
</event>
<event>
 7    1  0.6988825E-006  0.1156340E+03  0.7561462E-02  0.1250478E+00
         -2   -1    0    0    0  501 -0.00000000000E+00  0.00000000000E+00  0.16278452520E+03  0.16278452520E+03  0.00000000000E+00 0.  1.
          2   -1    0    0  501    0  0.00000000000E+00 -0.00000000000E+00 -0.14361294715E+03  0.14361294715E+03  0.00000000000E+00 0. -1.
         23    2    1    2    0    0 -0.21638464480E+02  0.59496486567E+02  0.96375931167E+02  0.14634575939E+03  0.90114960603E+02 0.  0.
          5    1    1    2  502    0  0.56878405483E+02  0.92740356384E+01 -0.12358263818E+02  0.59087729961E+02  0.41800000000E+01 0.  1.
         -5    1    1    2    0  502 -0.35239941004E+02 -0.68770522205E+02 -0.64846089294E+02  0.10096398300E+03  0.41800000000E+01 0.  1.
        -11    1    3    3    0    0 -0.41962008336E+02  0.10794785570E+02  0.80190274090E+02  0.91147230335E+02  0.00000000000E+00 0. -1.
         11    1    3    3    0    0  0.20323543856E+02  0.48701700997E+02  0.16185657077E+02  0.55198529056E+02  0.00000000000E+00 0.  1.
</event>
<event>
 7    1  0.6988825E-006  0.2814442E+03  0.7561462E-02  0.1094903E+00
         -2   -1    0    0    0  501 -0.00000000000E+00  0.00000000000E+00  0.25327296708E+03  0.25327296708E+03  0.00000000000E+00 0.  1.
          2   -1    0    0  501    0  0.00000000000E+00 -0.00000000000E+00 -0.40276011541E+03  0.40276011541E+03  0.00000000000E+00 0. -1.
         23    2    1    2    0    0  0.18507083409E+03 -0.20549724437E+03  0.46418949663E+02  0.29477593824E+03  0.90872458971E+02 0.  0.
          5    1    1    2  502    0 -0.16513837183E+03  0.13655649194E+03 -0.88200182951E+02  0.23176518723E+03  0.41800000000E+01 0.  1.
         -5    1    1    2    0  502 -0.19932462260E+02  0.68940752437E+02 -0.10770591504E+03  0.12949195702E+03  0.41800000000E+01 0.  1.
        -11    1    3    3    0    0  0.11069535657E+03 -0.11677936541E+03 -0.18632876075E+02  0.16198168484E+03  0.00000000000E+00 0.  1.
         11    1    3    3    0    0  0.74375477519E+02 -0.88717878965E+02  0.65051825738E+02  0.13279425340E+03  0.00000000000E+00 0. -1.
</event>
<event>
 7    1  0.6988825E-006  0.1176088E+03  0.7561462E-02  0.1247095E+00
          2   -1    0    0  501    0  0.00000000000E+00  0.00000000000E+00  0.86960357141E+03  0.86960357141E+03  0.00000000000E+00 0. -1.
         -2   -1    0    0    0  501 -0.00000000000E+00 -0.00000000000E+00 -0.21812421834E+02  0.21812421834E+02  0.00000000000E+00 0.  1.
         23    2    1    2    0    0 -0.36563093792E+02  0.51489053209E+02  0.20613794047E+03  0.23381103266E+03  0.90480749699E+02 0.  0.
          5    1    1    2  502    0  0.66390549797E+02  0.33462822550E+01  0.47404008906E+03  0.47869654390E+03  0.41800000000E+01 0. -1.
         -5    1    1    2    0  502 -0.29827456005E+02 -0.54835335464E+02  0.16761312005E+03  0.17890841668E+03  0.41800000000E+01 0.  1.
        -11    1    3    3    0    0 -0.41149559379E+02  0.73138088617E+02  0.18528897834E+03  0.20340715754E+03  0.00000000000E+00 0. -1.
         11    1    3    3    0    0  0.45864655867E+01 -0.21649035409E+02  0.20848962128E+02  0.30403875123E+02  0.00000000000E+00 0.  1.
</event>
<event>
 7    1  0.6988825E-006  0.1123540E+03  0.7561462E-02  0.1256272E+00
         -2   -1    0    0    0  501 -0.00000000000E+00  0.00000000000E+00  0.44301351296E+03  0.44301351296E+03  0.00000000000E+00 0.  1.
          2   -1    0    0  501    0  0.00000000000E+00 -0.00000000000E+00 -0.44077352036E+02  0.44077352036E+02  0.00000000000E+00 0. -1.
         23    2    1    2    0    0 -0.40685114895E+02 -0.10974180089E+02  0.31472406462E+03  0.33051831574E+03  0.91735538284E+02 0.  0.
          5    1    1    2  502    0  0.15771774059E+02 -0.55591763125E+02  0.54100555468E+02  0.79268754792E+02  0.41800000000E+01 0.  1.
         -5    1    1    2    0  502  0.24913340837E+02  0.66565943214E+02  0.30111540838E+02  0.77303794468E+02  0.41800000000E+01 0.  1.
        -11    1    3    3    0    0 -0.43871702045E+02  0.30846919889E+02  0.12174949356E+03  0.13303833240E+03  0.00000000000E+00 0. -1.
         11    1    3    3    0    0  0.31865871500E+01 -0.41821099978E+02  0.19297457107E+03  0.19747998334E+03  0.00000000000E+00 0.  1.
</event>
<event>
 7    1  0.6988825E-006  0.1255221E+03  0.7561462E-02  0.1234256E+00
          4   -1    0    0  501    0  0.00000000000E+00  0.00000000000E+00  0.66597617584E+02  0.66597617584E+02  0.00000000000E+00 0. -1.
         -4   -1    0    0    0  501 -0.00000000000E+00 -0.00000000000E+00 -0.31084118471E+03  0.31084118471E+03  0.00000000000E+00 0.  1.
         23    2    1    2    0    0 -0.12930128436E+02 -0.91509603049E+02 -0.13273286170E+03  0.18606436540E+03  0.91982279944E+02 0.  0.
          5    1    1    2  502    0  0.29072881678E+01  0.10404595340E+03 -0.30300454830E+02  0.10848779980E+03  0.41800000000E+01 0.  1.
         -5    1    1    2    0  502  0.10022840268E+02 -0.12536350350E+02 -0.81210250598E+02  0.82886637097E+02  0.41800000000E+01 0.  1.
        -11    1    3    3    0    0  0.25727764517E+02 -0.87754394295E+02 -0.96513172753E+02  0.13295692573E+03  0.00000000000E+00 0.  1.
         11    1    3    3    0    0 -0.38657892953E+02 -0.37552087542E+01 -0.36219688948E+02  0.53107439666E+02  0.00000000000E+00 0. -1.
</event>
<event>
 7    1  0.6988825E-006  0.1247056E+03  0.7561462E-02  0.1235530E+00
         -2   -1    0    0    0  501 -0.00000000000E+00  0.00000000000E+00  0.31341295012E+02  0.31341295012E+02  0.00000000000E+00 0.  1.
          2   -1    0    0  501    0  0.00000000000E+00 -0.00000000000E+00 -0.55708712479E+03  0.55708712479E+03  0.00000000000E+00 0. -1.
         23    2    1    2    0    0 -0.59690528555E+02  0.44839211738E+02 -0.21279410963E+03  0.24322980839E+03  0.91136669287E+02 0.  0.
          5    1    1    2  502    0  0.32413137836E+02  0.38327569615E+02 -0.65085072172E+02  0.82299168383E+02  0.41800000000E+01 0. -1.
         -5    1    1    2    0  502  0.27277390719E+02 -0.83166781353E+02 -0.24786664797E+03  0.26289944303E+03  0.41800000000E+01 0. -1.
        -11    1    3    3    0    0  0.17062005810E+02 -0.73740062925E+01 -0.73675571381E+02  0.75984062996E+02  0.00000000000E+00 0.  1.
         11    1    3    3    0    0 -0.76752534365E+02  0.52213218031E+02 -0.13911853825E+03  0.16724574540E+03  0.00000000000E+00 0. -1.
</event>
<event>
 7    1  0.6988825E-006  0.2020641E+03  0.7561462E-02  0.1148009E+00
         -1   -1    0    0    0  501 -0.00000000000E+00  0.00000000000E+00  0.11996429011E+03  0.11996429011E+03  0.00000000000E+00 0.  1.
          1   -1    0    0  501    0  0.00000000000E+00 -0.00000000000E+00 -0.38545473065E+03  0.38545473065E+03  0.00000000000E+00 0. -1.
         23    2    1    2    0    0 -0.43665994143E+02 -0.17890200430E+03 -0.10419139814E+03  0.23050666601E+03  0.91459441506E+02 0.  0.
          5    1    1    2  502    0  0.42044720448E+02  0.27878682671E+02 -0.99570140200E+02  0.11169899142E+03  0.41800000000E+01 0.  1.
         -5    1    1    2    0  502  0.16212736943E+01  0.15102332163E+03 -0.61728902195E+02  0.16321336333E+03  0.41800000000E+01 0.  1.
        -11    1    3    3    0    0  0.24123638224E+02 -0.71018494464E+02 -0.19446427217E+02  0.77483804815E+02  0.00000000000E+00 0.  1.
         11    1    3    3    0    0 -0.67789632367E+02 -0.10788350984E+03 -0.84744970921E+02  0.15302286119E+03  0.00000000000E+00 0. -1.
</event>
<event>
 7    1  0.6988825E-006  0.1164116E+03  0.7561462E-02  0.1249137E+00
          2   -1    0    0  501    0  0.00000000000E+00  0.00000000000E+00  0.12266191377E+04  0.12266191377E+04  0.00000000000E+00 0. -1.
         -2   -1    0    0    0  501 -0.00000000000E+00 -0.00000000000E+00 -0.15318360032E+02  0.15318360032E+02  0.00000000000E+00 0.  1.
         23    2    1    2    0    0  0.63710223265E+02  0.61657661410E+01  0.29527099405E+03  0.31519303260E+03  0.89803555880E+02 0.  0.
          5    1    1    2  502    0  0.32617420802E+02  0.38226768166E+00  0.10637320324E+03  0.11134079681E+03  0.41800000000E+01 0.  1.
         -5    1    1    2    0  502 -0.96327644067E+02 -0.65480338226E+01  0.80965658042E+03  0.81540366836E+03  0.41800000000E+01 0.  1.
        -11    1    3    3    0    0  0.19089902216E+02 -0.36734142924E+02  0.67700847322E+02  0.79355065063E+02  0.00000000000E+00 0.  1.
         11    1    3    3    0    0  0.44620321049E+02  0.42899909065E+02  0.22757014673E+03  0.23583796753E+03  0.00000000000E+00 0. -1.
</event>
<event>
 6    1  0.6988825E-006  0.1718575E+03  0.7561462E-02  0.1175925E+00
          1   -1    0    0  501    0  0.00000000000E+00  0.00000000000E+00  0.46322510235E+03  0.46322510235E+03  0.00000000000E+00 0. -1.
         -1   -1    0    0    0  501 -0.00000000000E+00 -0.00000000000E+00 -0.10249323482E+03  0.10249323482E+03  0.00000000000E+00 0.  1.
          5    1    1    2  502    0  0.52084681970E+02 -0.81694991469E+02  0.29416722091E+03  0.30973974880E+03  0.41800000000E+01 0. -1.
         -5    1    1    2    0  502  0.38385600945E+02 -0.16716288596E+02  0.14862221601E+02  0.44623387312E+02  0.41800000000E+01 0.  1.
        -11    1    1    2    0    0  0.41642192870E+02  0.47273555840E+02  0.20954573513E+02  0.66392435262E+02  0.00000000000E+00 0.  1.
         11    1    1    2    0    0 -0.13211247579E+03  0.51137724224E+02  0.30747851513E+02  0.14496276580E+03  0.00000000000E+00 0. -1.
</event>
<event>
 7    1  0.6988825E-006  0.9189450E+02  0.7561462E-02  0.1298328E+00
          2   -1    0    0  501    0  0.00000000000E+00  0.00000000000E+00  0.40833175085E+03  0.40833175085E+03  0.00000000000E+00 0.  1.
         -2   -1    0    0    0  501 -0.00000000000E+00 -0.00000000000E+00 -0.36016262124E+02  0.36016262124E+02  0.00000000000E+00 0. -1.
         23    2    1    2    0    0  0.15049577312E+02 -0.49860352740E+02  0.15698415947E+03  0.18993335130E+03  0.93370804111E+02 0.  0.
          5    1    1    2  502    0  0.21782010441E+02  0.95093643653E+01 -0.72426761115E+01  0.25195490603E+02  0.41800000000E+01 0. -1.
         -5    1    1    2    0  502 -0.36831587753E+02  0.40350988375E+02  0.22257400537E+03  0.22921917107E+03  0.41800000000E+01 0. -1.
        -11    1    3    3    0    0  0.14566308603E+02 -0.76674436524E+02  0.13162487861E+03  0.15302370807E+03  0.00000000000E+00 0.  1.
         11    1    3    3    0    0  0.48326870924E+00  0.26814083784E+02  0.25359280856E+02  0.36909643230E+02  0.00000000000E+00 0. -1.
</event>
<event>
 7    1  0.6988825E-006  0.1398768E+03  0.7561462E-02  0.1213495E+00
         -2   -1    0    0    0  501 -0.00000000000E+00  0.00000000000E+00  0.39118223586E+02  0.39118223586E+02  0.00000000000E+00 0.  1.
          2   -1    0    0  501    0  0.00000000000E+00 -0.00000000000E+00 -0.64190519220E+03  0.64190519220E+03  0.00000000000E+00 0. -1.
         23    2    1    2    0    0  0.94440768755E+02  0.41873733158E+02 -0.16870590422E+03  0.21761606658E+03  0.90678564077E+02 0.  0.
          5    1    1    2  502    0  0.45102598884E+00  0.35431047656E+02 -0.14753464179E+03  0.15178769875E+03  0.41800000000E+01 0. -1.
         -5    1    1    2    0  502 -0.94891794744E+02 -0.77304780814E+02 -0.28654642261E+03  0.31161965046E+03  0.41800000000E+01 0. -1.
        -11    1    3    3    0    0  0.82015398795E+02  0.44060352922E+01 -0.15573339383E+03  0.17606484244E+03  0.00000000000E+00 0. -1.
         11    1    3    3    0    0  0.12425369960E+02  0.37467697866E+02 -0.12972510382E+02  0.41551224141E+02  0.00000000000E+00 0.  1.
</event>
<event>
 7    1  0.6988825E-006  0.1554587E+03  0.7561462E-02  0.1193921E+00
         -2   -1    0    0    0  501 -0.00000000000E+00  0.00000000000E+00  0.55219738646E+02  0.55219738646E+02  0.00000000000E+00 0.  1.
          2   -1    0    0  501    0  0.00000000000E+00 -0.00000000000E+00 -0.65186894013E+03  0.65186894013E+03  0.00000000000E+00 0. -1.
         23    2    1    2    0    0 -0.11508009921E+03 -0.10118559440E+02 -0.84618134407E+02  0.16748786116E+03  0.86868524146E+02 0.  0.
          5    1    1    2  502    0  0.41747085014E+02 -0.56353716089E+02 -0.24103273724E+03  0.25106336500E+03  0.41800000000E+01 0.  1.
         -5    1    1    2    0  502  0.73333014196E+02  0.66472275528E+02 -0.27099832984E+03  0.28853745262E+03  0.41800000000E+01 0.  1.
        -11    1    3    3    0    0 -0.88269311129E+02  0.30099879424E+02 -0.71175697067E+02  0.11731774751E+03  0.00000000000E+00 0.  1.
         11    1    3    3    0    0 -0.26810788081E+02 -0.40218438863E+02 -0.13442437340E+02  0.50170113651E+02  0.00000000000E+00 0. -1.
</event>
<event>
 7    1  0.6988825E-006  0.8902140E+02  0.7561462E-02  0.1305239E+00
          2   -1    0    0  501    0  0.00000000000E+00  0.00000000000E+00  0.16497060477E+04  0.16497060477E+04  0.00000000000E+00 0. -1.
         -2   -1    0    0    0  501 -0.00000000000E+00 -0.00000000000E+00 -0.16499645635E+02  0.16499645635E+02  0.00000000000E+00 0.  1.
         23    2    1    2    0    0 -0.12078619995E+02 -0.33541144675E+02  0.15840682459E+03  0.18624810731E+03  0.91239980011E+02 0.  0.
          5    1    1    2  502    0 -0.42967629192E+01 -0.37115829364E+02  0.23113217584E+03  0.23417002812E+03  0.41800000000E+01 0. -1.
         -5    1    1    2    0  502  0.16375382914E+02  0.70656974039E+02  0.12436674016E+04  0.12457875579E+04  0.41800000000E+01 0.  1.
        -11    1    3    3    0    0  0.14103542952E+02  0.97903619414E+01 -0.26947487522E+01  0.17378802651E+02  0.00000000000E+00 0.  1.
         11    1    3    3    0    0 -0.26182162947E+02 -0.43331506616E+02  0.16110157334E+03  0.16886930466E+03  0.00000000000E+00 0. -1.
</event>
<event>
 7    1  0.6988825E-006  0.1037519E+03  0.7561462E-02  0.1272598E+00
          1   -1    0    0  501    0  0.00000000000E+00  0.00000000000E+00  0.32575409891E+03  0.32575409891E+03  0.00000000000E+00 0. -1.
         -1   -1    0    0    0  501 -0.00000000000E+00 -0.00000000000E+00 -0.65478857809E+02  0.65478857809E+02  0.00000000000E+00 0.  1.
         23    2    1    2    0    0 -0.48358465642E+02 -0.13605145739E+00  0.30421873394E+01  0.10113921623E+03  0.88776835077E+02 0.  0.
          5    1    1    2  502    0  0.90399903933E+02  0.34543102203E+00  0.15516634485E+03  0.17962830771E+03  0.41800000000E+01 0.  1.
         -5    1    1    2    0  502 -0.42041438290E+02 -0.20937956464E+00  0.10206670891E+03  0.11046543279E+03  0.41800000000E+01 0.  1.
        -11    1    3    3    0    0 -0.45354404073E+02  0.23396696025E+02 -0.30951328008E+02  0.59685945240E+02  0.00000000000E+00 0.  1.
         11    1    3    3    0    0 -0.30040615692E+01 -0.23532747482E+02  0.33993515348E+02  0.41453270989E+02  0.00000000000E+00 0. -1.
</event>
<event>
 7    1  0.6988825E-006  0.6778097E+02  0.7561462E-02  0.1367806E+00
         -1   -1    0    0    0  501 -0.00000000000E+00  0.00000000000E+00  0.30761286641E+03  0.30761286641E+03  0.00000000000E+00 0.  1.
          1   -1    0    0  501    0  0.00000000000E+00 -0.00000000000E+00 -0.35716922413E+02  0.35716922413E+02  0.00000000000E+00 0. -1.
         23    2    1    2    0    0 -0.12701652108E+02  0.35468363522E+02  0.14839605769E+03  0.16355409741E+03  0.57525786103E+02 0.  0.
          5    1    1    2  502    0 -0.23540272024E+02 -0.26128453263E+02  0.13565648068E+03  0.14020340091E+03  0.41800000000E+01 0. -1.
         -5    1    1    2    0  502  0.36241924132E+02 -0.93399102597E+01 -0.12156594370E+02  0.39572290496E+02  0.41800000000E+01 0. -1.
        -11    1    3    3    0    0 -0.19977812992E+02 -0.56247659508E+01  0.86138058228E+02  0.88603138089E+02  0.00000000000E+00 0.  1.
         11    1    3    3    0    0  0.72761608844E+01  0.41093129473E+02  0.62257999458E+02  0.74950959324E+02  0.00000000000E+00 0. -1.
</event>
<event>
 7    1  0.6988825E-006  0.4064954E+03  0.7561462E-02  0.1041553E+00
          1   -1    0    0  501    0  0.00000000000E+00  0.00000000000E+00  0.25766061911E+04  0.25766061911E+04  0.00000000000E+00 0. -1.
         -1   -1    0    0    0  501 -0.00000000000E+00 -0.00000000000E+00 -0.94639143704E+02  0.94639143704E+02  0.00000000000E+00 0.  1.
         23    2    1    2    0    0  0.66584835439E+01 -0.39139437715E+03  0.49947841963E+03  0.64129618565E+03  0.92456542179E+02 0.  0.
          5    1    1    2  502    0  0.48711449527E+02  0.29957351727E+03  0.17165042964E+04  0.17431355569E+04  0.41800000000E+01 0. -1.
         -5    1    1    2    0  502 -0.55369933071E+02  0.91820859885E+02  0.26598433131E+03  0.28681359226E+03  0.41800000000E+01 0.  1.
        -11    1    3    3    0    0  0.25672469425E+02 -0.37804742301E+03  0.47338795674E+03  0.60636217504E+03  0.00000000000E+00 0.  1.
         11    1    3    3    0    0 -0.19013985881E+02 -0.13346954140E+02  0.26090462884E+02  0.34934010612E+02  0.00000000000E+00 0. -1.
</event>
<event>
 7    1  0.6988825E-006  0.1695020E+03  0.7561462E-02  0.1178368E+00
         -2   -1    0    0    0  501 -0.00000000000E+00  0.00000000000E+00  0.15344334840E+02  0.15344334840E+02  0.00000000000E+00 0.  1.
          2   -1    0    0  501    0  0.00000000000E+00 -0.00000000000E+00 -0.32627923245E+04  0.32627923245E+04  0.00000000000E+00 0. -1.
         23    2    1    2    0    0  0.11041004181E+03 -0.10181631940E+03 -0.63577544185E+03  0.65916094190E+03  0.87896499523E+02 0.  0.
          5    1    1    2  502    0 -0.11674348017E+03  0.10479919077E+03 -0.16909554760E+04  0.16982225428E+04  0.41800000000E+01 0.  1.
         -5    1    1    2    0  502  0.63334383611E+01 -0.29828713698E+01 -0.92071707182E+03  0.92075317469E+03  0.41800000000E+01 0.  1.
        -11    1    3    3    0    0  0.12550754387E+03 -0.94674836042E+02 -0.58120595144E+03  0.60209287169E+03  0.00000000000E+00 0. -1.
         11    1    3    3    0    0 -0.15097502066E+02 -0.71414833574E+01 -0.54569490417E+02  0.57068070211E+02  0.00000000000E+00 0.  1.
</event>
<event>
 7    1  0.6988825E-006  0.2808140E+03  0.7561462E-02  0.1095245E+00
          2   -1    0    0  501    0  0.00000000000E+00  0.00000000000E+00  0.69000290323E+03  0.69000290323E+03  0.00000000000E+00 0. -1.
         -2   -1    0    0    0  501 -0.00000000000E+00 -0.00000000000E+00 -0.13146206966E+03  0.13146206966E+03  0.00000000000E+00 0.  1.
         23    2    1    2    0    0  0.19891777423E+03  0.17491746601E+03  0.40276521018E+03  0.48968444380E+03  0.86061833303E+02 0.  0.
          5    1    1    2  502    0 -0.66392149612E+02 -0.12886319717E+03  0.11652026286E+03  0.18603248419E+03  0.41800000000E+01 0. -1.
         -5    1    1    2    0  502 -0.13252562462E+03 -0.46054268840E+02  0.39255360525E+02  0.14574804489E+03  0.41800000000E+01 0. -1.
        -11    1    3    3    0    0 -0.42043732803E+01  0.20938386688E+02  0.16899572818E+02  0.27233955886E+02  0.00000000000E+00 0.  1.
         11    1    3    3    0    0  0.20312214751E+03  0.15397907932E+03  0.38586563736E+03  0.46245048792E+03  0.00000000000E+00 0. -1.
</event>
<event>
 7    1  0.6988825E-006  0.1856661E+03  0.7561462E-02  0.1162429E+00
         -2   -1    0    0    0  501 -0.00000000000E+00  0.00000000000E+00  0.34624980694E+02  0.34624980694E+02  0.00000000000E+00 0.  1.
          2   -1    0    0  501    0  0.00000000000E+00 -0.00000000000E+00 -0.13963844942E+04  0.13963844942E+04  0.00000000000E+00 0. -1.
         23    2    1    2    0    0 -0.12526213025E+03  0.53628015478E+02 -0.39744512879E+03  0.42988064605E+03  0.90929500859E+02 0.  0.
          5    1    1    2  502    0 -0.36403596477E+02 -0.46953658091E+02 -0.59410859120E+03  0.59708655854E+03  0.41800000000E+01 0. -1.
         -5    1    1    2    0  502  0.16166572673E+03 -0.66743573871E+01 -0.37020579349E+03  0.40404227029E+03  0.41800000000E+01 0.  1.
        -11    1    3    3    0    0 -0.74823542252E+02 -0.19670590994E+01 -0.28512306735E+03  0.29478398079E+03  0.00000000000E+00 0. -1.
         11    1    3    3    0    0 -0.50438588003E+02  0.55595074577E+02 -0.11232206145E+03  0.13509666526E+03  0.00000000000E+00 0.  1.
</event>
<event>
 7    1  0.6988825E-006  0.1213958E+03  0.7561462E-02  0.1240812E+00
          2   -1    0    0  501    0  0.00000000000E+00  0.00000000000E+00  0.60607025787E+03  0.60607025787E+03  0.00000000000E+00 0.  1.
         -2   -1    0    0    0  501 -0.00000000000E+00 -0.00000000000E+00 -0.46782904466E+02  0.46782904466E+02  0.00000000000E+00 0. -1.
         23    2    1    2    0    0 -0.90742847525E+02  0.35162055036E+02  0.15658009188E+03  0.20692767265E+03  0.93973943424E+02 0.  0.
          5    1    1    2  502    0  0.74422556753E+02 -0.51954836777E+02  0.76284977049E+02  0.11863765061E+03  0.41800000000E+01 0. -1.
         -5    1    1    2    0  502  0.16320290772E+02  0.16792781741E+02  0.32642228447E+03  0.32728783908E+03  0.41800000000E+01 0.  1.
        -11    1    3    3    0    0 -0.52741251384E+02 -0.23907722623E+02  0.10455863358E+03  0.11952291268E+03  0.00000000000E+00 0.  1.
         11    1    3    3    0    0 -0.38001596141E+02  0.59069777659E+02  0.52021458303E+02  0.87404759972E+02  0.00000000000E+00 0. -1.
</event>
<event>
 7    1  0.6988825E-006  0.8683936E+02  0.7561462E-02  0.1310691E+00
          2   -1    0    0  501    0  0.00000000000E+00  0.00000000000E+00  0.11112689642E+03  0.11112689642E+03  0.00000000000E+00 0. -1.
         -2   -1    0    0    0  501 -0.00000000000E+00 -0.00000000000E+00 -0.97623863312E+02  0.97623863312E+02  0.00000000000E+00 0.  1.
         23    2    1    2    0    0  0.71849946809E+01 -0.19939560274E+02 -0.74250870708E+01  0.80164697773E+02  0.76954770083E+02 0.  0.
          5    1    1    2  502    0 -0.45478651709E+02  0.29437024405E+02 -0.31524910327E+02  0.62818297798E+02  0.41800000000E+01 0.  1.
         -5    1    1    2    0  502  0.38293657028E+02 -0.94974641306E+01  0.52453030502E+02  0.65767764158E+02  0.41800000000E+01 0.  1.
        -11    1    3    3    0    0  0.34455631067E+02 -0.34496191623E+02 -0.69450223722E+01  0.49248462762E+02  0.00000000000E+00 0. -1.
         11    1    3    3    0    0 -0.27270636386E+02  0.14556631349E+02 -0.48006469861E+00  0.30916235010E+02  0.00000000000E+00 0.  1.
</event>
<event>
 7    1  0.6988825E-006  0.1130692E+03  0.7561462E-02  0.1254989E+00
         -1   -1    0    0    0  501 -0.00000000000E+00  0.00000000000E+00  0.58074110855E+02  0.58074110855E+02  0.00000000000E+00 0.  1.
          1   -1    0    0  501    0  0.00000000000E+00 -0.00000000000E+00 -0.39152057484E+03  0.39152057484E+03  0.00000000000E+00 0. -1.
         23    2    1    2    0    0  0.75167308165E+02 -0.28208599213E+02 -0.58894233135E+02  0.13738898303E+03  0.94664421373E+02 0.  0.
          5    1    1    2  502    0 -0.16018336762E+02  0.58932309830E+02 -0.53540786457E+02  0.81324611705E+02  0.41800000000E+01 0. -1.
         -5    1    1    2    0  502 -0.59148971402E+02 -0.30723710617E+02 -0.22101144439E+03  0.23088109096E+03  0.41800000000E+01 0. -1.
        -11    1    3    3    0    0  0.69750114873E+02 -0.33942518717E+00 -0.76859911411E+02  0.10379132775E+03  0.00000000000E+00 0. -1.
         11    1    3    3    0    0  0.54171932919E+01 -0.27869174026E+02  0.17965678276E+02  0.33597655275E+02  0.00000000000E+00 0.  1.
</event>
<event>
 7    1  0.6988825E-006  0.1499021E+03  0.7561462E-02  0.1200593E+00
         -2   -1    0    0    0  501 -0.00000000000E+00  0.00000000000E+00  0.11353424874E+03  0.11353424874E+03  0.00000000000E+00 0.  1.
          2   -1    0    0  501    0  0.00000000000E+00 -0.00000000000E+00 -0.25297156070E+03  0.25297156070E+03  0.00000000000E+00 0. -1.
         23    2    1    2    0    0 -0.58639689710E+02  0.97510295865E+02  0.37393684669E+01  0.14493652393E+03  0.89698060641E+02 0.  0.
          5    1    1    2  502    0  0.33144096773E+02  0.22445805769E+02 -0.63776924406E+02  0.75414281368E+02  0.41800000000E+01 0.  1.
         -5    1    1    2    0  502  0.25495592938E+02 -0.11995610163E+03 -0.79399756021E+02  0.14615500414E+03  0.41800000000E+01 0.  1.
        -11    1    3    3    0    0 -0.35299096094E+02  0.10622467960E+03  0.21960642110E+02  0.11407005980E+03  0.00000000000E+00 0.  1.
         11    1    3    3    0    0 -0.23340593617E+02 -0.87143837381E+01 -0.18221273643E+02  0.30866464123E+02  0.00000000000E+00 0. -1.
</event>
<event>
 7    1  0.6988825E-006  0.9756081E+02  0.7561462E-02  0.1285510E+00
          2   -1    0    0  501    0  0.00000000000E+00  0.00000000000E+00  0.11975982352E+03  0.11975982352E+03  0.00000000000E+00 0. -1.
         -2   -1    0    0    0  501 -0.00000000000E+00 -0.00000000000E+00 -0.15772691805E+03  0.15772691805E+03  0.00000000000E+00 0.  1.
         23    2    1    2    0    0 -0.37907803328E+01 -0.84462425414E+02 -0.20356345140E+02  0.12548012200E+03  0.90457774163E+02 0.  0.
          5    1    1    2  502    0 -0.21068248366E+02  0.69322876733E+02 -0.64212517060E+02  0.96903313024E+02  0.41800000000E+01 0.  1.
         -5    1    1    2    0  502  0.24859028699E+02  0.15139548680E+02  0.46601767669E+02  0.55103306543E+02  0.41800000000E+01 0.  1.
        -11    1    3    3    0    0  0.16849249323E+02 -0.52115536686E+02  0.29781147796E+02  0.62344551734E+02  0.00000000000E+00 0. -1.
         11    1    3    3    0    0 -0.20640029655E+02 -0.32346888727E+02 -0.50137492936E+02  0.63135570263E+02  0.00000000000E+00 0.  1.
</event>
<event>
 7    1  0.6988825E-006  0.1161341E+03  0.7561462E-02  0.1249614E+00
         -1   -1    0    0    0  501 -0.00000000000E+00  0.00000000000E+00  0.33959960193E+03  0.33959960193E+03  0.00000000000E+00 0. -1.
          1   -1    0    0  501    0  0.00000000000E+00 -0.00000000000E+00 -0.60013146967E+02  0.60013146967E+02  0.00000000000E+00 0.  1.
         23    2    1    2    0    0 -0.42385122256E+02  0.71504408677E+02  0.74266005204E+02  0.14522491239E+03  0.93088434298E+02 0.  0.
          5    1    1    2  502    0 -0.23468063260E+02  0.23267587298E+02  0.61504879148E+02  0.69946073306E+02  0.41800000000E+01 0. -1.
         -5    1    1    2    0  502  0.65853185516E+02 -0.94771995976E+02  0.14381557061E+03  0.18444176321E+03  0.41800000000E+01 0. -1.
        -11    1    3    3    0    0 -0.29058954236E+02  0.41674636569E+02 -0.12662420415E+02  0.52359670026E+02  0.00000000000E+00 0.  1.
         11    1    3    3    0    0 -0.13326168020E+02  0.29829772108E+02  0.86928425620E+02  0.92865242361E+02  0.00000000000E+00 0. -1.
</event>
<event>
 7    1  0.6988825E-006  0.1437555E+03  0.7561462E-02  0.1208363E+00
          3   -1    0    0  501    0  0.00000000000E+00  0.00000000000E+00  0.15658891750E+03  0.15658891750E+03  0.00000000000E+00 0.  1.
         -3   -1    0    0    0  501 -0.00000000000E+00 -0.00000000000E+00 -0.16109368648E+03  0.16109368648E+03  0.00000000000E+00 0. -1.
         23    2    1    2    0    0 -0.52536864429E+02  0.10227972132E+03 -0.16369278035E+02  0.14736442629E+03  0.90703127586E+02 0.  0.
          5    1    1    2  502    0  0.17984244440E+02 -0.11372794048E+03 -0.25480840370E+02  0.11800094542E+03  0.41800000000E+01 0. -1.
         -5    1    1    2    0  502  0.34552619989E+02  0.11448219160E+02  0.37345349424E+02  0.52317232282E+02  0.41800000000E+01 0. -1.
        -11    1    3    3    0    0 -0.58008058167E+02  0.34166160960E+02  0.19634328551E+02  0.70126801044E+02  0.00000000000E+00 0.  1.
         11    1    3    3    0    0  0.54711937378E+01  0.68113560359E+02 -0.36003606586E+02  0.77237625241E+02  0.00000000000E+00 0. -1.
</event>
<event>
 7    1  0.6988825E-006  0.1257188E+03  0.7561462E-02  0.1233950E+00
         -2   -1    0    0    0  501 -0.00000000000E+00  0.00000000000E+00  0.10586254571E+02  0.10586254571E+02  0.00000000000E+00 0.  1.
          2   -1    0    0  501    0  0.00000000000E+00 -0.00000000000E+00 -0.29895234327E+04  0.29895234327E+04  0.00000000000E+00 0. -1.
         23    2    1    2    0    0  0.91288007571E+02 -0.36334721329E+02 -0.60784642411E+03  0.62368955843E+03  0.99285838357E+02 0.  0.
          5    1    1    2  502    0 -0.61079573171E+02  0.54220370255E+02 -0.67148437861E+03  0.67644608501E+03  0.41800000000E+01 0.  1.
         -5    1    1    2    0  502 -0.30208434399E+02 -0.17885648926E+02 -0.16996063754E+04  0.16999740438E+04  0.41800000000E+01 0.  1.
        -11    1    3    3    0    0  0.88907812877E+02 -0.62087091368E+02 -0.54581024455E+03  0.55647841751E+03  0.00000000000E+00 0. -1.
         11    1    3    3    0    0  0.23801946942E+01  0.25752370039E+02 -0.62036179562E+02  0.67211140922E+02  0.00000000000E+00 0.  1.
</event>
<event>
 7    1  0.6988825E-006  0.1187668E+03  0.7561462E-02  0.1245145E+00
          3   -1    0    0  501    0  0.00000000000E+00  0.00000000000E+00  0.60024602881E+03  0.60024602881E+03  0.00000000000E+00 0. -1.
         -3   -1    0    0    0  501 -0.00000000000E+00 -0.00000000000E+00 -0.40634818614E+02  0.40634818614E+02  0.00000000000E+00 0.  1.
         23    2    1    2    0    0  0.23973816796E+02  0.67612508731E+02  0.74594398632E+02  0.13485390003E+03  0.86458399346E+02 0.  0.
          5    1    1    2  502    0 -0.43168726553E+02  0.12005894447E+02  0.71694279080E+02  0.84647637335E+02  0.41800000000E+01 0. -1.
         -5    1    1    2    0  502  0.19194909757E+02 -0.79618403178E+02  0.41332253248E+03  0.42137931005E+03  0.41800000000E+01 0. -1.
        -11    1    3    3    0    0  0.50781118595E+02  0.66531167951E+02  0.66291854001E+02  0.10676950979E+03  0.00000000000E+00 0.  1.
         11    1    3    3    0    0 -0.26807301799E+02  0.10813407794E+01  0.83025446311E+01  0.28084390237E+02  0.00000000000E+00 0. -1.
</event>
<event>
 7    1  0.9233489E-006  0.3948235E+03  0.7561462E-02  0.1045587E+00
          2   -1    0    0  501    0  0.00000000000E+00  0.00000000000E+00  0.10182830311E+04  0.10182830311E+04  0.00000000000E+00 0. -1.
         -2   -1    0    0    0  501 -0.00000000000E+00 -0.00000000000E+00 -0.17927925706E+03  0.17927925706E+03  0.00000000000E+00 0.  1.
         23    2    1    2    0    0 -0.39389159470E+03 -0.11791288137E+02  0.24192640194E+03  0.47131317807E+03  0.91203645840E+02 0.  0.
          5    1    1    2  502    0  0.87059144674E+02  0.10323010431E+02  0.23936487485E+03  0.25494876922E+03  0.41800000000E+01 0. -1.
         -5    1    1    2    0  502  0.30683245003E+03  0.14682777060E+01  0.35771249728E+03  0.47130034090E+03  0.41800000000E+01 0. -1.
        -11    1    3    3    0    0 -0.26347661363E+03  0.49885790142E+01  0.20744339110E+03  0.33537676181E+03  0.00000000000E+00 0. -1.
         11    1    3    3    0    0 -0.13041498107E+03 -0.16779867151E+02  0.34483010842E+02  0.13593641626E+03  0.00000000000E+00 0.  1.
</event>
<event>
 7    1  0.6988825E-006  0.1876958E+03  0.7561462E-02  0.1160556E+00
         -1   -1    0    0    0  501 -0.00000000000E+00  0.00000000000E+00  0.38385578222E+03  0.38385578222E+03  0.00000000000E+00 0.  1.
          1   -1    0    0  501    0  0.00000000000E+00 -0.00000000000E+00 -0.15660091580E+03  0.15660091580E+03  0.00000000000E+00 0. -1.
         23    2    1    2    0    0 -0.12454413134E+03 -0.13623515592E+03  0.24109800092E+03  0.31704839399E+03  0.91215019164E+02 0.  0.
          5    1    1    2  502    0  0.75201402613E+01  0.31530005377E+02 -0.52312504700E+02  0.61682771474E+02  0.41800000000E+01 0.  1.
         -5    1    1    2    0  502  0.11702399107E+03  0.10470515054E+03  0.38469370205E+02  0.16172553256E+03  0.41800000000E+01 0.  1.
        -11    1    3    3    0    0 -0.57531029706E+02 -0.77469076459E+02  0.19297651990E+03  0.21575730444E+03  0.00000000000E+00 0.  1.
         11    1    3    3    0    0 -0.67013101630E+02 -0.58766079462E+02  0.48121481020E+02  0.10129108954E+03  0.00000000000E+00 0. -1.
</event>
<event>
 7    1  0.6988825E-006  0.1031412E+03  0.7561462E-02  0.1273826E+00
          2   -1    0    0  501    0  0.00000000000E+00  0.00000000000E+00  0.34953296443E+03  0.34953296443E+03  0.00000000000E+00 0. -1.
         -2   -1    0    0    0  501 -0.00000000000E+00 -0.00000000000E+00 -0.59762854832E+02  0.59762854832E+02  0.00000000000E+00 0.  1.
         23    2    1    2    0    0 -0.40978278365E+02  0.70892343546E+02  0.65051008751E+02  0.13938789328E+03  0.92154258620E+02 0.  0.
          5    1    1    2  502    0  0.59404863492E+02 -0.79411165549E+02  0.91220446576E+02  0.13480991541E+03  0.41800000000E+01 0.  1.
         -5    1    1    2    0  502 -0.18426585127E+02  0.85188220033E+01  0.13349865427E+03  0.13509801057E+03  0.41800000000E+01 0.  1.
        -11    1    3    3    0    0 -0.20281731289E+02  0.59083397684E+02  0.86924355965E+02  0.10704223543E+03  0.00000000000E+00 0. -1.
         11    1    3    3    0    0 -0.20696547076E+02  0.11808945861E+02 -0.21873347214E+02  0.32345657847E+02  0.00000000000E+00 0.  1.
</event>
<event>
 7    1  0.6988825E-006  0.1221199E+03  0.7561462E-02  0.1239640E+00
         -1   -1    0    0    0  501 -0.00000000000E+00  0.00000000000E+00  0.31282114321E+03  0.31282114321E+03  0.00000000000E+00 0.  1.
          1   -1    0    0  501    0  0.00000000000E+00 -0.00000000000E+00 -0.52277116919E+02  0.52277116919E+02  0.00000000000E+00 0. -1.
         23    2    1    2    0    0  0.46568819789E+02  0.42558211974E+02  0.14801889313E+03  0.18540886003E+03  0.92124894963E+02 0.  0.
          5    1    1    2  502    0  0.34779522880E+02  0.17242290222E+02  0.31107829555E+02  0.49920749629E+02  0.41800000000E+01 0. -1.
         -5    1    1    2    0  502 -0.81348342669E+02 -0.59800502196E+02  0.81417303605E+02  0.12976865047E+03  0.41800000000E+01 0. -1.
        -11    1    3    3    0    0 -0.23370375034E+02  0.19702063945E+02  0.78259399665E+02  0.84017137472E+02  0.00000000000E+00 0.  1.
         11    1    3    3    0    0  0.69939194823E+02  0.22856148028E+02  0.69759493462E+02  0.10139172256E+03  0.00000000000E+00 0. -1.
</event>
<event>
 7    1  0.6988825E-006  0.2474991E+03  0.7561462E-02  0.1114896E+00
          1   -1    0    0  501    0  0.00000000000E+00  0.00000000000E+00  0.29117644206E+03  0.29117644206E+03  0.00000000000E+00 0. -1.
         -1   -1    0    0    0  501 -0.00000000000E+00 -0.00000000000E+00 -0.24593870293E+03  0.24593870293E+03  0.00000000000E+00 0.  1.
         23    2    1    2    0    0  0.80228175129E+02 -0.21838692489E+03 -0.52706470005E+02  0.25539060114E+03  0.91197467758E+02 0.  0.
          5    1    1    2  502    0 -0.72100569176E+02  0.81160705703E+02  0.94753921813E+02  0.14415731103E+03  0.41800000000E+01 0. -1.
         -5    1    1    2    0  502 -0.81276059526E+01  0.13722621918E+03  0.31902873254E+01  0.13756723281E+03  0.41800000000E+01 0. -1.
        -11    1    3    3    0    0  0.16490575538E+02 -0.16460694478E+03 -0.46099989816E+02  0.17173408052E+03  0.00000000000E+00 0.  1.
         11    1    3    3    0    0  0.63737599591E+02 -0.53779980105E+02 -0.66064801888E+01  0.83656520619E+02  0.00000000000E+00 0. -1.
</event>
<event>
 7    1  0.6988825E-006  0.1680128E+03  0.7561462E-02  0.1179936E+00
         -2   -1    0    0    0  501 -0.00000000000E+00  0.00000000000E+00  0.17098430223E+03  0.17098430223E+03  0.00000000000E+00 0.  1.
          2   -1    0    0  501    0  0.00000000000E+00 -0.00000000000E+00 -0.19528421749E+03  0.19528421749E+03  0.00000000000E+00 0. -1.
         23    2    1    2    0    0  0.80223688448E+02  0.12088037618E+03 -0.31278896486E+02  0.17457899268E+03  0.91932310892E+02 0.  0.
          5    1    1    2  502    0 -0.66424808165E+02 -0.14523880390E+03  0.19095377198E+02  0.16089956845E+03  0.41800000000E+01 0. -1.
         -5    1    1    2    0  502 -0.13798880282E+02  0.24358427718E+02 -0.12116395976E+02  0.30789958581E+02  0.41800000000E+01 0. -1.
        -11    1    3    3    0    0  0.57609642130E+02  0.60783742009E+02 -0.61213578081E+02  0.10373348688E+03  0.00000000000E+00 0. -1.
         11    1    3    3    0    0  0.22614046317E+02  0.60096634174E+02  0.29934681595E+02  0.70845505800E+02  0.00000000000E+00 0.  1.
</event>
<event>
 7    1  0.6988825E-006  0.1569898E+03  0.7561462E-02  0.1192138E+00
         -2   -1    0    0    0  501 -0.00000000000E+00  0.00000000000E+00  0.17071248065E+03  0.17071248065E+03  0.00000000000E+00 0.  1.
          2   -1    0    0  501    0  0.00000000000E+00 -0.00000000000E+00 -0.27738327162E+03  0.27738327162E+03  0.00000000000E+00 0. -1.
         23    2    1    2    0    0  0.99552009948E+02  0.11113502249E+03  0.65579679639E+02  0.18813681955E+03  0.93984959329E+02 0.  0.
          5    1    1    2  502    0 -0.52393234219E+02 -0.10081417311E+03 -0.17795062904E+03  0.21116923845E+03  0.41800000000E+01 0. -1.
         -5    1    1    2    0  502 -0.47158775729E+02 -0.10320849379E+02  0.57001584313E+01  0.48789694263E+02  0.41800000000E+01 0. -1.
        -11    1    3    3    0    0  0.17513832978E+02  0.38348513434E+02  0.66173981972E+02  0.78462339490E+02  0.00000000000E+00 0. -1.
         11    1    3    3    0    0  0.82038176970E+02  0.72786509058E+02 -0.59430233281E+00  0.10967448006E+03  0.00000000000E+00 0.  1.
</event>
<event>
 7    1  0.6988825E-006  0.2563750E+03  0.7561462E-02  0.1109341E+00
         -2   -1    0    0    0  501 -0.00000000000E+00  0.00000000000E+00  0.11355096049E+03  0.11355096049E+03  0.00000000000E+00 0.  1.
          2   -1    0    0  501    0  0.00000000000E+00 -0.00000000000E+00 -0.66846415461E+03  0.66846415461E+03  0.00000000000E+00 0. -1.
         23    2    1    2    0    0 -0.17514356431E+03 -0.16335224188E+03 -0.38548567303E+03  0.46308959997E+03  0.92160460316E+02 0.  0.
          5    1    1    2  502    0  0.45919224900E+02  0.11034328902E+03 -0.33994792072E+02  0.12432753088E+03  0.41800000000E+01 0. -1.
         -5    1    1    2    0  502  0.12922433941E+03  0.53008952856E+02 -0.13543272903E+03  0.19459798424E+03  0.41800000000E+01 0. -1.
        -11    1    3    3    0    0 -0.74879305025E+02 -0.18286004192E+02 -0.85529436630E+02  0.11513719121E+03  0.00000000000E+00 0. -1.
         11    1    3    3    0    0 -0.10026425929E+03 -0.14506623769E+03 -0.29995623640E+03  0.34795240876E+03  0.00000000000E+00 0.  1.
</event>
<event>
 7    1  0.6988825E-006  0.1514962E+03  0.7561462E-02  0.1198647E+00
         -2   -1    0    0    0  501 -0.00000000000E+00  0.00000000000E+00  0.98619975908E+01  0.98619975908E+01  0.00000000000E+00 0.  1.
          2   -1    0    0  501    0  0.00000000000E+00 -0.00000000000E+00 -0.26078574063E+04  0.26078574063E+04  0.00000000000E+00 0. -1.
         23    2    1    2    0    0 -0.10227195378E+03 -0.28272476409E+02 -0.79151891243E+03  0.80381096657E+03  0.91383782924E+02 0.  0.
          5    1    1    2  502    0 -0.10296288531E+02  0.47444180517E+02 -0.63803422490E+03  0.63989226310E+03  0.41800000000E+01 0.  1.
         -5    1    1    2    0  502  0.11256824231E+03 -0.19171704108E+02 -0.11684422713E+04  0.11740161742E+04  0.41800000000E+01 0.  1.
        -11    1    3    3    0    0 -0.67921179730E+02  0.28487492144E+02 -0.40720743466E+03  0.41381483626E+03  0.00000000000E+00 0.  1.
         11    1    3    3    0    0 -0.34350774053E+02 -0.56759968554E+02 -0.38431147778E+03  0.38999613031E+03  0.00000000000E+00 0. -1.
</event>
<event>
 7    1  0.7006372E-006  0.6662810E+02  0.7561462E-02  0.1371950E+00
          1   -1    0    0  501    0  0.00000000000E+00  0.00000000000E+00  0.67067975066E+03  0.67067975066E+03  0.00000000000E+00 0. -1.
         -1   -1    0    0    0  501 -0.00000000000E+00 -0.00000000000E+00 -0.17604657789E+02  0.17604657789E+02  0.00000000000E+00 0.  1.
         23    2    1    2    0    0  0.13544359861E+02  0.31763666689E+02  0.21752648642E+03  0.23381591441E+03  0.78483943137E+02 0.  0.
          5    1    1    2  502    0  0.11360720838E+02 -0.30779616671E+02  0.21060344739E+02  0.39210474378E+02  0.41800000000E+01 0. -1.
         -5    1    1    2    0  502 -0.24905080699E+02 -0.98405001812E+00  0.41448826171E+03  0.41525801967E+03  0.41800000000E+01 0. -1.
        -11    1    3    3    0    0 -0.25317712862E+02  0.98812365420E+00  0.27340343217E+02  0.37275425419E+02  0.00000000000E+00 0.  1.
         11    1    3    3    0    0  0.38862072723E+02  0.30775543035E+02  0.19018614320E+03  0.19654048899E+03  0.00000000000E+00 0. -1.
</event>
<event>
 7    1  0.6988825E-006  0.1315425E+03  0.7561462E-02  0.1225185E+00
          1   -1    0    0  501    0  0.00000000000E+00  0.00000000000E+00  0.22800169040E+03  0.22800169040E+03  0.00000000000E+00 0. -1.
         -1   -1    0    0    0  501 -0.00000000000E+00 -0.00000000000E+00 -0.93307241031E+02  0.93307241031E+02  0.00000000000E+00 0.  1.
         23    2    1    2    0    0  0.82096616556E+02 -0.59890943725E+01  0.46391848441E+01  0.12296662455E+03  0.91233464344E+02 0.  0.
          5    1    1    2  502    0 -0.34823641333E+02 -0.58141656442E+02  0.43565526970E+02  0.80675682518E+02  0.41800000000E+01 0.  1.
         -5    1    1    2    0  502 -0.47272975222E+02  0.64130750814E+02  0.86489737552E+02  0.11766662436E+03  0.41800000000E+01 0.  1.
        -11    1    3    3    0    0 -0.16387239386E+02 -0.41374437460E+01 -0.14917032751E+02  0.22542801990E+02  0.00000000000E+00 0.  1.
         11    1    3    3    0    0  0.98483855942E+02 -0.18516506265E+01  0.19556217595E+02  0.10042382256E+03  0.00000000000E+00 0. -1.
</event>
<event>
 7    1  0.6988825E-006  0.1130478E+03  0.7561462E-02  0.1255028E+00
          2   -1    0    0  501    0  0.00000000000E+00  0.00000000000E+00  0.19849195896E+03  0.19849195896E+03  0.00000000000E+00 0. -1.
         -2   -1    0    0    0  501 -0.00000000000E+00 -0.00000000000E+00 -0.94063960577E+02  0.94063960577E+02  0.00000000000E+00 0.  1.
         23    2    1    2    0    0  0.11221746431E+02  0.81293838226E+02  0.36689749223E+02  0.12833131601E+03  0.91586970931E+02 0.  0.
          5    1    1    2  502    0  0.24479634025E+02 -0.17815393967E+02 -0.29624878459E+02  0.42564616384E+02  0.41800000000E+01 0. -1.
         -5    1    1    2    0  502 -0.35701380456E+02 -0.63478444259E+02  0.97363127622E+02  0.12165998715E+03  0.41800000000E+01 0. -1.
        -11    1    3    3    0    0  0.50685972795E+02  0.34223666474E+02  0.23421647256E+02  0.65489699536E+02  0.00000000000E+00 0. -1.
         11    1    3    3    0    0 -0.39464226364E+02  0.47070171751E+02  0.13268101967E+02  0.62841616474E+02  0.00000000000E+00 0.  1.
</event>
<event>
 6    1  0.6988825E-006  0.7221498E+02  0.7561462E-02  0.1352719E+00
          2   -1    0    0  501    0  0.00000000000E+00  0.00000000000E+00  0.10118963126E+03  0.10118963126E+03  0.00000000000E+00 0. -1.
         -2   -1    0    0    0  501 -0.00000000000E+00 -0.00000000000E+00 -0.89607397309E+02  0.89607397309E+02  0.00000000000E+00 0.  1.
          5    1    1    2  502    0  0.36503697838E+02 -0.36288933058E+02  0.58976263057E+02  0.78390551870E+02  0.41800000000E+01 0. -1.
         -5    1    1    2    0  502 -0.48614202768E+02  0.25916458513E+02 -0.51172394771E+01  0.55485692503E+02  0.41800000000E+01 0.  1.
        -11    1    1    2    0    0 -0.68357340854E+01 -0.84253581920E+01 -0.80074481468E+01  0.13484552161E+02  0.00000000000E+00 0. -1.
         11    1    1    2    0    0  0.18946239016E+02  0.18797832738E+02 -0.34269341478E+02  0.43436232040E+02  0.00000000000E+00 0.  1.
</event>
<event>
 7    1  0.6988825E-006  0.1897307E+03  0.7561462E-02  0.1158704E+00
         -2   -1    0    0    0  501 -0.00000000000E+00  0.00000000000E+00  0.12775068873E+03  0.12775068873E+03  0.00000000000E+00 0.  1.
          2   -1    0    0  501    0  0.00000000000E+00 -0.00000000000E+00 -0.78743310588E+03  0.78743310588E+03  0.00000000000E+00 0. -1.
         23    2    1    2    0    0  0.57577681003E+01  0.35292132757E+02  0.83227325148E+01  0.10194769888E+03  0.95107196903E+02 0.  0.
          5    1    1    2  502    0  0.11851673269E+03  0.48451006579E+02 -0.64969788060E+03  0.66220731227E+03  0.41800000000E+01 0. -1.
         -5    1    1    2    0  502 -0.12427450079E+03 -0.83743139336E+02 -0.18307269064E+02  0.15102878346E+03  0.41800000000E+01 0.  1.
        -11    1    3    3    0    0 -0.44021170642E+02  0.82408359276E+01  0.65789785513E+01  0.45266519639E+02  0.00000000000E+00 0.  1.
         11    1    3    3    0    0  0.49778938742E+02  0.27051296830E+02  0.17437539634E+01  0.56681179243E+02  0.00000000000E+00 0. -1.
</event>
<event>
 7    1  0.6988825E-006  0.1125276E+03  0.7561462E-02  0.1255960E+00
          2   -1    0    0  501    0  0.00000000000E+00  0.00000000000E+00  0.68952483137E+03  0.68952483137E+03  0.00000000000E+00 0. -1.
         -2   -1    0    0    0  501 -0.00000000000E+00 -0.00000000000E+00 -0.18874530744E+02  0.18874530744E+02  0.00000000000E+00 0.  1.
         23    2    1    2    0    0 -0.30748639052E+02 -0.36065087534E+01  0.24225853126E+03  0.26104533314E+03  0.92179088081E+02 0.  0.
          5    1    1    2  502    0  0.67250628273E+02 -0.34375277617E+02  0.23512265272E+03  0.24699077095E+03  0.41800000000E+01 0. -1.
         -5    1    1    2    0  502 -0.36501989221E+02  0.37981786370E+02  0.19326911665E+03  0.20036325802E+03  0.41800000000E+01 0. -1.
        -11    1    3    3    0    0  0.28973058872E+02  0.16758006742E+02  0.69902729646E+02  0.77502648615E+02  0.00000000000E+00 0. -1.
         11    1    3    3    0    0 -0.59721697924E+02 -0.20364515496E+02  0.17235580161E+03  0.18354268453E+03  0.00000000000E+00 0.  1.
</event>
<event>
 7    1  0.6988825E-006  0.2274300E+03  0.7561462E-02  0.1128462E+00
          1   -1    0    0  501    0  0.00000000000E+00  0.00000000000E+00  0.33964890236E+03  0.33964890236E+03  0.00000000000E+00 0. -1.
         -1   -1    0    0    0  501 -0.00000000000E+00 -0.00000000000E+00 -0.19569024361E+03  0.19569024361E+03  0.00000000000E+00 0.  1.
         23    2    1    2    0    0  0.18609871775E+03  0.91251746642E+02 -0.41587345557E+02  0.23032453189E+03  0.91434504803E+02 0.  0.
          5    1    1    2  502    0 -0.93563058401E+02 -0.11309382318E+03  0.10877313916E+03  0.18273841124E+03  0.41800000000E+01 0. -1.
         -5    1    1    2    0  502 -0.92535659348E+02  0.21842076541E+02  0.76772865152E+02  0.12227620285E+03  0.41800000000E+01 0. -1.
        -11    1    3    3    0    0  0.17069854557E+03  0.65477455039E+02 -0.63077785462E+02  0.19340138986E+03  0.00000000000E+00 0.  1.
         11    1    3    3    0    0  0.15400172176E+02  0.25774291602E+02  0.21490439905E+02  0.36923142038E+02  0.00000000000E+00 0. -1.
</event>
<event>
 7    1  0.6988825E-006  0.1481222E+03  0.7561462E-02  0.1202800E+00
          2   -1    0    0  501    0  0.00000000000E+00  0.00000000000E+00  0.22569720442E+03  0.22569720442E+03  0.00000000000E+00 0. -1.
         -2   -1    0    0    0  501 -0.00000000000E+00 -0.00000000000E+00 -0.12119281464E+03  0.12119281464E+03  0.00000000000E+00 0.  1.
         23    2    1    2    0    0  0.83453114951E+02  0.82469915428E+02  0.60021432494E+01  0.14911591264E+03  0.91835833598E+02 0.  0.
          5    1    1    2  502    0 -0.10272249547E+03 -0.75950841135E+02  0.37309933351E+02  0.13315383911E+03  0.41800000000E+01 0.  1.
         -5    1    1    2    0  502  0.19269380515E+02 -0.65190742933E+01  0.61192313183E+02  0.64620267314E+02  0.41800000000E+01 0.  1.
        -11    1    3    3    0    0  0.15362087285E+02 -0.19635141150E+02 -0.64720518991E+01  0.25756939832E+02  0.00000000000E+00 0.  1.
         11    1    3    3    0    0  0.68091027666E+02  0.10210505658E+03  0.12474195148E+02  0.12335897281E+03  0.00000000000E+00 0. -1.
</event>
<event>
 7    1  0.6988825E-006  0.1484864E+03  0.7561462E-02  0.1202345E+00
         -1   -1    0    0    0  501 -0.00000000000E+00  0.00000000000E+00  0.30442697437E+02  0.30442697437E+02  0.00000000000E+00 0.  1.
          1   -1    0    0  501    0  0.00000000000E+00 -0.00000000000E+00 -0.76485447035E+03  0.76485447035E+03  0.00000000000E+00 0. -1.
         23    2    1    2    0    0 -0.54826859523E+02 -0.91694629560E+02 -0.36725268848E+03  0.39297028339E+03  0.90206523136E+02 0.  0.
          5    1    1    2  502    0 -0.15917226353E+02  0.86696458002E+02 -0.25213935057E+03  0.26713546831E+03  0.41800000000E+01 0. -1.
         -5    1    1    2    0  502  0.70744085876E+02  0.49981715579E+01 -0.11501973387E+03  0.13519141609E+03  0.41800000000E+01 0. -1.
        -11    1    3    3    0    0  0.20873204222E+02 -0.42655352457E+02 -0.95787411446E+02  0.10691303915E+03  0.00000000000E+00 0.  1.
         11    1    3    3    0    0 -0.75700063744E+02 -0.49039277102E+02 -0.27146527703E+03  0.28605724424E+03  0.00000000000E+00 0. -1.
</event>
<event>
 7    1  0.6988825E-006  0.9767612E+02  0.7561462E-02  0.1285260E+00
         -2   -1    0    0    0  501 -0.00000000000E+00  0.00000000000E+00  0.48757321207E+02  0.48757321207E+02  0.00000000000E+00 0.  1.
          2   -1    0    0  501    0  0.00000000000E+00 -0.00000000000E+00 -0.26419400925E+03  0.26419400925E+03  0.00000000000E+00 0. -1.
         23    2    1    2    0    0  0.42643830316E+01  0.84270335269E+01 -0.46913969241E+02  0.10286445437E+03  0.91054794526E+02 0.  0.
          5    1    1    2  502    0  0.22431146095E+02  0.45787245224E+02 -0.31007060875E+02  0.59820885687E+02  0.41800000000E+01 0.  1.
         -5    1    1    2    0  502 -0.26695529126E+02 -0.54214278751E+02 -0.13751565792E+03  0.15026599040E+03  0.41800000000E+01 0.  1.
        -11    1    3    3    0    0  0.12972414657E+01 -0.37537342062E+02 -0.62689409721E+00  0.37564982107E+02  0.00000000000E+00 0.  1.
         11    1    3    3    0    0  0.29671415659E+01  0.45964375589E+02 -0.46287075144E+02  0.65299472262E+02  0.00000000000E+00 0. -1.
</event>
<event>
 7    1  0.6988825E-006  0.2497594E+03  0.7561462E-02  0.1113457E+00
         -2   -1    0    0    0  501 -0.00000000000E+00  0.00000000000E+00  0.20887782992E+03  0.20887782992E+03  0.00000000000E+00 0.  1.
          2   -1    0    0  501    0  0.00000000000E+00 -0.00000000000E+00 -0.49003687077E+03  0.49003687077E+03  0.00000000000E+00 0. -1.
         23    2    1    2    0    0 -0.17469322353E+02 -0.14902682137E+02 -0.66575177150E+02  0.11859405579E+03  0.95420274046E+02 0.  0.
          5    1    1    2  502    0 -0.18377157304E+03 -0.63328429369E+02 -0.29209092463E+03  0.35088040936E+03  0.41800000000E+01 0. -1.
         -5    1    1    2    0  502  0.20124089540E+03  0.78231111506E+02  0.77507060933E+02  0.22944023553E+03  0.41800000000E+01 0.  1.
        -11    1    3    3    0    0 -0.18660124690E+02  0.34768097278E+02 -0.54668640440E+01  0.39836006882E+02  0.00000000000E+00 0.  1.
         11    1    3    3    0    0  0.11908023370E+01 -0.49670779415E+02 -0.61108313106E+02  0.78758048913E+02  0.00000000000E+00 0. -1.
</event>
<event>
 7    1  0.6988825E-006  0.1060572E+03  0.7561462E-02  0.1268051E+00
         -2   -1    0    0    0  501 -0.00000000000E+00  0.00000000000E+00  0.10349355617E+03  0.10349355617E+03  0.00000000000E+00 0.  1.
          2   -1    0    0  501    0  0.00000000000E+00 -0.00000000000E+00 -0.48456263762E+03  0.48456263762E+03  0.00000000000E+00 0. -1.
         23    2    1    2    0    0  0.73199700770E+02  0.51966681840E+01  0.53483717097E+02  0.13171032237E+03  0.95403875563E+02 0.  0.
          5    1    1    2  502    0 -0.52147054343E+02 -0.59693370693E+02 -0.28123433135E+03  0.29222052514E+03  0.41800000000E+01 0. -1.
         -5    1    1    2    0  502 -0.21052646426E+02  0.54496702509E+02 -0.15331846720E+03  0.16412534627E+03  0.41800000000E+01 0.  1.
        -11    1    3    3    0    0  0.58154398469E+02 -0.29144914329E+00  0.81094289235E+02  0.99791295965E+02  0.00000000000E+00 0.  1.
         11    1    3    3    0    0  0.15045302301E+02  0.54881173273E+01 -0.27610572138E+02  0.31919026409E+02  0.00000000000E+00 0. -1.
</event>
<event>
 7    1  0.6988825E-006  0.1012846E+03  0.7561462E-02  0.1277617E+00
          1   -1    0    0  501    0  0.00000000000E+00  0.00000000000E+00  0.82943476564E+02  0.82943476564E+02  0.00000000000E+00 0. -1.
         -1   -1    0    0    0  501 -0.00000000000E+00 -0.00000000000E+00 -0.22909697645E+03  0.22909697645E+03  0.00000000000E+00 0.  1.
         23    2    1    2    0    0 -0.55997781663E+02  0.10401971104E+02 -0.64858911502E+02  0.15235019939E+03  0.12553864863E+03 0.  0.
          5    1    1    2  502    0  0.68356206760E+02  0.21575711898E+02 -0.47840191901E+00  0.71803785519E+02  0.41800000000E+01 0.  1.
         -5    1    1    2    0  502 -0.12358425097E+02 -0.31977683001E+02 -0.80816186469E+02  0.87886468108E+02  0.41800000000E+01 0.  1.
        -11    1    3    3    0    0 -0.39217438183E+02 -0.32008079425E+02 -0.87761001083E+02  0.10131395717E+03  0.00000000000E+00 0.  1.
         11    1    3    3    0    0 -0.16780343480E+02  0.42410050528E+02  0.22902089581E+02  0.51036242223E+02  0.00000000000E+00 0. -1.
</event>
<event>
 7    1  0.6988825E-006  0.1466000E+03  0.7561462E-02  0.1204714E+00
          1   -1    0    0  501    0  0.00000000000E+00  0.00000000000E+00  0.96808559332E+03  0.96808559332E+03  0.00000000000E+00 0.  1.
         -1   -1    0    0    0  501 -0.00000000000E+00 -0.00000000000E+00 -0.27127192747E+02  0.27127192747E+02  0.00000000000E+00 0. -1.
         23    2    1    2    0    0 -0.78828089145E+02  0.89309593038E+02  0.39478407869E+03  0.42237370375E+03  0.91405720779E+02 0.  0.
          5    1    1    2  502    0  0.21210642694E+02 -0.10206034334E+03  0.42993478154E+03  0.44241111404E+03  0.41800000000E+01 0.  1.
         -5    1    1    2    0  502  0.57617446451E+02  0.12750750303E+02  0.11623954035E+03  0.13042796828E+03  0.41800000000E+01 0.  1.
        -11    1    3    3    0    0 -0.80609352847E+02  0.60340036441E+02  0.37225246785E+03  0.38563024724E+03  0.00000000000E+00 0.  1.
         11    1    3    3    0    0  0.17812637018E+01  0.28969556597E+02  0.22531610834E+02  0.36743456514E+02  0.00000000000E+00 0. -1.
</event>
<event>
 7    1  0.6988825E-006  0.1169202E+03  0.7561462E-02  0.1248266E+00
         -3   -1    0    0    0  501 -0.00000000000E+00  0.00000000000E+00  0.23445019493E+03  0.23445019493E+03  0.00000000000E+00 0.  1.
          3   -1    0    0  501    0  0.00000000000E+00 -0.00000000000E+00 -0.10719427089E+03  0.10719427089E+03  0.00000000000E+00 0. -1.
         23    2    1    2    0    0  0.32799357814E+02  0.55694064033E+02  0.15391313848E+03  0.19834246632E+03  0.10711140513E+03 0.  0.
          5    1    1    2  502    0  0.31392003837E+02 -0.48305678768E+02  0.22517811790E+02  0.61995328485E+02  0.41800000000E+01 0. -1.
         -5    1    1    2    0  502 -0.64191361651E+02 -0.73883852653E+01 -0.49175026230E+02  0.81306671019E+02  0.41800000000E+01 0. -1.
        -11    1    3    3    0    0  0.60147868873E+02  0.14480000120E+02  0.38733071910E+02  0.72991008987E+02  0.00000000000E+00 0. -1.
         11    1    3    3    0    0 -0.27348511059E+02  0.41214063914E+02  0.11518006657E+03  0.12535145733E+03  0.00000000000E+00 0.  1.
</event>
<event>
 7    1  0.6988825E-006  0.2816043E+03  0.7561462E-02  0.1094816E+00
          2   -1    0    0  501    0  0.00000000000E+00  0.00000000000E+00  0.11712341863E+03  0.11712341863E+03  0.00000000000E+00 0.  1.
         -2   -1    0    0    0  501 -0.00000000000E+00 -0.00000000000E+00 -0.70866674116E+03  0.70866674116E+03  0.00000000000E+00 0. -1.
         23    2    1    2    0    0  0.34847860778E+02  0.26311942562E+03 -0.31996434543E+03  0.42597922785E+03  0.92924241559E+02 0.  0.
          5    1    1    2  502    0 -0.73028711308E+02 -0.94808127862E+02 -0.94917773029E+02  0.15280258447E+03  0.41800000000E+01 0.  1.
         -5    1    1    2    0  502  0.38180850530E+02 -0.16831129776E+03 -0.17666120407E+03  0.24700834748E+03  0.41800000000E+01 0.  1.
        -11    1    3    3    0    0  0.35870409204E+02  0.79684595608E+02 -0.53446627346E+02  0.10243467679E+03  0.00000000000E+00 0.  1.
         11    1    3    3    0    0 -0.10225484264E+01  0.18343483001E+03 -0.26651771808E+03  0.32354455106E+03  0.00000000000E+00 0. -1.
</event>
<event>
 7    1  0.6988825E-006  0.6747956E+02  0.7561462E-02  0.1368880E+00
          2   -1    0    0  501    0  0.00000000000E+00  0.00000000000E+00  0.39839330364E+03  0.39839330364E+03  0.00000000000E+00 0. -1.
         -2   -1    0    0    0  501 -0.00000000000E+00 -0.00000000000E+00 -0.29243475463E+02  0.29243475463E+02  0.00000000000E+00 0.  1.
         23    2    1    2    0    0 -0.38391116404E+01  0.16288371871E+02  0.14087910242E+03  0.16680104338E+03  0.87724664363E+02 0.  0.
          5    1    1    2  502    0  0.74544299173E+01 -0.42981176255E+02  0.22940506930E+03  0.23355322361E+03  0.41800000000E+01 0.  1.
         -5    1    1    2    0  502 -0.36153182769E+01  0.26692804384E+02 -0.11343435399E+01  0.27282512116E+02  0.41800000000E+01 0.  1.
        -11    1    3    3    0    0 -0.28261366713E+02 -0.80633206436E+01  0.93728377204E+01  0.30847561901E+02  0.00000000000E+00 0.  1.
         11    1    3    3    0    0  0.24422255073E+02  0.24351692515E+02  0.13150626470E+03  0.13595348148E+03  0.00000000000E+00 0. -1.
</event>
<event>
 7    1  0.6988825E-006  0.1247210E+03  0.7561462E-02  0.1235506E+00
          3   -1    0    0  501    0  0.00000000000E+00  0.00000000000E+00  0.12170329607E+03  0.12170329607E+03  0.00000000000E+00 0. -1.
         -3   -1    0    0    0  501 -0.00000000000E+00 -0.00000000000E+00 -0.18649799536E+03  0.18649799536E+03  0.00000000000E+00 0.  1.
         23    2    1    2    0    0 -0.75318311133E+02  0.51910539556E+02 -0.77108862312E+02  0.15274457666E+03  0.94960923235E+02 0.  0.
          5    1    1    2  502    0  0.18426447184E+02  0.22183191457E+02 -0.39085103256E+02  0.48751878277E+02  0.41800000000E+01 0.  1.
         -5    1    1    2    0  502  0.56891863949E+02 -0.74093731013E+02  0.51399266275E+02  0.10670483650E+03  0.41800000000E+01 0.  1.
        -11    1    3    3    0    0  0.86374299376E+01 -0.16414704973E+02  0.20246770865E+01  0.18658699113E+02  0.00000000000E+00 0.  1.
         11    1    3    3    0    0 -0.83955741070E+02  0.68325244529E+02 -0.79133539398E+02  0.13408587754E+03  0.00000000000E+00 0. -1.
</event>
<event>
 7    1  0.6988825E-006  0.9787056E+02  0.7561462E-02  0.1284839E+00
          2   -1    0    0  501    0  0.00000000000E+00  0.00000000000E+00  0.70580605261E+03  0.70580605261E+03  0.00000000000E+00 0. -1.
         -2   -1    0    0    0  501 -0.00000000000E+00 -0.00000000000E+00 -0.25752629422E+02  0.25752629422E+02  0.00000000000E+00 0.  1.
         23    2    1    2    0    0  0.34874733381E+02 -0.29280864597E+02  0.13461186518E+03  0.17010732151E+03  0.93501500119E+02 0.  0.
          5    1    1    2  502    0 -0.46153561933E+02 -0.13273349211E+02  0.76447796584E+02  0.90377381467E+02  0.41800000000E+01 0. -1.
         -5    1    1    2    0  502  0.11278828552E+02  0.42554213808E+02  0.46899376143E+03  0.47107397906E+03  0.41800000000E+01 0. -1.
        -11    1    3    3    0    0  0.66571133120E+02 -0.25921527337E+02  0.83716375547E+02  0.11005486304E+03  0.00000000000E+00 0.  1.
         11    1    3    3    0    0 -0.31696399739E+02 -0.33593372604E+01  0.50895489630E+02  0.60052458467E+02  0.00000000000E+00 0. -1.
</event>
<event>
 7    1  0.6988825E-006  0.1020591E+03  0.7561462E-02  0.1276025E+00
         -1   -1    0    0    0  501 -0.00000000000E+00  0.00000000000E+00  0.55206301991E+02  0.55206301991E+02  0.00000000000E+00 0.  1.
          1   -1    0    0  501    0  0.00000000000E+00 -0.00000000000E+00 -0.27361001035E+03  0.27361001035E+03  0.00000000000E+00 0. -1.
         23    2    1    2    0    0 -0.31874589441E+02 -0.44774330506E+02 -0.92531218403E+02  0.14304143199E+03  0.94223642268E+02 0.  0.
          5    1    1    2  502    0 -0.23711383614E+02  0.60248128894E+02 -0.25078799263E+02  0.69559221679E+02  0.41800000000E+01 0. -1.
         -5    1    1    2    0  502  0.55585973054E+02 -0.15473798388E+02 -0.10079369069E+03  0.11621565867E+03  0.41800000000E+01 0. -1.
        -11    1    3    3    0    0 -0.12087730737E+02 -0.56906662232E+02 -0.12223047922E+02  0.59446483001E+02  0.00000000000E+00 0.  1.
         11    1    3    3    0    0 -0.19786858704E+02  0.12132331726E+02 -0.80308170481E+02  0.83594948989E+02  0.00000000000E+00 0. -1.
</event>
<event>
 7    1  0.6988825E-006  0.9221413E+02  0.7561462E-02  0.1297577E+00
          1   -1    0    0  501    0  0.00000000000E+00  0.00000000000E+00  0.20100330943E+03  0.20100330943E+03  0.00000000000E+00 0. -1.
         -1   -1    0    0    0  501 -0.00000000000E+00 -0.00000000000E+00 -0.83221012872E+02  0.83221012872E+02  0.00000000000E+00 0.  1.
         23    2    1    2    0    0  0.32529683258E+02  0.53264492194E+02  0.19969146625E+02  0.11360742181E+03  0.92804057297E+02 0.  0.
          5    1    1    2  502    0 -0.55999245153E+02 -0.65121218885E+02  0.11139895369E+03  0.14072628714E+03  0.41800000000E+01 0.  1.
         -5    1    1    2    0  502  0.23469561895E+02  0.11856726692E+02 -0.13585803760E+02  0.29890613363E+02  0.41800000000E+01 0.  1.
        -11    1    3    3    0    0  0.40059439123E+02  0.40307872266E+02 -0.27999938434E+02  0.63352030605E+02  0.00000000000E+00 0.  1.
         11    1    3    3    0    0 -0.75297558655E+01  0.12956619928E+02  0.47969085059E+02  0.50255391201E+02  0.00000000000E+00 0. -1.
</event>
<event>
 7    1  0.6988825E-006  0.9138825E+02  0.7561462E-02  0.1299524E+00
         -1   -1    0    0    0  501 -0.00000000000E+00  0.00000000000E+00  0.45873695183E+02  0.45873695183E+02  0.00000000000E+00 0.  1.
          1   -1    0    0  501    0  0.00000000000E+00 -0.00000000000E+00 -0.27282970846E+03  0.27282970846E+03  0.00000000000E+00 0. -1.
         23    2    1    2    0    0 -0.18015825273E+01 -0.77587444323E+01 -0.38368646408E+02  0.92260096741E+02  0.83524419236E+02 0.  0.
          5    1    1    2  502    0  0.46442178540E+02 -0.25778148703E+02 -0.14797287375E+03  0.15727311488E+03  0.41800000000E+01 0.  1.
         -5    1    1    2    0  502 -0.44640596013E+02  0.33536893136E+02 -0.40614493126E+02  0.69170192030E+02  0.41800000000E+01 0.  1.
        -11    1    3    3    0    0  0.33954286693E+02 -0.14837825943E+02  0.29376618776E+01  0.37171017216E+02  0.00000000000E+00 0.  1.
         11    1    3    3    0    0 -0.35755869220E+02  0.70790815110E+01 -0.41306308285E+02  0.55089079525E+02  0.00000000000E+00 0. -1.
</event>
<event>
 7    1  0.6988825E-006  0.1578519E+03  0.7561462E-02  0.1191144E+00
          1   -1    0    0  501    0  0.00000000000E+00  0.00000000000E+00  0.40050217594E+03  0.40050217594E+03  0.00000000000E+00 0. -1.
         -1   -1    0    0    0  501 -0.00000000000E+00 -0.00000000000E+00 -0.73761996190E+02  0.73761996190E+02  0.00000000000E+00 0.  1.
         23    2    1    2    0    0  0.12876659994E+03 -0.31196229134E+02  0.13747487186E+03  0.21154237088E+03  0.91086729620E+02 0.  0.
          5    1    1    2  502    0  0.39049644632E+01  0.29692915454E+02 -0.15447936409E+01  0.30278321668E+02  0.41800000000E+01 0. -1.
         -5    1    1    2    0  502 -0.13267156440E+03  0.15033136798E+01  0.19081010153E+03  0.23244347958E+03  0.41800000000E+01 0. -1.
        -11    1    3    3    0    0  0.13059429279E+03 -0.94929798573E+01  0.88780805508E+02  0.15819929646E+03  0.00000000000E+00 0.  1.
         11    1    3    3    0    0 -0.18276928465E+01 -0.21703249277E+02  0.48694066355E+02  0.53343074419E+02  0.00000000000E+00 0. -1.
</event>
<event>
 7    1  0.6988825E-006  0.9999835E+02  0.7561462E-02  0.1280299E+00
         -1   -1    0    0    0  501 -0.00000000000E+00  0.00000000000E+00  0.64639273942E+02  0.64639273942E+02  0.00000000000E+00 0.  1.
          1   -1    0    0  501    0  0.00000000000E+00 -0.00000000000E+00 -0.25733059398E+03  0.25733059398E+03  0.00000000000E+00 0. -1.
         23    2    1    2    0    0 -0.16748836829E+02  0.24501991756E+02 -0.71710185365E+01  0.96255906547E+02  0.91284746279E+02 0.  0.
          5    1    1    2  502    0 -0.26175652017E+02  0.36598112421E+02 -0.33364335978E+02  0.56171504400E+02  0.41800000000E+01 0.  1.
         -5    1    1    2    0  502  0.42924488846E+02 -0.61100104177E+02 -0.15215596552E+03  0.16954245698E+03  0.41800000000E+01 0.  1.
        -11    1    3    3    0    0 -0.24402532698E+02 -0.22022143900E+02  0.23144814707E+02  0.40201254606E+02  0.00000000000E+00 0.  1.
         11    1    3    3    0    0  0.76536958688E+01  0.46524135656E+02 -0.30315833244E+02  0.56054651941E+02  0.00000000000E+00 0. -1.
</event>
<event>
 7    1  0.6988825E-006  0.1668682E+03  0.7561462E-02  0.1181154E+00
         -2   -1    0    0    0  501 -0.00000000000E+00  0.00000000000E+00  0.31534917281E+02  0.31534917281E+02  0.00000000000E+00 0.  1.
          2   -1    0    0  501    0  0.00000000000E+00 -0.00000000000E+00 -0.11067996983E+04  0.11067996983E+04  0.00000000000E+00 0. -1.
         23    2    1    2    0    0  0.11485804927E+02  0.15151256525E+03 -0.51997004368E+03  0.54919278925E+03  0.90309978942E+02 0.  0.
          5    1    1    2  502    0 -0.53108753866E+02 -0.11291036581E+03 -0.26012678381E+03  0.28853545103E+03  0.41800000000E+01 0.  1.
         -5    1    1    2    0  502  0.41622948939E+02 -0.38602199439E+02 -0.29516795355E+03  0.30060637532E+03  0.41800000000E+01 0.  1.
        -11    1    3    3    0    0  0.31289047599E+01  0.57302370956E+02 -0.75849960238E+02  0.95113449261E+02  0.00000000000E+00 0.  1.
         11    1    3    3    0    0  0.83569001676E+01  0.94210194298E+02 -0.44412008344E+03  0.45407933999E+03  0.00000000000E+00 0. -1.
</event>
<event>
 7    1  0.6988825E-006  0.1204030E+03  0.7561462E-02  0.1242434E+00
         -2   -1    0    0    0  501 -0.00000000000E+00  0.00000000000E+00  0.51563310025E+02  0.51563310025E+02  0.00000000000E+00 0. -1.
          2   -1    0    0  501    0  0.00000000000E+00 -0.00000000000E+00 -0.40532684165E+03  0.40532684165E+03  0.00000000000E+00 0.  1.
         23    2    1    2    0    0  0.18398333316E+02  0.84339422072E+02 -0.86194389454E+02  0.14916506632E+03  0.85843505593E+02 0.  0.
          5    1    1    2  502    0  0.43296806490E+02 -0.50357318623E+02 -0.19698999511E+03  0.20792547598E+03  0.41800000000E+01 0. -1.
         -5    1    1    2    0  502 -0.61695139806E+02 -0.33982103449E+02 -0.70579147069E+02  0.99799609375E+02  0.41800000000E+01 0. -1.
        -11    1    3    3    0    0  0.29335552801E+02  0.87526854096E+02 -0.38312928299E+02  0.99947012566E+02  0.00000000000E+00 0. -1.
         11    1    3    3    0    0 -0.10937219485E+02 -0.31874320233E+01 -0.47881461155E+02  0.49218053753E+02  0.00000000000E+00 0.  1.
</event>
<event>
 7    1  0.6988825E-006  0.1550226E+03  0.7561462E-02  0.1194434E+00
          4   -1    0    0  501    0  0.00000000000E+00  0.00000000000E+00  0.21235697523E+03  0.21235697523E+03  0.00000000000E+00 0. -1.
         -4   -1    0    0    0  501 -0.00000000000E+00 -0.00000000000E+00 -0.13584336546E+03  0.13584336546E+03  0.00000000000E+00 0.  1.
         23    2    1    2    0    0 -0.11467218934E+03  0.49373757094E+02  0.74594356944E+02  0.17145738660E+03  0.90806599060E+02 0.  0.
          5    1    1    2  502    0 -0.13653851450E+02  0.22011167359E+02  0.13267626094E+02  0.29401045051E+02  0.41800000000E+01 0. -1.
         -5    1    1    2    0  502  0.12832604079E+03 -0.71384924453E+02 -0.11348373274E+02  0.14734190904E+03  0.41800000000E+01 0. -1.
        -11    1    3    3    0    0 -0.36544314666E+02  0.45937423861E+02 -0.61844194746E+01  0.59025256371E+02  0.00000000000E+00 0.  1.
         11    1    3    3    0    0 -0.78127874677E+02  0.34363332326E+01  0.80778776419E+02  0.11243213023E+03  0.00000000000E+00 0. -1.
</event>
<event>
 7    1  0.6988825E-006  0.1276092E+03  0.7561462E-02  0.1231047E+00
         -2   -1    0    0    0  501 -0.00000000000E+00  0.00000000000E+00  0.36576347676E+02  0.36576347676E+02  0.00000000000E+00 0.  1.
          2   -1    0    0  501    0  0.00000000000E+00 -0.00000000000E+00 -0.29426927989E+04  0.29426927989E+04  0.00000000000E+00 0. -1.
         23    2    1    2    0    0 -0.41330436165E+02 -0.18888263723E+02 -0.45408537177E+02  0.11379335426E+03  0.93925612938E+02 0.  0.
          5    1    1    2  502    0  0.93834381794E+02  0.31859682237E+02 -0.23033609187E+04  0.23054953751E+04  0.41800000000E+01 0. -1.
         -5    1    1    2    0  502 -0.52503945629E+02 -0.12971418514E+02 -0.55734699534E+03  0.55998041718E+03  0.41800000000E+01 0.  1.
        -11    1    3    3    0    0 -0.69012891128E+02 -0.25072046188E+02 -0.43545701061E+02  0.85367527332E+02  0.00000000000E+00 0.  1.
         11    1    3    3    0    0  0.27682454963E+02  0.61837824643E+01 -0.18628361164E+01  0.28425826931E+02  0.00000000000E+00 0. -1.
</event>
<event>
 7    1  0.6988825E-006  0.2987479E+03  0.7561462E-02  0.1085868E+00
         -2   -1    0    0    0  501 -0.00000000000E+00  0.00000000000E+00  0.25540434873E+03  0.25540434873E+03  0.00000000000E+00 0.  1.
          2   -1    0    0  501    0  0.00000000000E+00 -0.00000000000E+00 -0.37053831787E+03  0.37053831787E+03  0.00000000000E+00 0. -1.
         23    2    1    2    0    0 -0.28561922350E+03 -0.30526317383E+02 -0.41823203559E+02  0.30417823118E+03  0.90912150376E+02 0.  0.
          5    1    1    2  502    0  0.31257051308E+02  0.42928509668E+02 -0.36135746407E+02  0.64367109358E+02  0.41800000000E+01 0.  1.
         -5    1    1    2    0  502  0.25436217219E+03 -0.12402192284E+02 -0.37175019177E+02  0.25739732606E+03  0.41800000000E+01 0.  1.
        -11    1    3    3    0    0 -0.18098391983E+03 -0.36877001073E+02 -0.66808351902E+02  0.19641397183E+03  0.00000000000E+00 0. -1.
         11    1    3    3    0    0 -0.10463530366E+03  0.63506836893E+01  0.24985148344E+02  0.10776425935E+03  0.00000000000E+00 0.  1.
</event>
<event>
 7    1  0.6988825E-006  0.9949521E+02  0.7561462E-02  0.1281361E+00
         -2   -1    0    0    0  501 -0.00000000000E+00  0.00000000000E+00  0.17750115338E+02  0.17750115338E+02  0.00000000000E+00 0.  1.
          2   -1    0    0  501    0  0.00000000000E+00 -0.00000000000E+00 -0.59990411401E+03  0.59990411401E+03  0.00000000000E+00 0. -1.
         23    2    1    2    0    0 -0.13895366870E+02  0.29434738632E+00 -0.22814533293E+03  0.24193776888E+03  0.79312188272E+02 0.  0.
          5    1    1    2  502    0 -0.16763637993E+02 -0.56372795192E+02 -0.13028986993E+03  0.14300990946E+03  0.41800000000E+01 0.  1.
         -5    1    1    2    0  502  0.30659004862E+02  0.56078447806E+02 -0.22371879581E+03  0.23270655101E+03  0.41800000000E+01 0.  1.
        -11    1    3    3    0    0 -0.10567556180E+02  0.37329502112E+02 -0.76190621458E+02  0.85499565904E+02  0.00000000000E+00 0.  1.
         11    1    3    3    0    0 -0.33278106891E+01 -0.37035154726E+02 -0.15195471147E+03  0.15643820297E+03  0.00000000000E+00 0. -1.
</event>
<event>
 7    1  0.6988825E-006  0.1380087E+03  0.7561462E-02  0.1216034E+00
         -1   -1    0    0    0  501 -0.00000000000E+00  0.00000000000E+00  0.15441113037E+03  0.15441113037E+03  0.00000000000E+00 0.  1.
          1   -1    0    0  501    0  0.00000000000E+00 -0.00000000000E+00 -0.16122928504E+03  0.16122928504E+03  0.00000000000E+00 0. -1.
         23    2    1    2    0    0  0.10086935774E+03  0.23029417455E+02  0.45398035295E+02  0.14511179665E+03  0.91057512153E+02 0.  0.
          5    1    1    2  502    0 -0.72833691037E+02 -0.74056899036E+02 -0.34376999356E+02  0.10949164959E+03  0.41800000000E+01 0. -1.
         -5    1    1    2    0  502 -0.28035666700E+02  0.51027481581E+02 -0.17839190605E+02  0.61036969168E+02  0.41800000000E+01 0. -1.
        -11    1    3    3    0    0  0.30925856376E+01 -0.10014418517E+02 -0.20244019514E+02  0.22796337211E+02  0.00000000000E+00 0. -1.
         11    1    3    3    0    0  0.97776772099E+02  0.33043835972E+02  0.65642054809E+02  0.12231545944E+03  0.00000000000E+00 0.  1.
</event>
<event>
 7    1  0.6988825E-006  0.1188512E+03  0.7561462E-02  0.1245004E+00
          2   -1    0    0  501    0  0.00000000000E+00  0.00000000000E+00  0.75245454415E+02  0.75245454415E+02  0.00000000000E+00 0. -1.
         -2   -1    0    0    0  501 -0.00000000000E+00 -0.00000000000E+00 -0.47340772559E+03  0.47340772559E+03  0.00000000000E+00 0.  1.
         23    2    1    2    0    0  0.65881966881E+02 -0.51956472962E+02 -0.37673756213E+03  0.39651605596E+03  0.90850884847E+02 0.  0.
          5    1    1    2  502    0  0.34679634664E+02  0.48166184871E+01  0.99768642940E+01  0.36645423933E+02  0.41800000000E+01 0. -1.
         -5    1    1    2    0  502 -0.10056160154E+03  0.47139854475E+02 -0.31401573340E+02  0.11549170011E+03  0.41800000000E+01 0. -1.
        -11    1    3    3    0    0  0.35580771790E+02 -0.49416095677E+02 -0.35224956955E+03  0.35747405651E+03  0.00000000000E+00 0.  1.
         11    1    3    3    0    0  0.30301195091E+02 -0.25403772850E+01 -0.24487992581E+02  0.39041999453E+02  0.00000000000E+00 0. -1.
</event>
<event>
 7    1  0.6988825E-006  0.1588685E+03  0.7561462E-02  0.1189980E+00
         -2   -1    0    0    0  501 -0.00000000000E+00  0.00000000000E+00  0.57382420895E+03  0.57382420895E+03  0.00000000000E+00 0. -1.
          2   -1    0    0  501    0  0.00000000000E+00 -0.00000000000E+00 -0.54113064801E+02  0.54113064801E+02  0.00000000000E+00 0.  1.
         23    2    1    2    0    0 -0.38569602638E+01 -0.13892366566E+03  0.24999305843E+03  0.29974575843E+03  0.89645576629E+02 0.  0.
          5    1    1    2  502    0 -0.19047323238E+02  0.14292652632E+03  0.26818407580E+03  0.30451759122E+03  0.41800000000E+01 0.  1.
         -5    1    1    2    0  502  0.22904283502E+02 -0.40028606602E+01  0.15340099212E+01  0.23673924107E+02  0.41800000000E+01 0.  1.
        -11    1    3    3    0    0  0.26172014576E+02 -0.65424576191E+02  0.18217323538E+03  0.19532648874E+03  0.00000000000E+00 0.  1.
         11    1    3    3    0    0 -0.30028974839E+02 -0.73499089469E+02  0.67819823055E+02  0.10441926969E+03  0.00000000000E+00 0. -1.
</event>
<event>
 7    1  0.6988825E-006  0.1337988E+03  0.7561462E-02  0.1221925E+00
         -2   -1    0    0    0  501 -0.00000000000E+00  0.00000000000E+00  0.13572307544E+02  0.13572307544E+02  0.00000000000E+00 0.  1.
          2   -1    0    0  501    0  0.00000000000E+00 -0.00000000000E+00 -0.14046290043E+04  0.14046290043E+04  0.00000000000E+00 0. -1.
         23    2    1    2    0    0 -0.75864546735E+02  0.16414860168E+02 -0.45721650583E+03  0.47282822224E+03  0.92166791476E+02 0.  0.
          5    1    1    2  502    0  0.35216862270E+02 -0.70735903706E+02 -0.48368671031E+03  0.49011641637E+03  0.41800000000E+01 0.  1.
         -5    1    1    2    0  502  0.40647684465E+02  0.54321043538E+02 -0.45015348057E+03  0.45525667320E+03  0.41800000000E+01 0.  1.
        -11    1    3    3    0    0 -0.44981501283E+02 -0.37366717429E+02 -0.22054047442E+03  0.22816158284E+03  0.00000000000E+00 0. -1.
         11    1    3    3    0    0 -0.30883045452E+02  0.53781577597E+02 -0.23667603142E+03  0.24466663939E+03  0.00000000000E+00 0.  1.
</event>
<event>
 7    1  0.6988825E-006  0.1086077E+03  0.7561462E-02  0.1263170E+00
          1   -1    0    0  501    0  0.00000000000E+00  0.00000000000E+00  0.14296144473E+03  0.14296144473E+03  0.00000000000E+00 0. -1.
         -1   -1    0    0    0  501 -0.00000000000E+00 -0.00000000000E+00 -0.12626526355E+03  0.12626526355E+03  0.00000000000E+00 0.  1.
         23    2    1    2    0    0 -0.26798360184E+02 -0.67534487078E+02 -0.24272516842E+02  0.11887633850E+03  0.90903078753E+02 0.  0.
          5    1    1    2  502    0 -0.19736149604E+02 -0.26832343520E+02  0.29020155569E+02  0.44374903822E+02  0.41800000000E+01 0. -1.
         -5    1    1    2    0  502  0.46534509789E+02  0.94366830598E+02  0.11948542454E+02  0.10597546596E+03  0.41800000000E+01 0. -1.
        -11    1    3    3    0    0 -0.26537548780E+02 -0.27168048167E+02  0.31972579236E+02  0.49644638778E+02  0.00000000000E+00 0. -1.
         11    1    3    3    0    0 -0.26081140384E+00 -0.40366438911E+02 -0.56245096078E+02  0.69231699717E+02  0.00000000000E+00 0.  1.
</event>
<event>
 6    1  0.6988825E-006  0.1116729E+03  0.7561462E-02  0.1257503E+00
          1   -1    0    0  501    0  0.00000000000E+00  0.00000000000E+00  0.12027476052E+04  0.12027476052E+04  0.00000000000E+00 0. -1.
         -1   -1    0    0    0  501 -0.00000000000E+00 -0.00000000000E+00 -0.61085781490E+02  0.61085781490E+02  0.00000000000E+00 0.  1.
          5    1    1    2  502    0 -0.19296260564E+02  0.10404940650E+02  0.94145388015E+03  0.94171837049E+03  0.41800000000E+01 0. -1.
         -5    1    1    2    0  502 -0.47347498375E+02 -0.13055741720E+02  0.15668503460E+03  0.16425562536E+03  0.41800000000E+01 0.  1.
        -11    1    1    2    0    0  0.33129422431E+02  0.69479921683E+02  0.22719328308E+02  0.80256999859E+02  0.00000000000E+00 0.  1.
         11    1    1    2    0    0  0.33514336509E+02 -0.66829120613E+02  0.20803580606E+02  0.77602390940E+02  0.00000000000E+00 0. -1.
</event>
<event>
 7    1  0.6988825E-006  0.1027196E+03  0.7561462E-02  0.1274679E+00
         -3   -1    0    0    0  501 -0.00000000000E+00  0.00000000000E+00  0.70910965808E+02  0.70910965808E+02  0.00000000000E+00 0.  1.
          3   -1    0    0  501    0  0.00000000000E+00 -0.00000000000E+00 -0.19953282054E+03  0.19953282054E+03  0.00000000000E+00 0. -1.
         23    2    1    2    0    0  0.24057731306E+02 -0.40962031915E+02 -0.39429261620E+02  0.10963772239E+03  0.90604089339E+02 0.  0.
          5    1    1    2  502    0  0.38403326464E+02  0.41282814932E+02 -0.79355327058E+02  0.97436269554E+02  0.41800000000E+01 0. -1.
         -5    1    1    2    0  502 -0.62461057770E+02 -0.32078301673E+00 -0.98372660562E+01  0.63369794405E+02  0.41800000000E+01 0. -1.
        -11    1    3    3    0    0  0.34579156415E+02 -0.57265498829E+02 -0.53509199233E+02  0.85663818600E+02  0.00000000000E+00 0.  1.
         11    1    3    3    0    0 -0.10521425109E+02  0.16303466915E+02  0.14079937613E+02  0.23973903790E+02  0.00000000000E+00 0. -1.
</event>
<event>
 7    1  0.6988825E-006  0.9292895E+02  0.7561462E-02  0.1295910E+00
          1   -1    0    0  501    0  0.00000000000E+00  0.00000000000E+00  0.75999614062E+03  0.75999614062E+03  0.00000000000E+00 0. -1.
         -1   -1    0    0    0  501 -0.00000000000E+00 -0.00000000000E+00 -0.29792745023E+02  0.29792745023E+02  0.00000000000E+00 0.  1.
         23    2    1    2    0    0 -0.20552295888E+02 -0.64354003828E+02  0.12728500086E+03  0.17033521355E+03  0.90822788193E+02 0.  0.
          5    1    1    2  502    0  0.16250361207E+02  0.65054150172E+02  0.12855321668E+03  0.14505005555E+03  0.41800000000E+01 0.  1.
         -5    1    1    2    0  502  0.43019346818E+01 -0.70014634408E+00  0.47436517805E+03  0.47440361655E+03  0.41800000000E+01 0.  1.
        -11    1    3    3    0    0 -0.37734014787E+01 -0.85532701774E+02  0.89205067177E+02  0.12364313827E+03  0.00000000000E+00 0.  1.
         11    1    3    3    0    0 -0.16778894410E+02  0.21178697946E+02  0.38079933686E+02  0.46692075278E+02  0.00000000000E+00 0. -1.
</event>
<event>
 7    1  0.6988825E-006  0.2046023E+03  0.7561462E-02  0.1145913E+00
          2   -1    0    0  501    0  0.00000000000E+00  0.00000000000E+00  0.60125542910E+02  0.60125542910E+02  0.00000000000E+00 0. -1.
         -2   -1    0    0    0  501 -0.00000000000E+00 -0.00000000000E+00 -0.83366458180E+03  0.83366458180E+03  0.00000000000E+00 0.  1.
         23    2    1    2    0    0  0.14084737904E+03  0.93503691802E+02 -0.55837866728E+03  0.59292220218E+03  0.10577843447E+03 0.  0.
          5    1    1    2  502    0 -0.12356785564E+03 -0.92914315113E+01 -0.11977226020E+03  0.17238971072E+03  0.41800000000E+01 0. -1.
         -5    1    1    2    0  502 -0.17279523402E+02 -0.84212260291E+02 -0.95388111401E+02  0.12847821181E+03  0.41800000000E+01 0. -1.
        -11    1    3    3    0    0  0.43251729003E+02  0.91867255456E+02 -0.30024852108E+03  0.31695343364E+03  0.00000000000E+00 0.  1.
         11    1    3    3    0    0  0.97595650042E+02  0.16364363465E+01 -0.25813014621E+03  0.27596876855E+03  0.00000000000E+00 0. -1.
</event>
<event>
 7    1  0.6988825E-006  0.1855864E+03  0.7561462E-02  0.1162503E+00
          2   -1    0    0  501    0  0.00000000000E+00  0.00000000000E+00  0.35642431332E+03  0.35642431332E+03  0.00000000000E+00 0. -1.
         -2   -1    0    0    0  501 -0.00000000000E+00 -0.00000000000E+00 -0.11250665592E+03  0.11250665592E+03  0.00000000000E+00 0.  1.
         23    2    1    2    0    0  0.12662912922E+03 -0.11046302156E+03  0.12638956166E+03  0.22872746199E+03  0.90027301826E+02 0.  0.
          5    1    1    2  502    0 -0.51677452478E+02 -0.17170014337E+02  0.62359432061E+01  0.54970245357E+02  0.41800000000E+01 0.  1.
         -5    1    1    2    0  502 -0.74951676739E+02  0.12763303589E+03  0.11129215253E+03  0.18523326190E+03  0.41800000000E+01 0.  1.
        -11    1    3    3    0    0  0.67397328558E+02 -0.66858999477E+02  0.12262724911E+03  0.15508052080E+03  0.00000000000E+00 0. -1.
         11    1    3    3    0    0  0.59231800658E+02 -0.43604022079E+02  0.37623125502E+01  0.73646941188E+02  0.00000000000E+00 0.  1.
</event>
<event>
 7    1  0.6988825E-006  0.8815077E+02  0.7561462E-02  0.1307393E+00
          1   -1    0    0  501    0  0.00000000000E+00  0.00000000000E+00  0.68816725294E+03  0.68816725294E+03  0.00000000000E+00 0. -1.
         -1   -1    0    0    0  501 -0.00000000000E+00 -0.00000000000E+00 -0.25166030143E+02  0.25166030143E+02  0.00000000000E+00 0.  1.
         23    2    1    2    0    0  0.11362900180E+01  0.58830490042E+02  0.16765038616E+03  0.19905588635E+03  0.89745619383E+02 0.  0.
          5    1    1    2  502    0  0.17577190734E+02 -0.44780268324E+02  0.54613618767E+02  0.72899587242E+02  0.41800000000E+01 0.  1.
         -5    1    1    2    0  502 -0.18713480752E+02 -0.14050221718E+02  0.44073721787E+03  0.44137780949E+03  0.41800000000E+01 0.  1.
        -11    1    3    3    0    0  0.42744987612E+02  0.40108082048E+02  0.70207468796E+02  0.91459722755E+02  0.00000000000E+00 0.  1.
         11    1    3    3    0    0 -0.41608697594E+02  0.18722407994E+02  0.97442917366E+02  0.10759616360E+03  0.00000000000E+00 0. -1.
</event>
<event>
 7    1  0.6988825E-006  0.1878673E+03  0.7561462E-02  0.1160399E+00
         -1   -1    0    0    0  501 -0.00000000000E+00  0.00000000000E+00  0.21711960493E+03  0.21711960493E+03  0.00000000000E+00 0.  1.
          1   -1    0    0  501    0  0.00000000000E+00 -0.00000000000E+00 -0.18930548862E+03  0.18930548862E+03  0.00000000000E+00 0. -1.
         23    2    1    2    0    0 -0.34734398623E+02 -0.15931555224E+03  0.74455142250E+02  0.19569325843E+03  0.78513435518E+02 0.  0.
          5    1    1    2  502    0  0.58667175093E+02  0.35711204076E+02  0.15099640000E+02  0.70445717103E+02  0.41800000000E+01 0.  1.
         -5    1    1    2    0  502 -0.23932776470E+02  0.12360434816E+03 -0.61740665940E+02  0.14028611800E+03  0.41800000000E+01 0.  1.
        -11    1    3    3    0    0 -0.16966237533E+02  0.33751454039E+01  0.79608292049E+01  0.19042573989E+02  0.00000000000E+00 0.  1.
         11    1    3    3    0    0 -0.17768161090E+02 -0.16269069764E+03  0.66494313045E+02  0.17665068445E+03  0.00000000000E+00 0. -1.
</event>
<event>
 7    1  0.6988825E-006  0.1294389E+03  0.7561462E-02  0.1228291E+00
         -1   -1    0    0    0  501 -0.00000000000E+00  0.00000000000E+00  0.70909430366E+02  0.70909430366E+02  0.00000000000E+00 0.  1.
          1   -1    0    0  501    0  0.00000000000E+00 -0.00000000000E+00 -0.32820854445E+03  0.32820854445E+03  0.00000000000E+00 0. -1.
         23    2    1    2    0    0  0.40715569033E+02  0.96734436537E+02 -0.91741597034E+02  0.16657940503E+03  0.91196868249E+02 0.  0.
          5    1    1    2  502    0 -0.76688320745E+02 -0.53643640020E+02 -0.55408372460E+02  0.10884070375E+03  0.41800000000E+01 0. -1.
         -5    1    1    2    0  502  0.35972751711E+02 -0.43090796517E+02 -0.11014914459E+03  0.12369786605E+03  0.41800000000E+01 0. -1.
        -11    1    3    3    0    0  0.33066365074E+02  0.41098499556E+02 -0.96751837067E+02  0.11019704688E+03  0.00000000000E+00 0. -1.
         11    1    3    3    0    0  0.76492039589E+01  0.55635936981E+02  0.50102400332E+01  0.56382358147E+02  0.00000000000E+00 0.  1.
</event>
<event>
 7    1  0.6988825E-006  0.1144965E+03  0.7561462E-02  0.1252462E+00
          1   -1    0    0  501    0  0.00000000000E+00  0.00000000000E+00  0.39282993617E+03  0.39282993617E+03  0.00000000000E+00 0. -1.
         -1   -1    0    0    0  501 -0.00000000000E+00 -0.00000000000E+00 -0.44150721401E+02  0.44150721401E+02  0.00000000000E+00 0.  1.
         23    2    1    2    0    0  0.25250510030E+02 -0.56961696062E+02  0.93449868746E+02  0.14599650940E+03  0.93273145718E+02 0.  0.
          5    1    1    2  502    0 -0.41055999754E+01  0.82912902779E+02  0.90675089971E+02  0.12300751904E+03  0.41800000000E+01 0. -1.
         -5    1    1    2    0  502 -0.21144910055E+02 -0.25951206718E+02  0.16455425605E+03  0.16797662914E+03  0.41800000000E+01 0. -1.
        -11    1    3    3    0    0  0.33878176212E+02 -0.80355137397E+02  0.71219167448E+02  0.11259151274E+03  0.00000000000E+00 0. -1.
         11    1    3    3    0    0 -0.86276661813E+01  0.23393441336E+02  0.22230701298E+02  0.33404996654E+02  0.00000000000E+00 0.  1.
</event>
<event>
 7    1  0.6988825E-006  0.2029508E+03  0.7561462E-02  0.1147273E+00
         -1   -1    0    0    0  501 -0.00000000000E+00  0.00000000000E+00  0.42326793253E+02  0.42326793253E+02  0.00000000000E+00 0.  1.
          1   -1    0    0  501    0  0.00000000000E+00 -0.00000000000E+00 -0.13507988981E+04  0.13507988981E+04  0.00000000000E+00 0. -1.
         23    2    1    2    0    0  0.19474816131E+03  0.48369601906E+02 -0.42284707816E+03  0.47647744966E+03  0.89244853055E+02 0.  0.
          5    1    1    2  502    0 -0.16103593667E+03 -0.41357889679E+02 -0.85288869312E+03  0.86895318814E+03  0.41800000000E+01 0. -1.
         -5    1    1    2    0  502 -0.33712224646E+02 -0.70117122274E+01 -0.32736333599E+02  0.47695053585E+02  0.41800000000E+01 0. -1.
        -11    1    3    3    0    0  0.16759469719E+03  0.55987071582E+02 -0.40797060253E+03  0.44459256318E+03  0.00000000000E+00 0. -1.
         11    1    3    3    0    0  0.27153464124E+02 -0.76174696757E+01 -0.14876475636E+02  0.31884886475E+02  0.00000000000E+00 0.  1.
</event>
<event>
 7    1  0.6988825E-006  0.7455984E+02  0.7561462E-02  0.1345239E+00
         -2   -1    0    0    0  501 -0.00000000000E+00  0.00000000000E+00  0.12190525044E+03  0.12190525044E+03  0.00000000000E+00 0.  1.
          2   -1    0    0  501    0  0.00000000000E+00 -0.00000000000E+00 -0.12574000965E+03  0.12574000965E+03  0.00000000000E+00 0. -1.
         23    2    1    2    0    0  0.28593744072E+02 -0.20313699645E+02  0.47040126222E+02  0.10812512054E+03  0.90818608355E+02 0.  0.
          5    1    1    2  502    0  0.34103603387E+02  0.34031052003E+02 -0.57188806211E+02  0.74894594066E+02  0.41800000000E+01 0. -1.
         -5    1    1    2    0  502 -0.62697347459E+02 -0.13717352358E+02  0.63139207815E+01  0.64625545489E+02  0.41800000000E+01 0. -1.
        -11    1    3    3    0    0  0.20680327500E+02 -0.88044217737E+01  0.74229618285E+02  0.77557913968E+02  0.00000000000E+00 0.  1.
         11    1    3    3    0    0  0.79134165723E+01 -0.11509277871E+02 -0.27189492063E+02  0.30567206572E+02  0.00000000000E+00 0. -1.
</event>
<event>
 7    1  0.6988825E-006  0.9902362E+02  0.7561462E-02  0.1282363E+00
          2   -1    0    0  501    0  0.00000000000E+00  0.00000000000E+00  0.52672674238E+03  0.52672674238E+03  0.00000000000E+00 0. -1.
         -2   -1    0    0    0  501 -0.00000000000E+00 -0.00000000000E+00 -0.25546052689E+02  0.25546052689E+02  0.00000000000E+00 0.  1.
         23    2    1    2    0    0  0.29411001598E+02 -0.15757171382E+02  0.16571270632E+03  0.19269299362E+03  0.92501855605E+02 0.  0.
          5    1    1    2  502    0 -0.75577061556E+02 -0.10061244780E+02  0.19364603090E+03  0.20815710068E+03  0.41800000000E+01 0. -1.
         -5    1    1    2    0  502  0.46166059958E+02  0.25818416162E+02  0.14182195248E+03  0.15142270077E+03  0.41800000000E+01 0. -1.
        -11    1    3    3    0    0  0.87225809738E+01  0.23053482910E+02  0.38323722486E+01  0.24944610043E+02  0.00000000000E+00 0.  1.
         11    1    3    3    0    0  0.20688420624E+02 -0.38810654293E+02  0.16188033407E+03  0.16774838358E+03  0.00000000000E+00 0. -1.
</event>
<event>
 7    1  0.6988825E-006  0.8989827E+02  0.7561462E-02  0.1303098E+00
         -1   -1    0    0    0  501 -0.00000000000E+00  0.00000000000E+00  0.30100252134E+03  0.30100252134E+03  0.00000000000E+00 0.  1.
          1   -1    0    0  501    0  0.00000000000E+00 -0.00000000000E+00 -0.49113415403E+02  0.49113415403E+02  0.00000000000E+00 0. -1.
         23    2    1    2    0    0 -0.11772436003E+02 -0.42334349744E+02  0.15888200597E+03  0.18816209139E+03  0.90723169019E+02 0.  0.
          5    1    1    2  502    0  0.49385777300E+02  0.34343787816E+02  0.10532184985E+03  0.12136150632E+03  0.41800000000E+01 0. -1.
         -5    1    1    2    0  502 -0.37613341298E+02  0.79905619277E+01 -0.12314749883E+02  0.40592339033E+02  0.41800000000E+01 0. -1.
        -11    1    3    3    0    0  0.17754647813E+02 -0.47620058119E+02  0.14761601107E+03  0.15611977511E+03  0.00000000000E+00 0.  1.
         11    1    3    3    0    0 -0.29527083815E+02  0.52857083756E+01  0.11265994897E+02  0.32042316282E+02  0.00000000000E+00 0. -1.
</event>
<event>
 7    1  0.6988825E-006  0.1370105E+03  0.7561462E-02  0.1217409E+00
         -3   -1    0    0    0  501 -0.00000000000E+00  0.00000000000E+00  0.17795271123E+03  0.17795271123E+03  0.00000000000E+00 0.  1.
          3   -1    0    0  501    0  0.00000000000E+00 -0.00000000000E+00 -0.15940267109E+03  0.15940267109E+03  0.00000000000E+00 0. -1.
         23    2    1    2    0    0  0.88919725712E+02  0.86556836253E+02  0.42279319804E+02  0.15957155440E+03  0.90976571528E+02 0.  0.
          5    1    1    2  502    0 -0.84778381939E+02 -0.70315548051E+02  0.35727248137E+02  0.11586871451E+03  0.41800000000E+01 0. -1.
         -5    1    1    2    0  502 -0.41413437726E+01 -0.16241288203E+02 -0.59456527806E+02  0.61915113417E+02  0.41800000000E+01 0. -1.
        -11    1    3    3    0    0 -0.10432937437E+02  0.30965425850E+02  0.31211366134E+02  0.45186869305E+02  0.00000000000E+00 0.  1.
         11    1    3    3    0    0  0.99352663149E+02  0.55591410403E+02  0.11067953670E+02  0.11438468509E+03  0.00000000000E+00 0. -1.
</event>
<event>
 7    1  0.6988825E-006  0.1191965E+03  0.7561462E-02  0.1244428E+00
         -2   -1    0    0    0  501 -0.00000000000E+00  0.00000000000E+00  0.91354405626E+02  0.91354405626E+02  0.00000000000E+00 0.  1.
          2   -1    0    0  501    0  0.00000000000E+00 -0.00000000000E+00 -0.25447382217E+03  0.25447382217E+03  0.00000000000E+00 0. -1.
         23    2    1    2    0    0  0.18459459679E+02 -0.82000754020E+02 -0.13072987812E+01  0.12471073673E+03  0.92120483680E+02 0.  0.
          5    1    1    2  502    0 -0.24380217155E+02  0.11451152714E+03 -0.12070874662E+03  0.16821224315E+03  0.41800000000E+01 0.  1.
         -5    1    1    2    0  502  0.59207574765E+01 -0.32510773118E+02 -0.41103371139E+02  0.52905247914E+02  0.41800000000E+01 0.  1.
        -11    1    3    3    0    0  0.24338711685E+02 -0.52728715499E+02  0.42310493250E+02  0.71853101281E+02  0.00000000000E+00 0.  1.
         11    1    3    3    0    0 -0.58792520063E+01 -0.29272038521E+02 -0.43617792031E+02  0.52857635446E+02  0.00000000000E+00 0. -1.
</event>
<event>
 7    1  0.6988825E-006  0.9737144E+02  0.7561462E-02  0.1285923E+00
          1   -1    0    0  501    0  0.00000000000E+00  0.00000000000E+00  0.79356861909E+02  0.79356861909E+02  0.00000000000E+00 0. -1.
         -1   -1    0    0    0  501 -0.00000000000E+00 -0.00000000000E+00 -0.19438968359E+03  0.19438968359E+03  0.00000000000E+00 0.  1.
         23    2    1    2    0    0 -0.20011676113E+02  0.20362806282E+02 -0.11318439740E+03  0.14542533769E+03  0.86733557319E+02 0.  0.
          5    1    1    2  502    0  0.29846963188E+02  0.35612183445E+02 -0.38566415866E+02  0.60530237518E+02  0.41800000000E+01 0. -1.
         -5    1    1    2    0  502 -0.98352870752E+01 -0.55974989726E+02  0.36717991589E+02  0.67790970292E+02  0.41800000000E+01 0. -1.
        -11    1    3    3    0    0 -0.39745857067E+02 -0.21234401006E+02 -0.51079909622E+02  0.68116004779E+02  0.00000000000E+00 0.  1.
         11    1    3    3    0    0  0.19734180955E+02  0.41597207288E+02 -0.62104487780E+02  0.77309332906E+02  0.00000000000E+00 0. -1.
</event>
<event>
 7    1  0.6988825E-006  0.1384674E+03  0.7561462E-02  0.1215406E+00
          1   -1    0    0  501    0  0.00000000000E+00  0.00000000000E+00  0.22917831347E+03  0.22917831347E+03  0.00000000000E+00 0. -1.
         -1   -1    0    0    0  501 -0.00000000000E+00 -0.00000000000E+00 -0.92450839874E+02  0.92450839874E+02  0.00000000000E+00 0.  1.
         23    2    1    2    0    0 -0.23741854325E+02  0.89648922166E+02  0.31786487998E+02  0.13384924779E+03  0.91129772426E+02 0.  0.
          5    1    1    2  502    0 -0.28773549205E+02  0.13113795655E+02  0.51399773789E+02  0.60492131025E+02  0.41800000000E+01 0.  1.
         -5    1    1    2    0  502  0.52515403530E+02 -0.10276271782E+03  0.53541211805E+02  0.12728777452E+03  0.41800000000E+01 0.  1.
        -11    1    3    3    0    0  0.22703215065E+02 -0.57805333053E+01  0.14750986770E+01  0.23473952707E+02  0.00000000000E+00 0. -1.
         11    1    3    3    0    0 -0.46445069389E+02  0.95429455472E+02  0.30311389321E+02  0.11037529508E+03  0.00000000000E+00 0.  1.
</event>
<event>
 7    1  0.6988825E-006  0.7322391E+02  0.7561462E-02  0.1349461E+00
         -3   -1    0    0    0  501 -0.00000000000E+00  0.00000000000E+00  0.31578947209E+03  0.31578947209E+03  0.00000000000E+00 0.  1.
          3   -1    0    0  501    0  0.00000000000E+00 -0.00000000000E+00 -0.42726362514E+02  0.42726362514E+02  0.00000000000E+00 0. -1.
         23    2    1    2    0    0  0.40975270682E+01 -0.81533751826E+01  0.18370005322E+03  0.20451441571E+03  0.89426894302E+02 0.  0.
          5    1    1    2  502    0  0.36041348044E+02 -0.34327819721E+01  0.10347620830E+03  0.10970670374E+03  0.41800000000E+01 0.  1.
         -5    1    1    2    0  502 -0.40138875112E+02  0.11586157155E+02 -0.14113151946E+02  0.44294715156E+02  0.41800000000E+01 0.  1.
        -11    1    3    3    0    0  0.34199270544E+02 -0.14677807608E+02  0.30123196040E+02  0.47879380547E+02  0.00000000000E+00 0. -1.
         11    1    3    3    0    0 -0.30101743475E+02  0.65244324253E+01  0.15357685718E+03  0.15663503516E+03  0.00000000000E+00 0.  1.
</event>
<event>
 7    1  0.6988825E-006  0.1016305E+03  0.7561462E-02  0.1276904E+00
          1   -1    0    0  501    0  0.00000000000E+00  0.00000000000E+00  0.42100806556E+03  0.42100806556E+03  0.00000000000E+00 0. -1.
         -1   -1    0    0    0  501 -0.00000000000E+00 -0.00000000000E+00 -0.47467728355E+02  0.47467728355E+02  0.00000000000E+00 0.  1.
         23    2    1    2    0    0  0.48625633745E+02 -0.58368255298E+01  0.44499045986E+02  0.11306324603E+03  0.91676669441E+02 0.  0.
          5    1    1    2  502    0 -0.41899837482E+02 -0.56932293593E+02  0.16247474229E+03  0.17723542738E+03  0.41800000000E+01 0.  1.
         -5    1    1    2    0  502 -0.67257962625E+01  0.62769119123E+02  0.16656654892E+03  0.17817712050E+03  0.41800000000E+01 0.  1.
        -11    1    3    3    0    0 -0.90802899073E+01 -0.69989116818E+01  0.53441139594E+02  0.54657038253E+02  0.00000000000E+00 0. -1.
         11    1    3    3    0    0  0.57705923652E+02  0.11620861519E+01 -0.89420936075E+01  0.58406207777E+02  0.00000000000E+00 0.  1.
</event>
<event>
 7    1  0.6988825E-006  0.1372619E+03  0.7561462E-02  0.1217061E+00
         -1   -1    0    0    0  501 -0.00000000000E+00  0.00000000000E+00  0.60666071482E+03  0.60666071482E+03  0.00000000000E+00 0.  1.
          1   -1    0    0  501    0  0.00000000000E+00 -0.00000000000E+00 -0.32547892332E+02  0.32547892332E+02  0.00000000000E+00 0. -1.
         23    2    1    2    0    0  0.80395411747E+02  0.33834453139E+02  0.24189935861E+03  0.27366210702E+03  0.93634698022E+02 0.  0.
          5    1    1    2  502    0 -0.95247540285E+02 -0.66181570124E+02  0.26702348861E+03  0.29115478705E+03  0.41800000000E+01 0.  1.
         -5    1    1    2    0  502  0.14852128538E+02  0.32347116985E+02  0.65189975272E+02  0.74391713082E+02  0.41800000000E+01 0.  1.
        -11    1    3    3    0    0  0.99131077915E+02  0.28529988572E+02  0.16714922217E+03  0.19641739568E+03  0.00000000000E+00 0.  1.
         11    1    3    3    0    0 -0.18735666168E+02  0.53044645679E+01  0.74750136443E+02  0.77244711335E+02  0.00000000000E+00 0. -1.
</event>
<event>
 7    1  0.6988825E-006  0.9143323E+02  0.7561462E-02  0.1299418E+00
          2   -1    0    0  501    0  0.00000000000E+00  0.00000000000E+00  0.56002297453E+03  0.56002297453E+03  0.00000000000E+00 0. -1.
         -2   -1    0    0    0  501 -0.00000000000E+00 -0.00000000000E+00 -0.23439609866E+02  0.23439609866E+02  0.00000000000E+00 0.  1.
         23    2    1    2    0    0  0.28129941213E+02  0.23417871958E+02  0.18097779289E+03  0.20472961400E+03  0.88439600901E+02 0.  0.
          5    1    1    2  502    0 -0.38964353941E+02  0.43942675206E+02  0.20604886130E+03  0.21429602242E+03  0.41800000000E+01 0. -1.
         -5    1    1    2    0  502  0.10834412728E+02 -0.67360547164E+02  0.14955671048E+03  0.16443694798E+03  0.41800000000E+01 0. -1.
        -11    1    3    3    0    0 -0.11140626027E+02  0.41206471628E+01 -0.55697045073E+01  0.13119256443E+02  0.00000000000E+00 0.  1.
         11    1    3    3    0    0  0.39270567240E+02  0.19297224795E+02  0.18654749740E+03  0.19161035755E+03  0.00000000000E+00 0. -1.
</event>
<event>
 7    1  0.6988825E-006  0.8969289E+02  0.7561462E-02  0.1303597E+00
         -2   -1    0    0    0  501 -0.00000000000E+00  0.00000000000E+00  0.36784890602E+02  0.36784890602E+02  0.00000000000E+00 0.  1.
          2   -1    0    0  501    0  0.00000000000E+00 -0.00000000000E+00 -0.36453959176E+03  0.36453959176E+03  0.00000000000E+00 0. -1.
         23    2    1    2    0    0  0.11428004129E+02 -0.37780031212E+02 -0.13560868250E+03  0.16867613754E+03  0.92217105621E+02 0.  0.
          5    1    1    2  502    0  0.13192478960E+02  0.49572275311E+02 -0.19786176484E+03  0.20444608670E+03  0.41800000000E+01 0.  1.
         -5    1    1    2    0  502 -0.24620483089E+02 -0.11792244098E+02  0.57157461887E+01  0.28202258117E+02  0.41800000000E+01 0.  1.
        -11    1    3    3    0    0 -0.32879923505E+02 -0.44664250349E+02 -0.73922042401E+02  0.92414571263E+02  0.00000000000E+00 0. -1.
         11    1    3    3    0    0  0.44307927634E+02  0.68842191367E+01 -0.61686640097E+02  0.76261566276E+02  0.00000000000E+00 0.  1.
</event>
<event>
 7    1  0.6988825E-006  0.1149272E+03  0.7561462E-02  0.1251708E+00
          2   -1    0    0  501    0  0.00000000000E+00  0.00000000000E+00  0.86019049643E+02  0.86019049643E+02  0.00000000000E+00 0. -1.
         -2   -1    0    0    0  501 -0.00000000000E+00 -0.00000000000E+00 -0.17383624429E+03  0.17383624429E+03  0.00000000000E+00 0.  1.
         23    2    1    2    0    0  0.44647503843E+02  0.21407374242E+02 -0.70604009171E+02  0.12422194416E+03  0.89411912117E+02 0.  0.
          5    1    1    2  502    0 -0.42477498085E+02  0.48304448348E+02 -0.12005993492E+02  0.65568848194E+02  0.41800000000E+01 0. -1.
         -5    1    1    2    0  502 -0.21700057589E+01 -0.69711822590E+02 -0.52071919879E+01  0.70064501584E+02  0.41800000000E+01 0. -1.
        -11    1    3    3    0    0  0.42502568361E+02 -0.24838129021E+02 -0.58330827611E+02  0.76327494524E+02  0.00000000000E+00 0.  1.
         11    1    3    3    0    0  0.21449354826E+01  0.46245503263E+02 -0.12273181561E+02  0.47894449636E+02  0.00000000000E+00 0. -1.
</event>
<event>
 7    1  0.6988825E-006  0.1421401E+03  0.7561462E-02  0.1210478E+00
         -1   -1    0    0    0  501 -0.00000000000E+00  0.00000000000E+00  0.15569914626E+02  0.15569914626E+02  0.00000000000E+00 0.  1.
          1   -1    0    0  501    0  0.00000000000E+00 -0.00000000000E+00 -0.13838348976E+04  0.13838348976E+04  0.00000000000E+00 0. -1.
         23    2    1    2    0    0  0.75053241038E+02  0.59123253054E+02 -0.50525847517E+03  0.52216156064E+03  0.90763542417E+02 0.  0.
          5    1    1    2  502    0 -0.10612117298E+03 -0.29577581666E+02 -0.52113312807E+03  0.53266663708E+03  0.41800000000E+01 0. -1.
         -5    1    1    2    0  502  0.31067931942E+02 -0.29545671387E+02 -0.34187337978E+03  0.34457661455E+03  0.41800000000E+01 0. -1.
        -11    1    3    3    0    0  0.81703292930E+01  0.63413439486E+02 -0.27590417871E+03  0.28321570298E+03  0.00000000000E+00 0.  1.
         11    1    3    3    0    0  0.66882911745E+02 -0.42901864324E+01 -0.22935429646E+03  0.23894585765E+03  0.00000000000E+00 0. -1.
</event>
<event>
 7    1  0.6988825E-006  0.1034959E+03  0.7561462E-02  0.1273112E+00
          2   -1    0    0  501    0  0.00000000000E+00  0.00000000000E+00  0.60421070191E+03  0.60421070191E+03  0.00000000000E+00 0. -1.
         -2   -1    0    0    0  501 -0.00000000000E+00 -0.00000000000E+00 -0.22526629423E+02  0.22526629423E+02  0.00000000000E+00 0.  1.
         23    2    1    2    0    0 -0.14848287106E+02  0.22026990590E+02  0.17099599206E+03  0.19660123884E+03  0.93310009463E+02 0.  0.
          5    1    1    2  502    0 -0.40944030080E+02  0.28106070536E+02  0.12091227870E+03  0.13078079500E+03  0.41800000000E+01 0.  1.
         -5    1    1    2    0  502  0.55792317186E+02 -0.50133061126E+02  0.28977580173E+03  0.29935529750E+03  0.41800000000E+01 0.  1.
        -11    1    3    3    0    0  0.90510873711E+01 -0.26464107312E+02  0.11661051629E+03  0.11991782048E+03  0.00000000000E+00 0. -1.
         11    1    3    3    0    0 -0.23899374477E+02  0.48491097902E+02  0.54385475769E+02  0.76683418356E+02  0.00000000000E+00 0.  1.
</event>
<event>
 7    1  0.6988825E-006  0.1513440E+03  0.7561462E-02  0.1198831E+00
         -1   -1    0    0    0  501 -0.00000000000E+00  0.00000000000E+00  0.17512837098E+02  0.17512837098E+02  0.00000000000E+00 0.  1.
          1   -1    0    0  501    0  0.00000000000E+00 -0.00000000000E+00 -0.18451995956E+04  0.18451995956E+04  0.00000000000E+00 0. -1.
         23    2    1    2    0    0  0.11911995282E+03  0.47268147709E+02 -0.51378120489E+03  0.53665833360E+03  0.87219261512E+02 0.  0.
          5    1    1    2  502    0 -0.71840971319E+02 -0.65122606959E+02 -0.43539217352E+03  0.44607835215E+03  0.41800000000E+01 0. -1.
         -5    1    1    2    0  502 -0.47278981497E+02  0.17854459251E+02 -0.87851338005E+03  0.87997574690E+03  0.41800000000E+01 0. -1.
        -11    1    3    3    0    0  0.30631533296E+02 -0.25891346191E+02 -0.14145486962E+03  0.14703106059E+03  0.00000000000E+00 0. -1.
         11    1    3    3    0    0  0.88488419520E+02  0.73159493900E+02 -0.37232633528E+03  0.38962727302E+03  0.00000000000E+00 0.  1.
</event>
<event>
 7    1  0.6988825E-006  0.1065941E+03  0.7561462E-02  0.1267010E+00
          2   -1    0    0  501    0  0.00000000000E+00  0.00000000000E+00  0.12055999390E+04  0.12055999390E+04  0.00000000000E+00 0. -1.
         -2   -1    0    0    0  501 -0.00000000000E+00 -0.00000000000E+00 -0.11120029770E+02  0.11120029770E+02  0.00000000000E+00 0.  1.
         23    2    1    2    0    0 -0.61047077239E+01 -0.16740572599E+02  0.34493989613E+03  0.35783507996E+03  0.93514160879E+02 0.  0.
          5    1    1    2  502    0  0.30176870254E+02  0.65065319104E+02  0.51608950573E+03  0.52106620459E+03  0.41800000000E+01 0. -1.
         -5    1    1    2    0  502 -0.24072162530E+02 -0.48324746505E+02  0.33345050737E+03  0.33781868421E+03  0.41800000000E+01 0. -1.
        -11    1    3    3    0    0  0.36880878738E+02 -0.23425432729E+02  0.10097898269E+03  0.11002592903E+03  0.00000000000E+00 0.  1.
         11    1    3    3    0    0 -0.42985586462E+02  0.66848601303E+01  0.24396091344E+03  0.24780915093E+03  0.00000000000E+00 0. -1.
</event>
<event>
 7    1  0.6988825E-006  0.1447197E+03  0.7561462E-02  0.1207116E+00
         -1   -1    0    0    0  501 -0.00000000000E+00  0.00000000000E+00  0.15726193887E+02  0.15726193887E+02  0.00000000000E+00 0.  1.
          1   -1    0    0  501    0  0.00000000000E+00 -0.00000000000E+00 -0.20141183879E+04  0.20141183879E+04  0.00000000000E+00 0. -1.
         23    2    1    2    0    0  0.11879809996E+03  0.40859461280E+02 -0.56722106517E+03  0.58773411793E+03  0.88933528369E+02 0.  0.
          5    1    1    2  502    0 -0.75554001336E+02 -0.60249517691E+02 -0.12795384008E+04  0.12831891532E+04  0.41800000000E+01 0. -1.
         -5    1    1    2    0  502 -0.43244098627E+02  0.19390056411E+02 -0.15163272810E+03  0.15892131067E+03  0.41800000000E+01 0. -1.
        -11    1    3    3    0    0  0.65114103887E+02 -0.15883954571E+02 -0.36193845770E+03  0.36809182781E+03  0.00000000000E+00 0. -1.
         11    1    3    3    0    0  0.53683996076E+02  0.56743415851E+02 -0.20528260748E+03  0.21964229012E+03  0.00000000000E+00 0.  1.
</event>
<event>
 7    1  0.6988825E-006  0.9844369E+02  0.7561462E-02  0.1283603E+00
         -1   -1    0    0    0  501 -0.00000000000E+00  0.00000000000E+00  0.13887569567E+03  0.13887569567E+03  0.00000000000E+00 0. -1.
          1   -1    0    0  501    0  0.00000000000E+00 -0.00000000000E+00 -0.98137631645E+02  0.98137631645E+02  0.00000000000E+00 0.  1.
         23    2    1    2    0    0 -0.13597026234E+01  0.14507955990E+02  0.60206074654E+02  0.10958089799E+03  0.90392876938E+02 0.  0.
          5    1    1    2  502    0  0.29572753213E+02 -0.52538358442E+02 -0.43213568286E+02  0.74294762429E+02  0.41800000000E+01 0. -1.
         -5    1    1    2    0  502 -0.28213050590E+02  0.38030402452E+02  0.23745557652E+02  0.53137666889E+02  0.41800000000E+01 0. -1.
        -11    1    3    3    0    0  0.15965560503E+02  0.48338767902E+02  0.21280507304E+02  0.55176041862E+02  0.00000000000E+00 0. -1.
         11    1    3    3    0    0 -0.17325263127E+02 -0.33830811911E+02  0.38925567350E+02  0.54404856130E+02  0.00000000000E+00 0.  1.
</event>
<event>
 7    1  0.6988825E-006  0.1095622E+03  0.7561462E-02  0.1261383E+00
         -1   -1    0    0    0  501 -0.00000000000E+00  0.00000000000E+00  0.42896905118E+02  0.42896905118E+02  0.00000000000E+00 0.  1.
          1   -1    0    0  501    0  0.00000000000E+00 -0.00000000000E+00 -0.65288937716E+03  0.65288937716E+03  0.00000000000E+00 0. -1.
         23    2    1    2    0    0 -0.10516592357E+02  0.85199902336E+02 -0.96974619357E+02  0.16019288268E+03  0.94276512400E+02 0.  0.
          5    1    1    2  502    0  0.76089428723E+01 -0.28653701006E+01 -0.37278357750E+03  0.37289566156E+03  0.41800000000E+01 0. -1.
         -5    1    1    2    0  502  0.29076494851E+01 -0.82334532236E+02 -0.14023427518E+03  0.16269773803E+03  0.41800000000E+01 0.  1.
        -11    1    3    3    0    0 -0.35149821404E+02 -0.36032619827E+01 -0.25774066171E+02  0.43735522503E+02  0.00000000000E+00 0.  1.
         11    1    3    3    0    0  0.24633229047E+02  0.88803164319E+02 -0.71200553186E+02  0.11645736018E+03  0.00000000000E+00 0. -1.
</event>
<event>
 7    1  0.6988825E-006  0.1290955E+03  0.7561462E-02  0.1228804E+00
          1   -1    0    0  501    0  0.00000000000E+00  0.00000000000E+00  0.31262058905E+03  0.31262058905E+03  0.00000000000E+00 0. -1.
         -1   -1    0    0    0  501 -0.00000000000E+00 -0.00000000000E+00 -0.74016427981E+02  0.74016427981E+02  0.00000000000E+00 0.  1.
         23    2    1    2    0    0  0.66473331605E+02 -0.41036950466E+02  0.10766002654E+02  0.11523304084E+03  0.84023876194E+02 0.  0.
          5    1    1    2  502    0 -0.97550024445E+02  0.53476118811E+02  0.19369076113E+03  0.22340386277E+03  0.41800000000E+01 0. -1.
         -5    1    1    2    0  502  0.31076692840E+02 -0.12439168345E+02  0.34147397288E+02  0.48000113422E+02  0.41800000000E+01 0. -1.
        -11    1    3    3    0    0  0.18274001016E+02 -0.58946061098E+02  0.15398667500E+02  0.63605787416E+02  0.00000000000E+00 0. -1.
         11    1    3    3    0    0  0.48199330589E+02  0.17909110631E+02 -0.46326648467E+01  0.51627253427E+02  0.00000000000E+00 0.  1.
</event>
<event>
 6    1  0.6988825E-006  0.1040870E+03  0.7561462E-02  0.1271929E+00
         -1   -1    0    0    0  501 -0.00000000000E+00  0.00000000000E+00  0.49312510184E+02  0.49312510184E+02  0.00000000000E+00 0.  1.
          1   -1    0    0  501    0  0.00000000000E+00 -0.00000000000E+00 -0.31625239051E+03  0.31625239051E+03  0.00000000000E+00 0. -1.
          5    1    1    2  502    0  0.92887026660E+01  0.32251604529E+02 -0.12391294395E+03  0.12844584879E+03  0.41800000000E+01 0.  1.
         -5    1    1    2    0  502  0.75062417595E+02 -0.38365978691E+02 -0.36811883313E+02  0.92080953564E+02  0.41800000000E+01 0.  1.
        -11    1    1    2    0    0 -0.44553970550E+02  0.18540470603E+02 -0.26441808745E+02  0.55027035098E+02  0.00000000000E+00 0.  1.
         11    1    1    2    0    0 -0.39797149711E+02 -0.12426096441E+02 -0.79773244314E+02  0.90011063243E+02  0.00000000000E+00 0. -1.
</event>
<event>
 7    1  0.6988825E-006  0.1341405E+03  0.7561462E-02  0.1221438E+00
         -1   -1    0    0    0  501 -0.00000000000E+00  0.00000000000E+00  0.34127338072E+02  0.34127338072E+02  0.00000000000E+00 0.  1.
          1   -1    0    0  501    0  0.00000000000E+00 -0.00000000000E+00 -0.53242207585E+03  0.53242207585E+03  0.00000000000E+00 0. -1.
         23    2    1    2    0    0 -0.79810895671E+02  0.96558848607E+00 -0.24186934334E+03  0.27028612897E+03  0.90460493238E+02 0.  0.
          5    1    1    2  502    0 -0.31767152786E+02 -0.15647490020E+02 -0.56902465808E+02  0.67151760625E+02  0.41800000000E+01 0. -1.
         -5    1    1    2    0  502  0.11157804846E+03  0.14681901534E+02 -0.19952292863E+03  0.22911152432E+03  0.41800000000E+01 0. -1.
        -11    1    3    3    0    0 -0.99359612578E+02 -0.52348302061E+01 -0.21015407540E+03  0.23251767990E+03  0.00000000000E+00 0.  1.
         11    1    3    3    0    0  0.19548716906E+02  0.62004186922E+01 -0.31715267940E+02  0.37768449070E+02  0.00000000000E+00 0. -1.
</event>
<event>
 7    1  0.6988825E-006  0.1659000E+03  0.7561462E-02  0.1182192E+00
          1   -1    0    0  501    0  0.00000000000E+00  0.00000000000E+00  0.61340065493E+03  0.61340065493E+03  0.00000000000E+00 0. -1.
         -1   -1    0    0    0  501 -0.00000000000E+00 -0.00000000000E+00 -0.63234256242E+02  0.63234256242E+02  0.00000000000E+00 0.  1.
         23    2    1    2    0    0 -0.78229051785E+01 -0.15190907440E+03  0.15724636259E+03  0.23712229324E+03  0.91449432337E+02 0.  0.
          5    1    1    2  502    0  0.48052486295E+02  0.97951807357E+02  0.32882505312E+03  0.34647797328E+03  0.41800000000E+01 0.  1.
         -5    1    1    2    0  502 -0.40229581116E+02  0.53957267042E+02  0.64094982975E+02  0.93034644654E+02  0.41800000000E+01 0.  1.
        -11    1    3    3    0    0 -0.16746971728E+02 -0.46993163942E+02  0.11182481740E+03  0.12244839038E+03  0.00000000000E+00 0. -1.
         11    1    3    3    0    0  0.89240665490E+01 -0.10491591046E+03  0.45421545187E+02  0.11467390286E+03  0.00000000000E+00 0.  1.
</event>
<event>
 7    1  0.6988825E-006  0.1564161E+03  0.7561462E-02  0.1192803E+00
          2   -1    0    0  501    0  0.00000000000E+00  0.00000000000E+00  0.67866438482E+03  0.67866438482E+03  0.00000000000E+00 0. -1.
         -2   -1    0    0    0  501 -0.00000000000E+00 -0.00000000000E+00 -0.48740654685E+02  0.48740654685E+02  0.00000000000E+00 0.  1.
         23    2    1    2    0    0  0.95998269935E+02 -0.70548144307E+02  0.13391627220E+03  0.20217755596E+03  0.93538696161E+02 0.  0.
          5    1    1    2  502    0  0.21015709197E+02 -0.11463587023E+02  0.13080513721E+03  0.13304333948E+03  0.41800000000E+01 0. -1.
         -5    1    1    2    0  502 -0.11701397913E+03  0.82011731330E+02  0.36520232073E+03  0.39218414406E+03  0.41800000000E+01 0. -1.
        -11    1    3    3    0    0 -0.97387120902E+01 -0.31318673110E+02  0.92705977604E+01  0.34082925071E+02  0.00000000000E+00 0.  1.
         11    1    3    3    0    0  0.10573698202E+03 -0.39229471197E+02  0.12464567444E+03  0.16809463089E+03  0.00000000000E+00 0. -1.
</event>
<event>
 7    1  0.6988825E-006  0.9409286E+02  0.7561462E-02  0.1293232E+00
          2   -1    0    0  501    0  0.00000000000E+00  0.00000000000E+00  0.64844882261E+03  0.64844882261E+03  0.00000000000E+00 0. -1.
         -2   -1    0    0    0  501 -0.00000000000E+00 -0.00000000000E+00 -0.19390118761E+02  0.19390118761E+02  0.00000000000E+00 0.  1.
         23    2    1    2    0    0  0.38607088868E+02 -0.29656358170E+02  0.31462615708E+03  0.33075401474E+03  0.89658199071E+02 0.  0.
          5    1    1    2  502    0 -0.53391452233E+02  0.45000718246E+02  0.30583174152E+03  0.31372956242E+03  0.41800000000E+01 0. -1.
         -5    1    1    2    0  502  0.14784363365E+02 -0.15344360076E+02  0.86008052460E+01  0.23355364204E+02  0.41800000000E+01 0.  1.
        -11    1    3    3    0    0  0.23293852453E+02  0.28254809090E+02  0.71186038610E+02  0.80052419650E+02  0.00000000000E+00 0. -1.
         11    1    3    3    0    0  0.15313236416E+02 -0.57911167260E+02  0.24344011847E+03  0.25070159509E+03  0.00000000000E+00 0.  1.
</event>
<event>
 6    1  0.6988825E-006  0.7952303E+02  0.7561462E-02  0.1330410E+00
         -4   -1    0    0    0  501 -0.00000000000E+00  0.00000000000E+00  0.13289730834E+03  0.13289730834E+03  0.00000000000E+00 0.  1.
          4   -1    0    0  501    0  0.00000000000E+00 -0.00000000000E+00 -0.96753003034E+02  0.96753003034E+02  0.00000000000E+00 0. -1.
          5    1    1    2  502    0 -0.29171673486E+02  0.51387995521E+00 -0.47831732934E+02  0.56183606880E+02  0.41800000000E+01 0. -1.
         -5    1    1    2    0  502 -0.31721589079E+02  0.40076430875E+02  0.75634689033E+02  0.91380841047E+02  0.41800000000E+01 0. -1.
        -11    1    1    2    0    0  0.34227754691E+02 -0.62196984358E+01  0.15348247549E+02  0.38023578772E+02  0.00000000000E+00 0.  1.
         11    1    1    2    0    0  0.26665507874E+02 -0.34370612394E+02 -0.70068983404E+01  0.44062284676E+02  0.00000000000E+00 0. -1.
</event>
<event>
 7    1  0.6988825E-006  0.1100809E+03  0.7561462E-02  0.1260420E+00
          1   -1    0    0  501    0  0.00000000000E+00  0.00000000000E+00  0.13290429984E+03  0.13290429984E+03  0.00000000000E+00 0. -1.
         -1   -1    0    0    0  501 -0.00000000000E+00 -0.00000000000E+00 -0.12279086441E+03  0.12279086441E+03  0.00000000000E+00 0.  1.
         23    2    1    2    0    0  0.52608305915E+02  0.13629513994E+02 -0.31935622092E+02  0.11297595417E+03  0.93756518488E+02 0.  0.
          5    1    1    2  502    0 -0.60873248868E+02  0.39756806579E+02 -0.20545504869E+01  0.72854990734E+02  0.41800000000E+01 0.  1.
         -5    1    1    2    0  502  0.82649429534E+01 -0.53386320573E+02  0.44103607999E+02  0.69864219347E+02  0.41800000000E+01 0.  1.
        -11    1    3    3    0    0  0.13959096890E+02  0.42613954273E+02  0.13321347149E+02  0.46778881716E+02  0.00000000000E+00 0. -1.
         11    1    3    3    0    0  0.38649209025E+02 -0.28984440279E+02 -0.45256969241E+02  0.66197072453E+02  0.00000000000E+00 0.  1.
</event>
<event>
 7    1  0.6988825E-006  0.9243327E+02  0.7561462E-02  0.1297064E+00
          2   -1    0    0  501    0  0.00000000000E+00  0.00000000000E+00  0.75801950532E+03  0.75801950532E+03  0.00000000000E+00 0. -1.
         -2   -1    0    0    0  501 -0.00000000000E+00 -0.00000000000E+00 -0.16670640036E+02  0.16670640036E+02  0.00000000000E+00 0.  1.
         23    2    1    2    0    0  0.17603875050E+02  0.27280621036E+02  0.23672085053E+03  0.25666377449E+03  0.93730482567E+02 0.  0.
          5    1    1    2  502    0  0.35751669492E+02  0.18130544487E+01  0.34970901857E+03  0.35156128783E+03  0.41800000000E+01 0. -1.
         -5    1    1    2    0  502 -0.53355544541E+02 -0.29093675485E+02  0.15491899619E+03  0.16646508303E+03  0.41800000000E+01 0.  1.
        -11    1    3    3    0    0 -0.26965866377E+02 -0.11033218819E+02  0.14374971913E+03  0.14667266827E+03  0.00000000000E+00 0.  1.
         11    1    3    3    0    0  0.44569741427E+02  0.38313839855E+02  0.92971131393E+02  0.10999110622E+03  0.00000000000E+00 0. -1.
</event>
<event>
 7    1  0.6988825E-006  0.1491570E+03  0.7561462E-02  0.1201513E+00
          3   -1    0    0  501    0  0.00000000000E+00  0.00000000000E+00  0.11884680761E+04  0.11884680761E+04  0.00000000000E+00 0. -1.
         -3   -1    0    0    0  501 -0.00000000000E+00 -0.00000000000E+00 -0.26338278452E+02  0.26338278452E+02  0.00000000000E+00 0.  1.
         23    2    1    2    0    0 -0.12505444420E+02 -0.23002206944E+02  0.31854373612E+03  0.33604248723E+03  0.10377356957E+03 0.  0.
          5    1    1    2  502    0 -0.79333260192E+02 -0.46123263265E+02  0.62544928995E+03  0.63215932192E+03  0.41800000000E+01 0. -1.
         -5    1    1    2    0  502  0.91838704612E+02  0.69125470209E+02  0.21813677155E+03  0.24660454537E+03  0.41800000000E+01 0.  1.
        -11    1    3    3    0    0  0.30289189451E+02 -0.35674319806E+02  0.74705470846E+02  0.88153272575E+02  0.00000000000E+00 0. -1.
         11    1    3    3    0    0 -0.42794633872E+02  0.12672112862E+02  0.24383826527E+03  0.24788921466E+03  0.00000000000E+00 0.  1.
</event>
<event>
 7    1  0.6988825E-006  0.1435144E+03  0.7561462E-02  0.1208677E+00
         -3   -1    0    0    0  501 -0.00000000000E+00  0.00000000000E+00  0.86224789056E+02  0.86224789056E+02  0.00000000000E+00 0.  1.
          3   -1    0    0  501    0  0.00000000000E+00 -0.00000000000E+00 -0.25780887230E+03  0.25780887230E+03  0.00000000000E+00 0. -1.
         23    2    1    2    0    0 -0.64034715241E+02  0.72860051524E+02 -0.45411401837E+02  0.14160875564E+03  0.92638072055E+02 0.  0.
          5    1    1    2  502    0  0.89635839149E+02 -0.88804485073E+02 -0.11229507529E+03  0.16896294435E+03  0.41800000000E+01 0. -1.
         -5    1    1    2    0  502 -0.25601123907E+02  0.15944433549E+02 -0.13877606112E+02  0.33461961358E+02  0.41800000000E+01 0. -1.
        -11    1    3    3    0    0 -0.84587187263E+02  0.69565094722E+02 -0.24749782045E+02  0.11228021359E+03  0.00000000000E+00 0.  1.
         11    1    3    3    0    0  0.20552472022E+02  0.32949568014E+01 -0.20661619792E+02  0.29328542053E+02  0.00000000000E+00 0. -1.
</event>
<event>
 7    1  0.6988825E-006  0.1156931E+03  0.7561462E-02  0.1250376E+00
          2   -1    0    0  501    0  0.00000000000E+00  0.00000000000E+00  0.94675177846E+02  0.94675177846E+02  0.00000000000E+00 0. -1.
         -2   -1    0    0    0  501 -0.00000000000E+00 -0.00000000000E+00 -0.19377750954E+03  0.19377750954E+03  0.00000000000E+00 0.  1.
         23    2    1    2    0    0  0.56399449144E+02  0.56425553665E+02 -0.52507793028E+02  0.13296993961E+03  0.92515920473E+02 0.  0.
          5    1    1    2  502    0 -0.62114931127E+02 -0.84275791238E+02 -0.49598286274E+01  0.10489397484E+03  0.41800000000E+01 0.  1.
         -5    1    1    2    0  502  0.57154819826E+01  0.27850237573E+02 -0.41634710033E+02  0.50588772932E+02  0.41800000000E+01 0.  1.
        -11    1    3    3    0    0  0.12084147185E+02 -0.11557855248E+02 -0.48964452183E+02  0.51740972243E+02  0.00000000000E+00 0.  1.
         11    1    3    3    0    0  0.44315301959E+02  0.67983408913E+02 -0.35433408459E+01  0.81228967367E+02  0.00000000000E+00 0. -1.
</event>
<event>
 7    1  0.6988825E-006  0.1115470E+03  0.7561462E-02  0.1257732E+00
         -2   -1    0    0    0  501 -0.00000000000E+00  0.00000000000E+00  0.10313516251E+03  0.10313516251E+03  0.00000000000E+00 0. -1.
          2   -1    0    0  501    0  0.00000000000E+00 -0.00000000000E+00 -0.29436943154E+03  0.29436943154E+03  0.00000000000E+00 0.  1.
         23    2    1    2    0    0 -0.13125586901E+02 -0.25783788677E+02  0.61913938587E+02  0.11365954992E+03  0.90818900602E+02 0.  0.
          5    1    1    2  502    0 -0.27494141531E+02 -0.41113330129E+02 -0.10894733782E+03  0.11972146237E+03  0.41800000000E+01 0.  1.
         -5    1    1    2    0  502  0.40619728431E+02  0.66897118805E+02 -0.14420086980E+03  0.16412358177E+03  0.41800000000E+01 0.  1.
        -11    1    3    3    0    0  0.37747122066E+02  0.64998123937E+00  0.28500184748E+02  0.47302518226E+02  0.00000000000E+00 0.  1.
         11    1    3    3    0    0 -0.50872708966E+02 -0.26433769916E+02  0.33413753840E+02  0.66357031694E+02  0.00000000000E+00 0. -1.
</event>
<event>
 7    1  0.6988825E-006  0.9145252E+02  0.7561462E-02  0.1299372E+00
          3   -1    0    0  501    0  0.00000000000E+00  0.00000000000E+00  0.68575996337E+02  0.68575996337E+02  0.00000000000E+00 0. -1.
         -3   -1    0    0    0  501 -0.00000000000E+00 -0.00000000000E+00 -0.30301784090E+03  0.30301784090E+03  0.00000000000E+00 0.  1.
         23    2    1    2    0    0 -0.31304460063E+02 -0.62528725002E+02 -0.19444053959E+03  0.22281040354E+03  0.83351915494E+02 0.  0.
          5    1    1    2  502    0  0.17200954352E+02  0.77988641857E+02  0.22222128138E+02  0.83002388329E+02  0.41800000000E+01 0.  1.
         -5    1    1    2    0  502  0.14103505711E+02 -0.15459916855E+02 -0.62223433112E+02  0.65781045376E+02  0.41800000000E+01 0.  1.
        -11    1    3    3    0    0 -0.13054812284E+02 -0.61974720620E+02 -0.19450020404E+03  0.20455225125E+03  0.00000000000E+00 0.  1.
         11    1    3    3    0    0 -0.18249647779E+02 -0.55400438142E+00  0.59664451337E-01  0.18258152282E+02  0.00000000000E+00 0. -1.
</event>
<event>
 7    1  0.6988825E-006  0.9916714E+02  0.7561462E-02  0.1282057E+00
          1   -1    0    0  501    0  0.00000000000E+00  0.00000000000E+00  0.12492857117E+03  0.12492857117E+03  0.00000000000E+00 0. -1.
         -1   -1    0    0    0  501 -0.00000000000E+00 -0.00000000000E+00 -0.12999648465E+03  0.12999648465E+03  0.00000000000E+00 0.  1.
         23    2    1    2    0    0  0.47702312527E+02  0.29358128485E+02 -0.40853058586E+02  0.11327282356E+03  0.89578735381E+02 0.  0.
          5    1    1    2  502    0 -0.60161360519E+02 -0.60988329900E+02  0.55473057589E+02  0.10214547568E+03  0.41800000000E+01 0. -1.
         -5    1    1    2    0  502  0.12459047992E+02  0.31630201415E+02 -0.19687912481E+02  0.39506756591E+02  0.41800000000E+01 0. -1.
        -11    1    3    3    0    0  0.41115703397E+02 -0.67002104349E+01 -0.59116587578E+02  0.72319878405E+02  0.00000000000E+00 0.  1.
         11    1    3    3    0    0  0.65866091297E+01  0.36058338920E+02  0.18263528992E+02  0.40952945153E+02  0.00000000000E+00 0. -1.
</event>
<event>
 7    1  0.6988825E-006  0.1629529E+03  0.7561462E-02  0.1185403E+00
          2   -1    0    0  501    0  0.00000000000E+00  0.00000000000E+00  0.50641832390E+03  0.50641832390E+03  0.00000000000E+00 0. -1.
         -2   -1    0    0    0  501 -0.00000000000E+00 -0.00000000000E+00 -0.55655048032E+02  0.55655048032E+02  0.00000000000E+00 0.  1.
         23    2    1    2    0    0 -0.65274422723E+02  0.10216666017E+03  0.14648074609E+03  0.21145293718E+03  0.92503832104E+02 0.  0.
          5    1    1    2  502    0 -0.33040177618E+02 -0.55952227315E+02  0.12526818909E+03  0.14118036931E+03  0.41800000000E+01 0. -1.
         -5    1    1    2    0  502  0.98314600342E+02 -0.46214432855E+02  0.17901434068E+03  0.20944006544E+03  0.41800000000E+01 0. -1.
        -11    1    3    3    0    0 -0.10692923421E+02  0.96625086515E+02  0.85980696758E+02  0.12978222594E+03  0.00000000000E+00 0.  1.
         11    1    3    3    0    0 -0.54581499302E+02  0.55415736551E+01  0.60500049337E+02  0.81670711240E+02  0.00000000000E+00 0. -1.
</event>
<event>
 7    1  0.6988825E-006  0.1300582E+03  0.7561462E-02  0.1227369E+00
          2   -1    0    0  501    0  0.00000000000E+00  0.00000000000E+00  0.64444520585E+03  0.64444520585E+03  0.00000000000E+00 0. -1.
         -2   -1    0    0    0  501 -0.00000000000E+00 -0.00000000000E+00 -0.33575800484E+02  0.33575800484E+02  0.00000000000E+00 0.  1.
         23    2    1    2    0    0  0.96242877258E+02 -0.60383057262E+01  0.21010960379E+03  0.24725996843E+03  0.87705722885E+02 0.  0.
          5    1    1    2  502    0 -0.11345710295E+03  0.10406006301E+02  0.20848132620E+03  0.23761888593E+03  0.41800000000E+01 0.  1.
         -5    1    1    2    0  502  0.17214225689E+02 -0.43677005748E+01  0.19227847537E+03  0.19314215197E+03  0.41800000000E+01 0.  1.
        -11    1    3    3    0    0  0.53604494873E+01 -0.32709846792E+02  0.77578142756E+02  0.84362531549E+02  0.00000000000E+00 0. -1.
         11    1    3    3    0    0  0.90882427771E+02  0.26671541065E+02  0.13253146103E+03  0.16289743688E+03  0.00000000000E+00 0.  1.
</event>
<event>
 7    1  0.6988825E-006  0.1032582E+03  0.7561462E-02  0.1273590E+00
         -2   -1    0    0    0  501 -0.00000000000E+00  0.00000000000E+00  0.24630925411E+02  0.24630925411E+02  0.00000000000E+00 0.  1.
          2   -1    0    0  501    0  0.00000000000E+00 -0.00000000000E+00 -0.82199604413E+03  0.82199604413E+03  0.00000000000E+00 0. -1.
         23    2    1    2    0    0 -0.79582703405E+02  0.26578900123E+02 -0.24186006361E+03  0.27106278464E+03  0.89100495142E+02 0.  0.
          5    1    1    2  502    0  0.16912921127E+02 -0.68172428230E+01 -0.27593703388E+01  0.18910532130E+02  0.41800000000E+01 0. -1.
         -5    1    1    2    0  502  0.62669782278E+02 -0.19761657300E+02 -0.55274568478E+03  0.55665365278E+03  0.41800000000E+01 0. -1.
        -11    1    3    3    0    0 -0.10739544134E+02  0.48531206954E+02 -0.87644844737E+02  0.10075829825E+03  0.00000000000E+00 0.  1.
         11    1    3    3    0    0 -0.68843159271E+02 -0.21952306832E+02 -0.15421521887E+03  0.17030448639E+03  0.00000000000E+00 0. -1.
</event>
<event>
 7    1  0.6988825E-006  0.9849984E+02  0.7561462E-02  0.1283483E+00
          1   -1    0    0  501    0  0.00000000000E+00  0.00000000000E+00  0.34615556175E+03  0.34615556175E+03  0.00000000000E+00 0. -1.
         -1   -1    0    0    0  501 -0.00000000000E+00 -0.00000000000E+00 -0.41910530045E+02  0.41910530045E+02  0.00000000000E+00 0.  1.
         23    2    1    2    0    0 -0.46647491096E-01 -0.67834159566E+01  0.48326907476E+02  0.10313529603E+03  0.90859134885E+02 0.  0.
          5    1    1    2  502    0  0.49257333619E+00  0.56575543461E+02  0.59319052179E+02  0.82080796158E+02  0.41800000000E+01 0. -1.
         -5    1    1    2    0  502 -0.44592584509E+00 -0.49792127505E+02  0.19659907205E+03  0.20284999962E+03  0.41800000000E+01 0. -1.
        -11    1    3    3    0    0 -0.22022910723E+02  0.35999399330E+02  0.15752718004E+02  0.45045682072E+02  0.00000000000E+00 0.  1.
         11    1    3    3    0    0  0.21976263232E+02 -0.42782815286E+02  0.32574189472E+02  0.58089613953E+02  0.00000000000E+00 0. -1.
</event>
<event>
 7    1  0.6988825E-006  0.1034573E+03  0.7561462E-02  0.1273189E+00
         -2   -1    0    0    0  501 -0.00000000000E+00  0.00000000000E+00  0.40326979217E+03  0.40326979217E+03  0.00000000000E+00 0.  1.
          2   -1    0    0  501    0  0.00000000000E+00 -0.00000000000E+00 -0.67239496433E+02  0.67239496433E+02  0.00000000000E+00 0. -1.
         23    2    1    2    0    0 -0.29094355557E+02  0.73586103269E+02  0.29124558855E+03  0.31585124278E+03  0.93148368750E+02 0.  0.
          5    1    1    2  502    0  0.28419311333E+02 -0.17318180794E+02 -0.40381555625E+02  0.52494943350E+02  0.41800000000E+01 0. -1.
         -5    1    1    2    0  502  0.67504422373E+00 -0.56267922474E+02  0.85166262817E+02  0.10216310247E+03  0.41800000000E+01 0. -1.
        -11    1    3    3    0    0  0.28590211246E+02  0.43046369834E+02  0.84513079591E+02  0.99059834226E+02  0.00000000000E+00 0. -1.
         11    1    3    3    0    0 -0.57684566803E+02  0.30539733434E+02  0.20673250895E+03  0.21679140856E+03  0.00000000000E+00 0.  1.
</event>
<event>
 7    1  0.6988825E-006  0.9423213E+02  0.7561462E-02  0.1292915E+00
          2   -1    0    0  501    0  0.00000000000E+00  0.00000000000E+00  0.14456150226E+03  0.14456150226E+03  0.00000000000E+00 0. -1.
         -2   -1    0    0    0  501 -0.00000000000E+00 -0.00000000000E+00 -0.85683478664E+02  0.85683478664E+02  0.00000000000E+00 0.  1.
         23    2    1    2    0    0 -0.23048312115E+02  0.58176635965E+01  0.16022478320E+02  0.95897048566E+02  0.91512044077E+02 0.  0.
          5    1    1    2  502    0 -0.43113496331E+02 -0.29694316997E+02  0.35746012303E+02  0.63527756322E+02  0.41800000000E+01 0.  1.
         -5    1    1    2    0  502  0.66161808446E+02  0.23876653401E+02  0.71095329714E+01  0.70820176034E+02  0.41800000000E+01 0.  1.
        -11    1    3    3    0    0 -0.39809767008E+02 -0.11446626182E+02 -0.24968037191E+02  0.48365749052E+02  0.00000000000E+00 0.  1.
         11    1    3    3    0    0  0.16761454893E+02  0.17264289779E+02  0.40990515511E+02  0.47531299515E+02  0.00000000000E+00 0. -1.
</event>
<event>
 7    1  0.6988825E-006  0.8044510E+02  0.7561462E-02  0.1327793E+00
         -2   -1    0    0    0  501 -0.00000000000E+00  0.00000000000E+00  0.93379268318E+01  0.93379268318E+01  0.00000000000E+00 0.  1.
          2   -1    0    0  501    0  0.00000000000E+00 -0.00000000000E+00 -0.15391197252E+04  0.15391197252E+04  0.00000000000E+00 0. -1.
         23    2    1    2    0    0  0.35060329963E+02  0.12901888102E+02 -0.44439005319E+03  0.45524301707E+03  0.91476771702E+02 0.  0.
          5    1    1    2  502    0 -0.43962133583E+01 -0.31837487802E+02 -0.99884714864E+03  0.99937282886E+03  0.41800000000E+01 0.  1.
         -5    1    1    2    0  502 -0.30664116605E+02  0.18935599700E+02 -0.86544596581E+02  0.93841806145E+02  0.41800000000E+01 0.  1.
        -11    1    3    3    0    0  0.35600926983E+02  0.46518370823E+02 -0.35377442299E+03  0.35859130942E+03  0.00000000000E+00 0.  1.
         11    1    3    3    0    0 -0.54059701966E+00 -0.33616482721E+02 -0.90615630200E+02  0.96651707652E+02  0.00000000000E+00 0. -1.
</event>
<event>
 7    1  0.6988825E-006  0.1096018E+03  0.7561462E-02  0.1261309E+00
          4   -1    0    0  501    0  0.00000000000E+00  0.00000000000E+00  0.88133162763E+02  0.88133162763E+02  0.00000000000E+00 0. -1.
         -4   -1    0    0    0  501 -0.00000000000E+00 -0.00000000000E+00 -0.22734934326E+03  0.22734934326E+03  0.00000000000E+00 0.  1.
         23    2    1    2    0    0 -0.55114467425E+02 -0.72155708215E+02 -0.73547472476E+02  0.14758076684E+03  0.90148773073E+02 0.  0.
          5    1    1    2  502    0  0.47568046180E+01  0.52493035589E+02 -0.93152695795E+02  0.10711229206E+03  0.41800000000E+01 0.  1.
         -5    1    1    2    0  502  0.50357662807E+02  0.19662672626E+02  0.27483987772E+02  0.60789447128E+02  0.41800000000E+01 0.  1.
        -11    1    3    3    0    0  0.12994237181E+02 -0.28192853826E+02 -0.56909873080E+02  0.64826081640E+02  0.00000000000E+00 0.  1.
         11    1    3    3    0    0 -0.68108704607E+02 -0.43962854389E+02 -0.16637599395E+02  0.82754685202E+02  0.00000000000E+00 0. -1.
</event>
<event>
 7    1  0.6988825E-006  0.9416970E+02  0.7561462E-02  0.1293057E+00
          1   -1    0    0  501    0  0.00000000000E+00  0.00000000000E+00  0.42226180608E+03  0.42226180608E+03  0.00000000000E+00 0. -1.
         -1   -1    0    0    0  501 -0.00000000000E+00 -0.00000000000E+00 -0.34569233499E+02  0.34569233499E+02  0.00000000000E+00 0.  1.
         23    2    1    2    0    0 -0.32644320380E+02  0.54380293515E+01  0.92725586954E+02  0.13473099628E+03  0.91973817290E+02 0.  0.
          5    1    1    2  502    0  0.53571153288E+02  0.25712622896E+02  0.27078783565E+03  0.27726256829E+03  0.41800000000E+01 0.  1.
         -5    1    1    2    0  502 -0.20926832908E+02 -0.31150652247E+02  0.24179149974E+02  0.44837475001E+02  0.41800000000E+01 0.  1.
        -11    1    3    3    0    0  0.23083883513E+02  0.22994780669E+02  0.58648072006E+02  0.67091146704E+02  0.00000000000E+00 0. -1.
         11    1    3    3    0    0 -0.55728203892E+02 -0.17556751317E+02  0.34077514948E+02  0.67639849578E+02  0.00000000000E+00 0.  1.
</event>
<event>
 7    1  0.8808112E-006  0.2004348E+03  0.7561462E-02  0.1149373E+00
          2   -1    0    0  501    0  0.00000000000E+00  0.00000000000E+00  0.16202259957E+04  0.16202259957E+04  0.00000000000E+00 0. -1.
         -2   -1    0    0    0  501 -0.00000000000E+00 -0.00000000000E+00 -0.40409062970E+02  0.40409062970E+02  0.00000000000E+00 0.  1.
         23    2    1    2    0    0 -0.17066311470E+03 -0.54399497055E+02  0.26630561503E+03  0.32907784736E+03  0.72721008158E+02 0.  0.
          5    1    1    2  502    0  0.63709442378E+02 -0.38849730545E+02  0.53710369933E+03  0.54227857310E+03  0.41800000000E+01 0.  1.
         -5    1    1    2    0  502  0.10695367232E+03  0.93249227600E+02  0.77640761833E+03  0.78927863817E+03  0.41800000000E+01 0.  1.
        -11    1    3    3    0    0 -0.14108867680E+03 -0.61261108269E+02  0.17567112854E+03  0.23349364769E+03  0.00000000000E+00 0.  1.
         11    1    3    3    0    0 -0.29574437893E+02  0.68616112145E+01  0.90634486488E+02  0.95584199668E+02  0.00000000000E+00 0. -1.
</event>
<event>
 7    1  0.6988825E-006  0.1218189E+03  0.7561462E-02  0.1240126E+00
         -4   -1    0    0    0  501 -0.00000000000E+00  0.00000000000E+00  0.70084907642E+02  0.70084907642E+02  0.00000000000E+00 0.  1.
          4   -1    0    0  501    0  0.00000000000E+00 -0.00000000000E+00 -0.41468054447E+03  0.41468054447E+03  0.00000000000E+00 0. -1.
         23    2    1    2    0    0  0.57355094834E+02  0.51411858603E+02 -0.12798246454E+02  0.12190326269E+03  0.93615299139E+02 0.  0.
          5    1    1    2  502    0  0.28990065939E+02 -0.67455919572E+01 -0.18043747043E+03  0.18292370013E+03  0.41800000000E+01 0. -1.
         -5    1    1    2    0  502 -0.86345160773E+02 -0.44666266646E+02 -0.15135991995E+03  0.17993848930E+03  0.41800000000E+01 0. -1.
        -11    1    3    3    0    0  0.47878978527E+02 -0.14234775331E+02 -0.22655138226E+02  0.54847795777E+02  0.00000000000E+00 0. -1.
         11    1    3    3    0    0  0.94761163071E+01  0.65646633934E+02  0.98568917728E+01  0.67055466910E+02  0.00000000000E+00 0.  1.
</event>
<event>
 7    1  0.6988825E-006  0.1221160E+03  0.7561462E-02  0.1239647E+00
          2   -1    0    0  501    0  0.00000000000E+00  0.00000000000E+00  0.36241210642E+03  0.36241210642E+03  0.00000000000E+00 0.  1.
         -2   -1    0    0    0  501 -0.00000000000E+00 -0.00000000000E+00 -0.45578091180E+02  0.45578091180E+02  0.00000000000E+00 0. -1.
         23    2    1    2    0    0  0.29153174485E+02  0.36409594160E+02  0.10581089892E+03  0.15828340514E+03  0.10808387429E+03 0.  0.
          5    1    1    2  502    0 -0.76812207241E+02 -0.32519837803E+02  0.15384061249E+03  0.17504874031E+03  0.41800000000E+01 0. -1.
         -5    1    1    2    0  502  0.47659032756E+02 -0.38897563567E+01  0.57182503825E+02  0.74658052154E+02  0.41800000000E+01 0. -1.
        -11    1    3    3    0    0  0.37709871805E+02  0.69210108791E+02  0.93336134167E+02  0.12216262739E+03  0.00000000000E+00 0.  1.
         11    1    3    3    0    0 -0.85566973201E+01 -0.32800514631E+02  0.12474764755E+02  0.36120777743E+02  0.00000000000E+00 0. -1.
</event>
<event>
 7    1  0.6988825E-006  0.1273360E+03  0.7561462E-02  0.1231463E+00
          3   -1    0    0  501    0  0.00000000000E+00  0.00000000000E+00  0.47408815849E+03  0.47408815849E+03  0.00000000000E+00 0. -1.
         -3   -1    0    0    0  501 -0.00000000000E+00 -0.00000000000E+00 -0.62878779590E+02  0.62878779590E+02  0.00000000000E+00 0.  1.
         23    2    1    2    0    0  0.10009835663E+03  0.16544361158E+02  0.58106729686E+02  0.14886428105E+03  0.92145457027E+02 0.  0.
          5    1    1    2  502    0 -0.12005163522E+03 -0.32720173920E+02  0.33206899336E+03  0.35464107722E+03  0.41800000000E+01 0. -1.
         -5    1    1    2    0  502  0.19953278589E+02  0.16175812761E+02  0.21033655855E+02  0.33461579812E+02  0.41800000000E+01 0. -1.
        -11    1    3    3    0    0  0.71295448881E+02  0.22446414604E+02 -0.93025399176E+01  0.75322107038E+02  0.00000000000E+00 0.  1.
         11    1    3    3    0    0  0.28802907752E+02 -0.59020534453E+01  0.67409269604E+02  0.73542174011E+02  0.00000000000E+00 0. -1.
</event>
<event>
 7    1  0.6988825E-006  0.1611374E+03  0.7561462E-02  0.1187419E+00
         -1   -1    0    0    0  501 -0.00000000000E+00  0.00000000000E+00  0.27678149925E+02  0.27678149925E+02  0.00000000000E+00 0.  1.
          1   -1    0    0  501    0  0.00000000000E+00 -0.00000000000E+00 -0.14066456410E+04  0.14066456410E+04  0.00000000000E+00 0. -1.
         23    2    1    2    0    0  0.13252042191E+03  0.45940120431E+02 -0.34820421747E+03  0.38656714720E+03  0.92281229631E+02 0.  0.
          5    1    1    2  502    0 -0.11080214148E+02 -0.47436137623E+02 -0.13104184296E+03  0.13986563304E+03  0.41800000000E+01 0.  1.
         -5    1    1    2    0  502 -0.12144020776E+03  0.14960171913E+01 -0.89972143063E+03  0.90789101067E+03  0.41800000000E+01 0.  1.
        -11    1    3    3    0    0  0.47491412398E+02  0.47013165301E+02 -0.23895973223E+03  0.24812784122E+03  0.00000000000E+00 0. -1.
         11    1    3    3    0    0  0.85029009510E+02 -0.10730448695E+01 -0.10924448524E+03  0.13843930597E+03  0.00000000000E+00 0.  1.
</event>
<event>
 7    1  0.6988825E-006  0.1249190E+03  0.7561462E-02  0.1235196E+00
          1   -1    0    0  501    0  0.00000000000E+00  0.00000000000E+00  0.76671659124E+02  0.76671659124E+02  0.00000000000E+00 0. -1.
         -1   -1    0    0    0  501 -0.00000000000E+00 -0.00000000000E+00 -0.21752640731E+03  0.21752640731E+03  0.00000000000E+00 0.  1.
         23    2    1    2    0    0  0.68632580069E+02  0.95469673055E+01 -0.50102620369E+02  0.12483173805E+03  0.90945668539E+02 0.  0.
          5    1    1    2  502    0 -0.19255785839E+02  0.56483617690E+02 -0.30406266784E+02  0.67105870200E+02  0.41800000000E+01 0. -1.
         -5    1    1    2    0  502 -0.49376794231E+02 -0.66030584996E+02 -0.60345861035E+02  0.10226045818E+03  0.41800000000E+01 0. -1.
        -11    1    3    3    0    0  0.57903890309E+01 -0.31742870835E+02  0.35475556127E+01  0.32461109112E+02  0.00000000000E+00 0. -1.
         11    1    3    3    0    0  0.62842191038E+02  0.41289838140E+02 -0.53650175982E+02  0.92370628941E+02  0.00000000000E+00 0.  1.
</event>
<event>
 7    1  0.6988825E-006  0.6228101E+02  0.7561462E-02  0.1388501E+00
         -1   -1    0    0    0  501 -0.00000000000E+00  0.00000000000E+00  0.39737259173E+02  0.39737259173E+02  0.00000000000E+00 0.  1.
          1   -1    0    0  501    0  0.00000000000E+00 -0.00000000000E+00 -0.31358700067E+03  0.31358700067E+03  0.00000000000E+00 0. -1.
         23    2    1    2    0    0 -0.38905606999E+01 -0.17460722472E+02 -0.12938282473E+03  0.16140998947E+03  0.94832779526E+02 0.  0.
          5    1    1    2  502    0 -0.84925385695E+01  0.16278014106E+02 -0.16580120028E+03  0.16686703500E+03  0.41800000000E+01 0. -1.
         -5    1    1    2    0  502  0.12383099269E+02  0.11827083667E+01  0.21334283519E+02  0.25047235374E+02  0.41800000000E+01 0. -1.
        -11    1    3    3    0    0 -0.30207382376E+02  0.27279960559E+02 -0.34937007779E+02  0.53640252709E+02  0.00000000000E+00 0.  1.
         11    1    3    3    0    0  0.26316821676E+02 -0.44740683032E+02 -0.94445816952E+02  0.10776973676E+03  0.00000000000E+00 0. -1.
</event>
<event>
 7    1  0.6988825E-006  0.1265437E+03  0.7561462E-02  0.1232676E+00
         -2   -1    0    0    0  501 -0.00000000000E+00  0.00000000000E+00  0.37476537918E+02  0.37476537918E+02  0.00000000000E+00 0.  1.
          2   -1    0    0  501    0  0.00000000000E+00 -0.00000000000E+00 -0.60659141366E+03  0.60659141366E+03  0.00000000000E+00 0. -1.
         23    2    1    2    0    0  0.49965970345E+02  0.66914886272E+02 -0.12899980640E+03  0.17894709868E+03  0.91689224431E+02 0.  0.
          5    1    1    2  502    0 -0.47634650896E+02  0.23103544647E+02 -0.99577481360E+02  0.11285380337E+03  0.41800000000E+01 0. -1.
         -5    1    1    2    0  502 -0.23313194486E+01 -0.90018430919E+02 -0.34053758798E+03  0.35226704953E+03  0.41800000000E+01 0. -1.
        -11    1    3    3    0    0  0.16404388964E+02  0.73777457059E+02 -0.44354940661E+02  0.87633200948E+02  0.00000000000E+00 0.  1.
         11    1    3    3    0    0  0.33561581381E+02 -0.68625707871E+01 -0.84644865740E+02  0.91313897731E+02  0.00000000000E+00 0. -1.
</event>
<event>
 7    1  0.6988825E-006  0.5108011E+02  0.7561462E-02  0.1439601E+00
         -2   -1    0    0    0  501 -0.00000000000E+00  0.00000000000E+00  0.15721094590E+03  0.15721094590E+03  0.00000000000E+00 0.  1.
          2   -1    0    0  501    0  0.00000000000E+00 -0.00000000000E+00 -0.90222400862E+02  0.90222400862E+02  0.00000000000E+00 0. -1.
         23    2    1    2    0    0 -0.27231990929E+02 -0.19700580995E+01  0.67303082844E+02  0.11940282906E+03  0.94772718479E+02 0.  0.
          5    1    1    2  502    0 -0.72949810698E+01 -0.37907065467E+01  0.58628633970E+02  0.59349602577E+02  0.41800000000E+01 0. -1.
         -5    1    1    2    0  502  0.34526971999E+02  0.57607646462E+01 -0.58943171771E+02  0.68680915130E+02  0.41800000000E+01 0. -1.
        -11    1    3    3    0    0 -0.14161135542E+02 -0.26411027455E+02  0.82513449400E+02  0.87786954970E+02  0.00000000000E+00 0.  1.
         11    1    3    3    0    0 -0.13070855387E+02  0.24440969356E+02 -0.15210366556E+02  0.31615874088E+02  0.00000000000E+00 0. -1.
</event>
<event>
 7    1  0.1481940E-005  0.1340095E+03  0.7561462E-02  0.1221625E+00
         -1   -1    0    0    0  501 -0.00000000000E+00  0.00000000000E+00  0.15165603016E+02  0.15165603016E+02  0.00000000000E+00 0.  1.
          1   -1    0    0  501    0  0.00000000000E+00 -0.00000000000E+00 -0.17465772120E+04  0.17465772120E+04  0.00000000000E+00 0. -1.
         23    2    1    2    0    0 -0.50130969229E+02 -0.94090530011E+02 -0.42379386426E+03  0.44383627337E+03  0.77609640237E+02 0.  0.
          5    1    1    2  502    0  0.18717223219E+02  0.11318221402E+03 -0.71703674294E+03  0.72616782574E+03  0.41800000000E+01 0.  1.
         -5    1    1    2    0  502  0.31413746010E+02 -0.19091684010E+02 -0.59058100179E+03  0.59173871591E+03  0.41800000000E+01 0.  1.
        -11    1    3    3    0    0 -0.12673318779E+02 -0.71219629327E+02 -0.35455783896E+03  0.36186200378E+03  0.00000000000E+00 0. -1.
         11    1    3    3    0    0 -0.37457650450E+02 -0.22870900683E+02 -0.69236025306E+02  0.81974269594E+02  0.00000000000E+00 0.  1.
</event>
<event>
 7    1  0.6988825E-006  0.1272190E+03  0.7561462E-02  0.1231642E+00
          3   -1    0    0  501    0  0.00000000000E+00  0.00000000000E+00  0.38854564769E+02  0.38854564769E+02  0.00000000000E+00 0. -1.
         -3   -1    0    0    0  501 -0.00000000000E+00 -0.00000000000E+00 -0.43656018014E+03  0.43656018014E+03  0.00000000000E+00 0.  1.
         23    2    1    2    0    0  0.39916193811E+02  0.58173135626E+02 -0.19785813777E+03  0.22931604060E+03  0.91981452243E+02 0.  0.
          5    1    1    2  502    0  0.21636816991E+02 -0.73884404967E+02 -0.13337797502E+03  0.15405912426E+03  0.41800000000E+01 0.  1.
         -5    1    1    2    0  502 -0.61553010802E+02  0.15711269341E+02 -0.66469502585E+02  0.92039580057E+02  0.41800000000E+01 0.  1.
        -11    1    3    3    0    0  0.64393053968E+02  0.18397262822E+02 -0.13801870382E+03  0.15340823734E+03  0.00000000000E+00 0.  1.
         11    1    3    3    0    0 -0.24476860157E+02  0.39775872804E+02 -0.59839433952E+02  0.75907803263E+02  0.00000000000E+00 0. -1.
</event>
<event>
 7    1  0.6988825E-006  0.1064549E+03  0.7561462E-02  0.1267279E+00
         -2   -1    0    0    0  501 -0.00000000000E+00  0.00000000000E+00  0.10729541099E+03  0.10729541099E+03  0.00000000000E+00 0.  1.
          2   -1    0    0  501    0  0.00000000000E+00 -0.00000000000E+00 -0.23476296622E+03  0.23476296622E+03  0.00000000000E+00 0. -1.
         23    2    1    2    0    0 -0.45862625354E+01  0.51510716772E+02  0.49146858425E+02  0.11954124810E+03  0.95918238923E+02 0.  0.
          5    1    1    2  502    0 -0.54108690145E+02 -0.27557458399E+02 -0.42863471525E+02  0.74444029001E+02  0.41800000000E+01 0. -1.
         -5    1    1    2    0  502  0.58694952681E+02 -0.23953258372E+02 -0.13375094212E+03  0.14807310011E+03  0.41800000000E+01 0. -1.
        -11    1    3    3    0    0  0.32400302784E+02  0.12427231418E+02  0.55397914877E+02  0.65369294580E+02  0.00000000000E+00 0.  1.
         11    1    3    3    0    0 -0.36986565319E+02  0.39083485354E+02 -0.62510564523E+01  0.54171953521E+02  0.00000000000E+00 0. -1.
</event>
<event>
 7    1  0.6988825E-006  0.4779542E+02  0.7561462E-02  0.1457609E+00
          2   -1    0    0  501    0  0.00000000000E+00  0.00000000000E+00  0.40425770185E+04  0.40425770185E+04  0.00000000000E+00 0. -1.
         -2   -1    0    0    0  501 -0.00000000000E+00 -0.00000000000E+00 -0.25840997962E+02  0.25840997962E+02  0.00000000000E+00 0.  1.
         23    2    1    2    0    0  0.55878472022E+01  0.24413934996E+02  0.65214264980E+02  0.11483403823E+03  0.91141053979E+02 0.  0.
          5    1    1    2  502    0 -0.16997565446E+02 -0.10404935263E+02  0.38669179678E+04  0.38669715828E+04  0.41800000000E+01 0.  1.
         -5    1    1    2    0  502  0.11409718244E+02 -0.14008999732E+02  0.84603787719E+02  0.86612395420E+02  0.41800000000E+01 0.  1.
        -11    1    3    3    0    0 -0.17144227445E+02 -0.64792561525E+01  0.73367151844E+02  0.75621718208E+02  0.00000000000E+00 0. -1.
         11    1    3    3    0    0  0.22732074647E+02  0.30893191148E+02 -0.81528868639E+01  0.39212320020E+02  0.00000000000E+00 0.  1.
</event>
<event>
 7    1  0.6988825E-006  0.9661220E+02  0.7561462E-02  0.1287586E+00
         -1   -1    0    0    0  501 -0.00000000000E+00  0.00000000000E+00  0.43603180572E+02  0.43603180572E+02  0.00000000000E+00 0.  1.
          1   -1    0    0  501    0  0.00000000000E+00 -0.00000000000E+00 -0.23621597714E+04  0.23621597714E+04  0.00000000000E+00 0. -1.
         23    2    1    2    0    0 -0.48113932628E+01 -0.10485094846E+02 -0.92033463395E+01  0.92082367814E+02  0.90892101744E+02 0.  0.
          5    1    1    2  502    0 -0.27679096004E+02  0.57246633840E+02 -0.18017438514E+04  0.18028704024E+04  0.41800000000E+01 0. -1.
         -5    1    1    2    0  502  0.32490489266E+02 -0.46761538994E+02 -0.50760939319E+03  0.51081018184E+03  0.41800000000E+01 0.  1.
        -11    1    3    3    0    0 -0.19472513421E+02 -0.37168298260E+02  0.22929503604E+02  0.47816558952E+02  0.00000000000E+00 0.  1.
         11    1    3    3    0    0  0.14661120158E+02  0.26683203414E+02 -0.32132849944E+02  0.44265808862E+02  0.00000000000E+00 0. -1.
</event>
<event>
 7    1  0.6988825E-006  0.1061914E+03  0.7561462E-02  0.1267790E+00
         -2   -1    0    0    0  501 -0.00000000000E+00  0.00000000000E+00  0.42730340520E+02  0.42730340520E+02  0.00000000000E+00 0.  1.
          2   -1    0    0  501    0  0.00000000000E+00 -0.00000000000E+00 -0.36040982813E+03  0.36040982813E+03  0.00000000000E+00 0. -1.
         23    2    1    2    0    0 -0.26855312352E+02  0.24810142931E+02 -0.61006334770E+02  0.11527620294E+03  0.90719783332E+02 0.  0.
          5    1    1    2  502    0  0.31478247008E+02 -0.74080008732E+02 -0.15442899409E+03  0.17419676904E+03  0.41800000000E+01 0.  1.
         -5    1    1    2    0  502 -0.46229346559E+01  0.49269865801E+02 -0.10224415875E+03  0.11366719668E+03  0.41800000000E+01 0.  1.
        -11    1    3    3    0    0 -0.24172343808E+02  0.50660654399E+02 -0.86101644547E+01  0.56788546743E+02  0.00000000000E+00 0.  1.
         11    1    3    3    0    0 -0.26829685437E+01 -0.25850511468E+02 -0.52396170316E+02  0.58487656194E+02  0.00000000000E+00 0. -1.
</event>
<event>
 7    1  0.6988825E-006  0.9527203E+02  0.7561462E-02  0.1290565E+00
          1   -1    0    0  501    0  0.00000000000E+00  0.00000000000E+00  0.39031774689E+02  0.39031774689E+02  0.00000000000E+00 0. -1.
         -1   -1    0    0    0  501 -0.00000000000E+00 -0.00000000000E+00 -0.35596698098E+03  0.35596698098E+03  0.00000000000E+00 0.  1.
         23    2    1    2    0    0 -0.38687931876E+02 -0.17280678387E+02 -0.18480473030E+03  0.20817709003E+03  0.85962401987E+02 0.  0.
          5    1    1    2  502    0  0.25360985794E+02  0.51918112589E+02 -0.13739111956E+03  0.14910554030E+03  0.41800000000E+01 0.  1.
         -5    1    1    2    0  502  0.13326946083E+02 -0.34637434202E+02  0.52606435601E+01  0.37716125340E+02  0.41800000000E+01 0.  1.
        -11    1    3    3    0    0 -0.57767541257E+01  0.33914591453E+02 -0.56116396344E+02  0.65822643066E+02  0.00000000000E+00 0.  1.
         11    1    3    3    0    0 -0.32911177751E+02 -0.51195269840E+02 -0.12868833396E+03  0.14235444697E+03  0.00000000000E+00 0. -1.
</event>
<event>
 7    1  0.6988825E-006  0.2121419E+03  0.7561462E-02  0.1139881E+00
          2   -1    0    0  501    0  0.00000000000E+00  0.00000000000E+00  0.58726336985E+03  0.58726336985E+03  0.00000000000E+00 0. -1.
         -2   -1    0    0    0  501 -0.00000000000E+00 -0.00000000000E+00 -0.94908877129E+02  0.94908877129E+02  0.00000000000E+00 0.  1.
         23    2    1    2    0    0  0.78899553846E+02 -0.17799375500E+03  0.14804244178E+03  0.26731565525E+03  0.10786184940E+03 0.  0.
          5    1    1    2  502    0 -0.36490031063E+02 -0.39685009241E+01  0.10440780221E+03  0.11075076943E+03  0.41800000000E+01 0.  1.
         -5    1    1    2    0  502 -0.42409522783E+02  0.18196225592E+03  0.23990424873E+03  0.30410582231E+03  0.41800000000E+01 0.  1.
        -11    1    3    3    0    0  0.47022876022E+02 -0.50356446235E+02  0.11099698232E+03  0.13064169561E+03  0.00000000000E+00 0. -1.
         11    1    3    3    0    0  0.31876677824E+02 -0.12763730876E+03  0.37045459466E+02  0.13667395964E+03  0.00000000000E+00 0.  1.
</event>
<event>
 7    1  0.6988825E-006  0.1027393E+03  0.7561462E-02  0.1274639E+00
         -2   -1    0    0    0  501 -0.00000000000E+00  0.00000000000E+00  0.39030475394E+02  0.39030475394E+02  0.00000000000E+00 0.  1.
          2   -1    0    0  501    0  0.00000000000E+00 -0.00000000000E+00 -0.31235183224E+03  0.31235183224E+03  0.00000000000E+00 0. -1.
         23    2    1    2    0    0  0.17477006826E+02 -0.98399827782E+01 -0.10140242770E+03  0.13782724878E+03  0.91168125647E+02 0.  0.
          5    1    1    2  502    0 -0.29846278798E+02 -0.47687433200E+02 -0.12840963268E+03  0.14025476038E+03  0.41800000000E+01 0.  1.
         -5    1    1    2    0  502  0.12369271972E+02  0.57527415978E+02 -0.43509296473E+02  0.73300298483E+02  0.41800000000E+01 0.  1.
        -11    1    3    3    0    0  0.32190462933E+02 -0.43048830775E+02 -0.42067906112E+02  0.68257867383E+02  0.00000000000E+00 0.  1.
         11    1    3    3    0    0 -0.14713456107E+02  0.33208847997E+02 -0.59334521586E+02  0.69569381396E+02  0.00000000000E+00 0. -1.
</event>
<event>
 7    1  0.6988825E-006  0.6641633E+02  0.7561462E-02  0.1372722E+00
         -1   -1    0    0    0  501 -0.00000000000E+00  0.00000000000E+00  0.84734027890E+02  0.84734027890E+02  0.00000000000E+00 0.  1.
          1   -1    0    0  501    0  0.00000000000E+00 -0.00000000000E+00 -0.14633300281E+03  0.14633300281E+03  0.00000000000E+00 0. -1.
         23    2    1    2    0    0 -0.65673587841E+01 -0.24639027209E+01 -0.24977077455E+01  0.92537659018E+02  0.92237621253E+02 0.  0.
          5    1    1    2  502    0  0.44860409054E+02 -0.11018073719E+02 -0.80154704307E+02  0.92607252802E+02  0.41800000000E+01 0. -1.
         -5    1    1    2    0  502 -0.38293050270E+02  0.13481976440E+02  0.21053437130E+02  0.45922118883E+02  0.41800000000E+01 0. -1.
        -11    1    3    3    0    0  0.18452380851E+02  0.57130079443E+01 -0.41332176326E+02  0.45623213594E+02  0.00000000000E+00 0. -1.
         11    1    3    3    0    0 -0.25019739635E+02 -0.81769106652E+01  0.38834468581E+02  0.46914445423E+02  0.00000000000E+00 0.  1.
</event>
<event>
 7    1  0.6988825E-006  0.1172200E+03  0.7561462E-02  0.1247755E+00
         -2   -1    0    0    0  501 -0.00000000000E+00  0.00000000000E+00  0.58356955626E+02  0.58356955626E+02  0.00000000000E+00 0.  1.
          2   -1    0    0  501    0  0.00000000000E+00 -0.00000000000E+00 -0.40907860557E+03  0.40907860557E+03  0.00000000000E+00 0. -1.
         23    2    1    2    0    0  0.48602142588E+02  0.88783833741E+02 -0.99928229048E+02  0.16945940894E+03  0.92120046240E+02 0.  0.
          5    1    1    2  502    0  0.48310721858E+01 -0.68759133581E+01  0.13327220633E+02  0.16300449465E+02  0.41800000000E+01 0. -1.
         -5    1    1    2    0  502 -0.53433214773E+02 -0.81907920383E+02 -0.26412064153E+03  0.28167570280E+03  0.41800000000E+01 0. -1.
        -11    1    3    3    0    0 -0.14822621116E+02  0.51515583157E+02 -0.74175700167E+02  0.91518303633E+02  0.00000000000E+00 0. -1.
         11    1    3    3    0    0  0.63424763703E+02  0.37268250584E+02 -0.25752528881E+02  0.77941105305E+02  0.00000000000E+00 0.  1.
</event>
<event>
 7    1  0.6988825E-006  0.9841285E+02  0.7561462E-02  0.1283669E+00
          2   -1    0    0  501    0  0.00000000000E+00  0.00000000000E+00  0.23856001694E+03  0.23856001694E+03  0.00000000000E+00 0. -1.
         -2   -1    0    0    0  501 -0.00000000000E+00 -0.00000000000E+00 -0.65319870257E+02  0.65319870257E+02  0.00000000000E+00 0.  1.
         23    2    1    2    0    0 -0.93525098982E+01  0.62049444222E+02  0.87433473096E+02  0.13972615033E+03  0.89113309324E+02 0.  0.
          5    1    1    2  502    0 -0.41360007739E+02  0.12526129860E+02  0.52018843943E+02  0.67756820281E+02  0.41800000000E+01 0. -1.
         -5    1    1    2    0  502  0.50712517637E+02 -0.74575574081E+02  0.33787829640E+02  0.96396916582E+02  0.41800000000E+01 0. -1.
        -11    1    3    3    0    0 -0.16932815545E+01  0.34255993412E+02 -0.11892300201E+02  0.36301061846E+02  0.00000000000E+00 0.  1.
         11    1    3    3    0    0 -0.76592283437E+01  0.27793450810E+02  0.99325773298E+02  0.10342508848E+03  0.00000000000E+00 0. -1.
</event>
<event>
 7    1  0.6988825E-006  0.1445619E+03  0.7561462E-02  0.1207319E+00
          1   -1    0    0  501    0  0.00000000000E+00  0.00000000000E+00  0.13655138602E+03  0.13655138602E+03  0.00000000000E+00 0. -1.
         -1   -1    0    0    0  501 -0.00000000000E+00 -0.00000000000E+00 -0.26932518980E+03  0.26932518980E+03  0.00000000000E+00 0.  1.
         23    2    1    2    0    0 -0.11738463078E+03 -0.72765518336E+02 -0.14433554457E+03  0.21918132426E+03  0.90187201296E+02 0.  0.
          5    1    1    2  502    0  0.11419828657E+02  0.36616017155E+01 -0.45945514765E+02  0.47668464845E+02  0.41800000000E+01 0. -1.
         -5    1    1    2    0  502  0.10596480213E+03  0.69103916620E+02  0.57507255549E+02  0.13902678671E+03  0.41800000000E+01 0. -1.
        -11    1    3    3    0    0 -0.96571653223E+02 -0.82367459723E+02 -0.77954280062E+02  0.14895419567E+03  0.00000000000E+00 0. -1.
         11    1    3    3    0    0 -0.20812977560E+02  0.96019413869E+01 -0.66381264505E+02  0.70227128594E+02  0.00000000000E+00 0.  1.
</event>
<event>
 7    1  0.6988825E-006  0.9088809E+02  0.7561462E-02  0.1300715E+00
          2   -1    0    0  501    0  0.00000000000E+00  0.00000000000E+00  0.73977342531E+03  0.73977342531E+03  0.00000000000E+00 0. -1.
         -2   -1    0    0    0  501 -0.00000000000E+00 -0.00000000000E+00 -0.18041628247E+02  0.18041628247E+02  0.00000000000E+00 0.  1.
         23    2    1    2    0    0 -0.54321379453E+00 -0.28663383260E+02  0.22620261199E+03  0.24593769398E+03  0.92172897477E+02 0.  0.
          5    1    1    2  502    0  0.45087679563E+02  0.21704142331E+02  0.42571365390E+03  0.42866485296E+03  0.41800000000E+01 0.  1.
         -5    1    1    2    0  502 -0.44544465768E+02  0.69592409290E+01  0.69815531174E+02  0.83212506620E+02  0.41800000000E+01 0.  1.
        -11    1    3    3    0    0  0.38841904534E+02 -0.23405737773E+01  0.15915894150E+03  0.16384669815E+03  0.00000000000E+00 0. -1.
         11    1    3    3    0    0 -0.39385118329E+02 -0.26322809483E+02  0.67043670485E+02  0.82090995833E+02  0.00000000000E+00 0.  1.
</event>
<event>
 7    1  0.6988825E-006  0.1121422E+03  0.7561462E-02  0.1256653E+00
         -2   -1    0    0    0  501 -0.00000000000E+00  0.00000000000E+00  0.50074471269E+02  0.50074471269E+02  0.00000000000E+00 0.  1.
          2   -1    0    0  501    0  0.00000000000E+00 -0.00000000000E+00 -0.64102990595E+03  0.64102990595E+03  0.00000000000E+00 0. -1.
         23    2    1    2    0    0 -0.13934218928E+01  0.89903216078E+02 -0.57590677291E+02  0.13594302584E+03  0.84138518390E+02 0.  0.
          5    1    1    2  502    0  0.25242935293E+02 -0.88781673670E+01 -0.37196211128E+03  0.37294679549E+03  0.41800000000E+01 0.  1.
         -5    1    1    2    0  502 -0.23849513400E+02 -0.81025048711E+02 -0.16140264610E+03  0.18221455589E+03  0.41800000000E+01 0.  1.
        -11    1    3    3    0    0 -0.81448204721E+01 -0.97781435917E+01  0.92533842086E+01  0.15734526111E+02  0.00000000000E+00 0.  1.
         11    1    3    3    0    0  0.67513985792E+01  0.99681359670E+02 -0.66844061499E+02  0.12020849973E+03  0.00000000000E+00 0. -1.
</event>
<event>
 7    1  0.6988825E-006  0.1698694E+03  0.7561462E-02  0.1177984E+00
         -2   -1    0    0    0  501 -0.00000000000E+00  0.00000000000E+00  0.14660593287E+02  0.14660593287E+02  0.00000000000E+00 0. -1.
          2   -1    0    0  501    0  0.00000000000E+00 -0.00000000000E+00 -0.35980498133E+04  0.35980498133E+04  0.00000000000E+00 0.  1.
         23    2    1    2    0    0  0.11935848197E+03 -0.60060483732E+02 -0.52905291347E+03  0.55289478900E+03  0.89117638724E+02 0.  0.
          5    1    1    2  502    0  0.25389209589E+02  0.12853764006E+02 -0.34254556414E+03  0.34375102491E+03  0.41800000000E+01 0. -1.
         -5    1    1    2    0  502 -0.14474769156E+03  0.47206719726E+02 -0.27117907424E+04  0.27160645927E+04  0.41800000000E+01 0. -1.
        -11    1    3    3    0    0  0.97665671292E+02 -0.30985451142E+01 -0.28261219618E+03  0.29902815546E+03  0.00000000000E+00 0.  1.
         11    1    3    3    0    0  0.21692810682E+02 -0.56961938618E+02 -0.24644071729E+03  0.25386663354E+03  0.00000000000E+00 0. -1.
</event>
<event>
 7    1  0.6988825E-006  0.1406323E+03  0.7561462E-02  0.1212481E+00
         -2   -1    0    0    0  501 -0.00000000000E+00  0.00000000000E+00  0.19470178620E+02  0.19470178620E+02  0.00000000000E+00 0.  1.
          2   -1    0    0  501    0  0.00000000000E+00 -0.00000000000E+00 -0.10253958637E+04  0.10253958637E+04  0.00000000000E+00 0. -1.
         23    2    1    2    0    0  0.11547683069E+02 -0.89792290724E+02 -0.48258704977E+03  0.49922159985E+03  0.90199449527E+02 0.  0.
          5    1    1    2  502    0 -0.48656155237E+02 -0.74058924441E+01 -0.14198900401E+03  0.15033502035E+03  0.41800000000E+01 0.  1.
         -5    1    1    2    0  502  0.37108472168E+02  0.97198183168E+02 -0.38134963126E+03  0.39530942207E+03  0.41800000000E+01 0.  1.
        -11    1    3    3    0    0  0.43887579713E+02 -0.15200850364E+02 -0.16875217271E+03  0.17502708733E+03  0.00000000000E+00 0.  1.
         11    1    3    3    0    0 -0.32339896644E+02 -0.74591440360E+02 -0.31383487705E+03  0.32419451252E+03  0.00000000000E+00 0. -1.
</event>
<event>
 7    1  0.6988825E-006  0.2278744E+03  0.7561462E-02  0.1128145E+00
          2   -1    0    0  501    0  0.00000000000E+00  0.00000000000E+00  0.84362549365E+03  0.84362549365E+03  0.00000000000E+00 0. -1.
         -2   -1    0    0    0  501 -0.00000000000E+00 -0.00000000000E+00 -0.85773497253E+02  0.85773497253E+02  0.00000000000E+00 0.  1.
         23    2    1    2    0    0 -0.84399713529E+02  0.19011396954E+03  0.14269214397E+03  0.26808547467E+03  0.90786236395E+02 0.  0.
          5    1    1    2  502    0  0.55032432017E+02 -0.66722614541E+01  0.11454515407E+03  0.12732302372E+03  0.41800000000E+01 0. -1.
         -5    1    1    2    0  502  0.29367281512E+02 -0.18344170809E+03  0.50061469835E+03  0.53399049251E+03  0.41800000000E+01 0. -1.
        -11    1    3    3    0    0 -0.12474592134E+02  0.91104617275E+02  0.10599865975E+03  0.14032598693E+03  0.00000000000E+00 0. -1.
         11    1    3    3    0    0 -0.71925121395E+02  0.99009352268E+02  0.36693484217E+02  0.12775948774E+03  0.00000000000E+00 0.  1.
</event>
<event>
 7    1  0.6988825E-006  0.1679085E+03  0.7561462E-02  0.1180047E+00
         -1   -1    0    0    0  501 -0.00000000000E+00  0.00000000000E+00  0.35417343884E+03  0.35417343884E+03  0.00000000000E+00 0.  1.
          1   -1    0    0  501    0  0.00000000000E+00 -0.00000000000E+00 -0.10542725707E+03  0.10542725707E+03  0.00000000000E+00 0. -1.
         23    2    1    2    0    0  0.14657164202E+03 -0.42014282867E+02  0.13792695190E+03  0.23338092036E+03  0.11042809296E+03 0.  0.
          5    1    1    2  502    0 -0.12748925113E+03  0.72503977253E+02  0.11921260894E+03  0.18904881486E+03  0.41800000000E+01 0. -1.
         -5    1    1    2    0  502 -0.19082390898E+02 -0.30489694386E+02 -0.83933790747E+01  0.37170960687E+02  0.41800000000E+01 0. -1.
        -11    1    3    3    0    0  0.53377501864E+02 -0.20921091959E+02  0.12427171104E+03  0.13685871532E+03  0.00000000000E+00 0.  1.
         11    1    3    3    0    0  0.93194140160E+02 -0.21093190908E+02  0.13655240865E+02  0.96522205040E+02  0.00000000000E+00 0. -1.
</event>
<event>
 7    1  0.6988825E-006  0.1234090E+03  0.7561462E-02  0.1237577E+00
         -2   -1    0    0    0  501 -0.00000000000E+00  0.00000000000E+00  0.63944107916E+02  0.63944107916E+02  0.00000000000E+00 0.  1.
          2   -1    0    0  501    0  0.00000000000E+00 -0.00000000000E+00 -0.33211879490E+03  0.33211879490E+03  0.00000000000E+00 0. -1.
         23    2    1    2    0    0  0.81275633677E+02 -0.32820130893E+02 -0.66517853993E+02  0.14308820687E+03  0.91469778753E+02 0.  0.
          5    1    1    2  502    0  0.10773318049E+02  0.28064129566E+02  0.93194727630E+00  0.30364464029E+02  0.41800000000E+01 0. -1.
         -5    1    1    2    0  502 -0.92048951725E+02  0.47560013272E+01 -0.20258878027E+03  0.22261023192E+03  0.41800000000E+01 0. -1.
        -11    1    3    3    0    0  0.99385164102E+02 -0.18450511315E+02 -0.64441466311E+02  0.11987716543E+03  0.00000000000E+00 0. -1.
         11    1    3    3    0    0 -0.18109530426E+02 -0.14369619578E+02 -0.20763876820E+01  0.23211041443E+02  0.00000000000E+00 0.  1.
</event>
<event>
 7    1  0.6988825E-006  0.1432911E+03  0.7561462E-02  0.1208968E+00
          4   -1    0    0  501    0  0.00000000000E+00  0.00000000000E+00  0.73655190778E+02  0.73655190778E+02  0.00000000000E+00 0.  1.
         -4   -1    0    0    0  501 -0.00000000000E+00 -0.00000000000E+00 -0.44400668755E+03  0.44400668755E+03  0.00000000000E+00 0. -1.
         23    2    1    2    0    0 -0.12351338769E+03 -0.46701434966E+02 -0.25861404432E+03  0.30419743756E+03  0.90654708294E+02 0.  0.
          5    1    1    2  502    0  0.11961036003E+03  0.49488020852E+02 -0.13634321691E+03  0.18804958822E+03  0.41800000000E+01 0.  1.
         -5    1    1    2    0  502  0.39030276641E+01 -0.27865858853E+01  0.24605764448E+02  0.25414852546E+02  0.41800000000E+01 0.  1.
        -11    1    3    3    0    0 -0.19196865317E+02 -0.42124362667E+02 -0.13314688150E+03  0.14096479568E+03  0.00000000000E+00 0. -1.
         11    1    3    3    0    0 -0.10431652237E+03 -0.45770722994E+01 -0.12546716282E+03  0.16323264188E+03  0.00000000000E+00 0.  1.
</event>
<event>
 7    1  0.6988825E-006  0.1789038E+03  0.7561462E-02  0.1168868E+00
         -1   -1    0    0    0  501 -0.00000000000E+00  0.00000000000E+00  0.23998267952E+03  0.23998267952E+03  0.00000000000E+00 0.  1.
          1   -1    0    0  501    0  0.00000000000E+00 -0.00000000000E+00 -0.17497935208E+03  0.17497935208E+03  0.00000000000E+00 0. -1.
         23    2    1    2    0    0  0.59745156584E+02 -0.85630806307E+02  0.81960902427E+02  0.16071693882E+03  0.90610298379E+02 0.  0.
          5    1    1    2  502    0 -0.13384226340E+03  0.10772605542E+03  0.10260032102E+02  0.17216676551E+03  0.41800000000E+01 0. -1.
         -5    1    1    2    0  502  0.74097106820E+02 -0.22095249108E+02 -0.27217607084E+02  0.82078327271E+02  0.41800000000E+01 0.  1.
        -11    1    3    3    0    0 -0.16013051956E+01 -0.14473784676E+02 -0.18253277566E+02  0.23350305417E+02  0.00000000000E+00 0. -1.
         11    1    3    3    0    0  0.61346461780E+02 -0.71157021631E+02  0.10021417999E+03  0.13736663340E+03  0.00000000000E+00 0.  1.
</event>
<event>
 7    1  0.6988825E-006  0.1877288E+03  0.7561462E-02  0.1160526E+00
          2   -1    0    0  501    0  0.00000000000E+00  0.00000000000E+00  0.45112109523E+03  0.45112109523E+03  0.00000000000E+00 0. -1.
         -2   -1    0    0    0  501 -0.00000000000E+00 -0.00000000000E+00 -0.85151996308E+02  0.85151996308E+02  0.00000000000E+00 0.  1.
         23    2    1    2    0    0  0.99853194667E+02 -0.12022271113E+03  0.23567283525E+03  0.29742348008E+03  0.92167675833E+02 0.  0.
          5    1    1    2  502    0  0.27970049448E+02  0.39513997493E+02  0.25663097142E+02  0.54952221238E+02  0.41800000000E+01 0.  1.
         -5    1    1    2    0  502 -0.12782324412E+03  0.80708713640E+02  0.10463316653E+03  0.18389739022E+03  0.41800000000E+01 0.  1.
        -11    1    3    3    0    0  0.65194289320E+02 -0.12467678327E+03  0.21462855700E+03  0.25663205787E+03  0.00000000000E+00 0. -1.
         11    1    3    3    0    0  0.34658905347E+02  0.44540721413E+01  0.21044278254E+02  0.40791422208E+02  0.00000000000E+00 0.  1.
</event>
<event>
 7    1  0.6988825E-006  0.2247653E+03  0.7561462E-02  0.1130379E+00
          1   -1    0    0  501    0  0.00000000000E+00  0.00000000000E+00  0.32504589977E+03  0.32504589977E+03  0.00000000000E+00 0. -1.
         -1   -1    0    0    0  501 -0.00000000000E+00 -0.00000000000E+00 -0.17987312871E+03  0.17987312871E+03  0.00000000000E+00 0.  1.
         23    2    1    2    0    0 -0.15742382982E+03  0.13113310862E+03 -0.10988123364E+01  0.22381596702E+03  0.90078994962E+02 0.  0.
          5    1    1    2  502    0  0.16869155011E+03 -0.10144358232E+03  0.90285555703E+02  0.21660238558E+03  0.41800000000E+01 0. -1.
         -5    1    1    2    0  502 -0.11267720286E+02 -0.29689526305E+02  0.55986027691E+02  0.64500675883E+02  0.41800000000E+01 0. -1.
        -11    1    3    3    0    0 -0.14269645400E+03  0.72306706404E+02 -0.17689556265E+02  0.16094551307E+03  0.00000000000E+00 0.  1.
         11    1    3    3    0    0 -0.14727375819E+02  0.58826402217E+02  0.16590743929E+02  0.62870453954E+02  0.00000000000E+00 0. -1.
</event>
<event>
 7    1  0.6988825E-006  0.2562791E+03  0.7561462E-02  0.1109400E+00
          1   -1    0    0  501    0  0.00000000000E+00  0.00000000000E+00  0.75000574727E+03  0.75000574727E+03  0.00000000000E+00 0. -1.
         -1   -1    0    0    0  501 -0.00000000000E+00 -0.00000000000E+00 -0.21812679495E+03  0.21812679495E+03  0.00000000000E+00 0.  1.
         23    2    1    2    0    0  0.16680347513E+03 -0.17175336722E+03 -0.11012368355E+03  0.27416292860E+03  0.75600709479E+02 0.  0.
          5    1    1    2  502    0 -0.18169113255E+03  0.15747313258E+03  0.56288656222E+03  0.61210146991E+03  0.41800000000E+01 0. -1.
         -5    1    1    2    0  502  0.14887657423E+02  0.14280234641E+02  0.79116073646E+02  0.81868143707E+02  0.41800000000E+01 0.  1.
        -11    1    3    3    0    0  0.11146523356E+03 -0.60606613968E+02 -0.53322004859E+02  0.13762592834E+03  0.00000000000E+00 0. -1.
         11    1    3    3    0    0  0.55338241572E+02 -0.11114675325E+03 -0.56801678688E+02  0.13653700026E+03  0.00000000000E+00 0.  1.
</event>
<event>
 7    1  0.6988825E-006  0.9354009E+02  0.7561462E-02  0.1294498E+00
          1   -1    0    0  501    0  0.00000000000E+00  0.00000000000E+00  0.11740953021E+03  0.11740953021E+03  0.00000000000E+00 0. -1.
         -1   -1    0    0    0  501 -0.00000000000E+00 -0.00000000000E+00 -0.14855401732E+03  0.14855401732E+03  0.00000000000E+00 0.  1.
         23    2    1    2    0    0  0.53522171592E+02  0.33807381794E+02 -0.54270638043E+02  0.12387106621E+03  0.91603367698E+02 0.  0.
          5    1    1    2  502    0 -0.29082885087E+02 -0.40580952567E+02 -0.46202574755E+02  0.68152609856E+02  0.41800000000E+01 0.  1.
         -5    1    1    2    0  502 -0.24439286505E+02  0.67735707730E+01  0.69328725689E+02  0.73939871460E+02  0.41800000000E+01 0.  1.
        -11    1    3    3    0    0 -0.42312241701E+01 -0.27049051681E+02 -0.11437022928E+02  0.29670860255E+02  0.00000000000E+00 0.  1.
         11    1    3    3    0    0  0.57753395762E+02  0.60856433475E+02 -0.42833615115E+02  0.94200205951E+02  0.00000000000E+00 0. -1.
</event>
<event>
 7    1  0.6988825E-006  0.9613881E+02  0.7561462E-02  0.1288632E+00
         -2   -1    0    0    0  501 -0.00000000000E+00  0.00000000000E+00  0.28298183810E+03  0.28298183810E+03  0.00000000000E+00 0.  1.
          2   -1    0    0  501    0  0.00000000000E+00 -0.00000000000E+00 -0.68324074540E+02  0.68324074540E+02  0.00000000000E+00 0. -1.
         23    2    1    2    0    0 -0.73472187741E+01 -0.16727905014E+02  0.20530752415E+03  0.22454509736E+03  0.89081517972E+02 0.  0.
          5    1    1    2  502    0 -0.21381550448E+02 -0.48057039232E+02 -0.87793623262E+01  0.53490179680E+02  0.41800000000E+01 0.  1.
         -5    1    1    2    0  502  0.28728769222E+02  0.64784944246E+02  0.18129601730E+02  0.73270635598E+02  0.41800000000E+01 0.  1.
        -11    1    3    3    0    0  0.93640882041E+01 -0.39319899275E+02  0.39999576837E+02  0.56865690658E+02  0.00000000000E+00 0. -1.
         11    1    3    3    0    0 -0.16711306978E+02  0.22591994261E+02  0.16530794731E+03  0.16767940670E+03  0.00000000000E+00 0.  1.
</event>
<event>
 7    1  0.6988825E-006  0.1654722E+03  0.7561462E-02  0.1182654E+00
         -1   -1    0    0    0  501 -0.00000000000E+00  0.00000000000E+00  0.58097488618E+02  0.58097488618E+02  0.00000000000E+00 0.  1.
          1   -1    0    0  501    0  0.00000000000E+00 -0.00000000000E+00 -0.47644170066E+03  0.47644170066E+03  0.00000000000E+00 0. -1.
         23    2    1    2    0    0 -0.11651623701E+03  0.47993153184E+02 -0.20838273565E+03  0.25956559153E+03  0.89841836299E+02 0.  0.
          5    1    1    2  502    0  0.19113851294E+02 -0.73504937892E+02 -0.78195116918E+02  0.10908833079E+03  0.41800000000E+01 0. -1.
         -5    1    1    2    0  502  0.97402385719E+02  0.25511784708E+02 -0.13176635947E+03  0.16588526695E+03  0.41800000000E+01 0. -1.
        -11    1    3    3    0    0 -0.11168596463E+03  0.60125693953E+01 -0.16150295648E+03  0.19645129330E+03  0.00000000000E+00 0. -1.
         11    1    3    3    0    0 -0.48302723833E+01  0.41980583789E+02 -0.46879779165E+02  0.63114298231E+02  0.00000000000E+00 0.  1.
</event>
<event>
 7    1  0.6988825E-006  0.1642303E+03  0.7561462E-02  0.1184002E+00
          1   -1    0    0  501    0  0.00000000000E+00  0.00000000000E+00  0.19182974265E+03  0.19182974265E+03  0.00000000000E+00 0. -1.
         -1   -1    0    0    0  501 -0.00000000000E+00 -0.00000000000E+00 -0.14194076903E+03  0.14194076903E+03  0.00000000000E+00 0.  1.
         23    2    1    2    0    0 -0.11491605107E+03  0.43525097678E+02  0.16608488042E+02  0.15529061087E+03  0.93483683212E+02 0.  0.
          5    1    1    2  502    0  0.14159402939E+03 -0.37347408840E+02  0.35351943582E+02  0.15070146124E+03  0.41800000000E+01 0.  1.
         -5    1    1    2    0  502 -0.26677978316E+02 -0.61776888380E+01 -0.20714580025E+01  0.27778439565E+02  0.41800000000E+01 0.  1.
        -11    1    3    3    0    0 -0.60388918717E+02 -0.26133608492E+02  0.38554249297E+01  0.65913968914E+02  0.00000000000E+00 0.  1.
         11    1    3    3    0    0 -0.54527132353E+02  0.69658706171E+02  0.12753063112E+02  0.89376641953E+02  0.00000000000E+00 0. -1.
</event>
<event>
 7    1  0.6988825E-006  0.1092526E+03  0.7561462E-02  0.1261960E+00
          2   -1    0    0  501    0  0.00000000000E+00  0.00000000000E+00  0.96555395042E+03  0.96555395042E+03  0.00000000000E+00 0. -1.
         -2   -1    0    0    0  501 -0.00000000000E+00 -0.00000000000E+00 -0.41534068598E+02  0.41534068598E+02  0.00000000000E+00 0.  1.
         23    2    1    2    0    0 -0.70912436489E+02  0.20023326364E+02  0.61534009419E+02  0.13246919845E+03  0.91280594739E+02 0.  0.
          5    1    1    2  502    0 -0.91839499800E+01 -0.54514650196E+02  0.41587872353E+03  0.41955783524E+03  0.41800000000E+01 0. -1.
         -5    1    1    2    0  502  0.80096386468E+02  0.34491323832E+02  0.44660714886E+03  0.45506098532E+03  0.41800000000E+01 0. -1.
        -11    1    3    3    0    0 -0.25995573091E+02 -0.13165630125E+01 -0.22775540837E+02  0.34586535225E+02  0.00000000000E+00 0.  1.
         11    1    3    3    0    0 -0.44916863398E+02  0.21339889376E+02  0.84309550255E+02  0.97882663227E+02  0.00000000000E+00 0. -1.
</event>
<event>
 7    1  0.6988825E-006  0.1228776E+03  0.7561462E-02  0.1238424E+00
          1   -1    0    0  501    0  0.00000000000E+00  0.00000000000E+00  0.48776907997E+03  0.48776907997E+03  0.00000000000E+00 0. -1.
         -1   -1    0    0    0  501 -0.00000000000E+00 -0.00000000000E+00 -0.47847818783E+02  0.47847818783E+02  0.00000000000E+00 0.  1.
         23    2    1    2    0    0  0.10014774285E+03  0.36800124021E+02  0.17743659380E+03  0.22589319207E+03  0.90333658610E+02 0.  0.
          5    1    1    2  502    0 -0.67897592580E+02  0.18219460411E+02  0.22470207766E+03  0.23547935774E+03  0.41800000000E+01 0. -1.
         -5    1    1    2    0  502 -0.32250150269E+02 -0.55019584432E+02  0.37782589721E+02  0.74244348940E+02  0.41800000000E+01 0. -1.
        -11    1    3    3    0    0  0.19517139414E+02  0.22057531250E+02 -0.10647352326E+01  0.29471801384E+02  0.00000000000E+00 0.  1.
         11    1    3    3    0    0  0.80630603436E+02  0.14742592771E+02  0.17850132903E+03  0.19642139068E+03  0.00000000000E+00 0. -1.
</event>
<event>
 7    1  0.6988825E-006  0.1164227E+03  0.7561462E-02  0.1249118E+00
          1   -1    0    0  501    0  0.00000000000E+00  0.00000000000E+00  0.39217541179E+03  0.39217541179E+03  0.00000000000E+00 0. -1.
         -1   -1    0    0    0  501 -0.00000000000E+00 -0.00000000000E+00 -0.47533469056E+02  0.47533469056E+02  0.00000000000E+00 0.  1.
         23    2    1    2    0    0  0.24834330157E+02  0.66268029419E+02  0.12832789703E+03  0.18000358144E+03  0.10452293766E+03 0.  0.
          5    1    1    2  502    0  0.31561985142E+01  0.25296408251E+02  0.31962881106E+01  0.26029954229E+02  0.41800000000E+01 0.  1.
         -5    1    1    2    0  502 -0.27990528671E+02 -0.91564437670E+02  0.21311775759E+03  0.23367534517E+03  0.41800000000E+01 0.  1.
        -11    1    3    3    0    0  0.54081201313E+01  0.84416377873E+02  0.12798966965E+03  0.15341684442E+03  0.00000000000E+00 0. -1.
         11    1    3    3    0    0  0.19426210026E+02 -0.18148348454E+02  0.33822738568E+00  0.26586737019E+02  0.00000000000E+00 0.  1.
</event>
<event>
 7    1  0.6988825E-006  0.1249823E+03  0.7561462E-02  0.1235097E+00
         -2   -1    0    0    0  501 -0.00000000000E+00  0.00000000000E+00  0.16480649554E+02  0.16480649554E+02  0.00000000000E+00 0.  1.
          2   -1    0    0  501    0  0.00000000000E+00 -0.00000000000E+00 -0.17212753690E+04  0.17212753690E+04  0.00000000000E+00 0. -1.
         23    2    1    2    0    0 -0.61963642554E+02 -0.27237681292E+02 -0.21880872785E+03  0.24497749155E+03  0.86921388065E+02 0.  0.
          5    1    1    2  502    0  0.46225056952E+02  0.76173578439E+02 -0.10407051757E+04  0.10445208973E+04  0.41800000000E+01 0. -1.
         -5    1    1    2    0  502  0.15738585602E+02 -0.48935897147E+02 -0.44528081592E+03  0.44825762964E+03  0.41800000000E+01 0. -1.
        -11    1    3    3    0    0 -0.20356316817E+02 -0.55351045020E+02 -0.10180767266E+03  0.11765593921E+03  0.00000000000E+00 0.  1.
         11    1    3    3    0    0 -0.41607325736E+02  0.28113363727E+02 -0.11700105520E+03  0.12732155235E+03  0.00000000000E+00 0. -1.
</event>
<event>
 7    1  0.6988825E-006  0.1302503E+03  0.7561462E-02  0.1227085E+00
         -2   -1    0    0    0  501 -0.00000000000E+00  0.00000000000E+00  0.24969225290E+03  0.24969225290E+03  0.00000000000E+00 0.  1.
          2   -1    0    0  501    0  0.00000000000E+00 -0.00000000000E+00 -0.77073549846E+02  0.77073549846E+02  0.00000000000E+00 0. -1.
         23    2    1    2    0    0 -0.51777957864E+02  0.58019991648E+02  0.12132516204E+03  0.17079772817E+03  0.91677656227E+02 0.  0.
          5    1    1    2  502    0  0.36829199591E+02 -0.97758065985E+02  0.34067812406E+02  0.10995961827E+03  0.41800000000E+01 0.  1.
         -5    1    1    2    0  502  0.14948758273E+02  0.39738074337E+02  0.17225728606E+02  0.46008456309E+02  0.41800000000E+01 0.  1.
        -11    1    3    3    0    0  0.17347196532E+02 -0.66992617856E+01  0.46593584870E+02  0.50167394661E+02  0.00000000000E+00 0.  1.
         11    1    3    3    0    0 -0.69125154396E+02  0.64719253434E+02  0.74731577169E+02  0.12063033350E+03  0.00000000000E+00 0. -1.
</event>
<event>
 7    1  0.6988825E-006  0.2142846E+03  0.7561462E-02  0.1138217E+00
          4   -1    0    0  501    0  0.00000000000E+00  0.00000000000E+00  0.90062191179E+03  0.90062191179E+03  0.00000000000E+00 0. -1.
         -4   -1    0    0    0  501 -0.00000000000E+00 -0.00000000000E+00 -0.57783041913E+02  0.57783041913E+02  0.00000000000E+00 0.  1.
         23    2    1    2    0    0 -0.52549745194E+02 -0.19084767921E+03  0.45211055559E+03  0.50288298690E+03  0.96452224712E+02 0.  0.
          5    1    1    2  502    0  0.36656231788E+02  0.18896952409E+03  0.39412111881E+03  0.43863662531E+03  0.41800000000E+01 0. -1.
         -5    1    1    2    0  502  0.15893513405E+02  0.18781551211E+01 -0.33928045269E+01  0.16885341500E+02  0.41800000000E+01 0. -1.
        -11    1    3    3    0    0 -0.80199297748E+02 -0.13165634018E+03  0.33538377544E+03  0.36911732023E+03  0.00000000000E+00 0.  1.
         11    1    3    3    0    0  0.27649552555E+02 -0.59191339033E+02  0.11672678016E+03  0.13376566667E+03  0.00000000000E+00 0. -1.
</event>
<event>
 7    1  0.6988825E-006  0.2134519E+03  0.7561462E-02  0.1138861E+00
          2   -1    0    0  501    0  0.00000000000E+00  0.00000000000E+00  0.10959073731E+04  0.10959073731E+04  0.00000000000E+00 0. -1.
         -2   -1    0    0    0  501 -0.00000000000E+00 -0.00000000000E+00 -0.10061029868E+03  0.10061029868E+03  0.00000000000E+00 0.  1.
         23    2    1    2    0    0 -0.17926309546E+03  0.67278784168E+02  0.86360436807E+02  0.22916096620E+03  0.91623857112E+02 0.  0.
          5    1    1    2  502    0  0.14512237848E+03 -0.92367557188E+02  0.90863200425E+03  0.92478206184E+03  0.41800000000E+01 0. -1.
         -5    1    1    2    0  502  0.34140716974E+02  0.25088773020E+02  0.30463335571E+00  0.42574643729E+02  0.41800000000E+01 0.  1.
        -11    1    3    3    0    0 -0.11161215440E+03  0.87305799853E+02  0.56605421309E+02  0.15259013539E+03  0.00000000000E+00 0.  1.
         11    1    3    3    0    0 -0.67650941059E+02 -0.20027015684E+02  0.29755015498E+02  0.76570830808E+02  0.00000000000E+00 0. -1.
</event>
<event>
 7    1  0.6988825E-006  0.1201988E+03  0.7561462E-02  0.1242769E+00
          2   -1    0    0  501    0  0.00000000000E+00  0.00000000000E+00  0.15034232228E+04  0.15034232228E+04  0.00000000000E+00 0. -1.
         -2   -1    0    0    0  501 -0.00000000000E+00 -0.00000000000E+00 -0.15037755203E+02  0.15037755203E+02  0.00000000000E+00 0.  1.
         23    2    1    2    0    0 -0.45277230279E+02 -0.46763762671E+02  0.26998892121E+03  0.29193129375E+03  0.89961022742E+02 0.  0.
          5    1    1    2  502    0  0.21253994627E+02 -0.41377339291E+02  0.53629047681E+03  0.53832031767E+03  0.41800000000E+01 0. -1.
         -5    1    1    2    0  502  0.24023235652E+02  0.88141101962E+02  0.68210606962E+03  0.68820936663E+03  0.41800000000E+01 0. -1.
        -11    1    3    3    0    0 -0.15728210760E+02  0.22204022375E+02  0.30070736050E+02  0.40554215440E+02  0.00000000000E+00 0.  1.
         11    1    3    3    0    0 -0.29549019519E+02 -0.68967785046E+02  0.23991818516E+03  0.25137707831E+03  0.00000000000E+00 0. -1.
</event>
<event>
 7    1  0.6988825E-006  0.1108723E+03  0.7561462E-02  0.1258963E+00
          2   -1    0    0  501    0  0.00000000000E+00  0.00000000000E+00  0.11971888169E+04  0.11971888169E+04  0.00000000000E+00 0.  1.
         -2   -1    0    0    0  501 -0.00000000000E+00 -0.00000000000E+00 -0.24292487614E+02  0.24292487614E+02  0.00000000000E+00 0. -1.
         23    2    1    2    0    0 -0.49969425427E+02 -0.73148305034E+02  0.20422050986E+03  0.24075427697E+03  0.91700530107E+02 0.  0.
          5    1    1    2  502    0  0.20681119234E+02 -0.53094089863E-01  0.21003086629E+02  0.29771018788E+02  0.41800000000E+01 0.  1.
         -5    1    1    2    0  502  0.29288306194E+02  0.73201399124E+02  0.94767273278E+03  0.95095600875E+03  0.41800000000E+01 0.  1.
        -11    1    3    3    0    0  0.12838874238E+02 -0.54762283052E+02  0.13091133419E+03  0.14248340870E+03  0.00000000000E+00 0.  1.
         11    1    3    3    0    0 -0.62808299665E+02 -0.18386021982E+02  0.73309175677E+02  0.98270868265E+02  0.00000000000E+00 0. -1.
</event>
<event>
 7    1  0.6988825E-006  0.1069682E+03  0.7561462E-02  0.1266290E+00
          3   -1    0    0  501    0  0.00000000000E+00  0.00000000000E+00  0.42313419582E+03  0.42313419582E+03  0.00000000000E+00 0. -1.
         -3   -1    0    0    0  501 -0.00000000000E+00 -0.00000000000E+00 -0.38796047748E+02  0.38796047748E+02  0.00000000000E+00 0.  1.
         23    2    1    2    0    0  0.56326791098E+02  0.22062430235E+02  0.14267160292E+03  0.18315812676E+03  0.97633267367E+02 0.  0.
          5    1    1    2  502    0 -0.15833149546E+02 -0.59626447565E+02  0.50785836030E+02  0.80016719597E+02  0.41800000000E+01 0.  1.
         -5    1    1    2    0  502 -0.40493641552E+02  0.37564017330E+02  0.19088070912E+03  0.19875539721E+03  0.41800000000E+01 0.  1.
        -11    1    3    3    0    0  0.71611774034E+02  0.21975624621E+01  0.50539338860E+02  0.87677250376E+02  0.00000000000E+00 0.  1.
         11    1    3    3    0    0 -0.15284982936E+02  0.19864867773E+02  0.92132264060E+02  0.95480876388E+02  0.00000000000E+00 0. -1.
</event>
<event>
 7    1  0.6988825E-006  0.1241789E+03  0.7561462E-02  0.1236358E+00
          2   -1    0    0  501    0  0.00000000000E+00  0.00000000000E+00  0.17822722664E+03  0.17822722664E+03  0.00000000000E+00 0.  1.
         -2   -1    0    0    0  501 -0.00000000000E+00 -0.00000000000E+00 -0.11798451409E+03  0.11798451409E+03  0.00000000000E+00 0. -1.
         23    2    1    2    0    0  0.94197985764E+02  0.59812365926E+01  0.10159041305E+02  0.13175775182E+03  0.91366642332E+02 0.  0.
          5    1    1    2  502    0 -0.86397543767E+02 -0.56085455565E+02  0.18987780049E+02  0.10482424379E+03  0.41800000000E+01 0. -1.
         -5    1    1    2    0  502 -0.78004419969E+01  0.50104218972E+02  0.31095891193E+02  0.59629745122E+02  0.41800000000E+01 0. -1.
        -11    1    3    3    0    0  0.38845177670E+02  0.24080993631E+01  0.50074445001E+02  0.63420791645E+02  0.00000000000E+00 0.  1.
         11    1    3    3    0    0  0.55352808094E+02  0.35731372295E+01 -0.39915403696E+02  0.68336960174E+02  0.00000000000E+00 0. -1.
</event>
<event>
 7    1  0.6988825E-006  0.1721221E+03  0.7561462E-02  0.1175653E+00
         -2   -1    0    0    0  501 -0.00000000000E+00  0.00000000000E+00  0.23566375894E+03  0.23566375894E+03  0.00000000000E+00 0.  1.
          2   -1    0    0  501    0  0.00000000000E+00 -0.00000000000E+00 -0.21732374975E+03  0.21732374975E+03  0.00000000000E+00 0. -1.
         23    2    1    2    0    0  0.14128839869E+03 -0.62163068740E+02  0.13396134062E+03  0.22310966116E+03  0.89474138186E+02 0.  0.
          5    1    1    2  502    0  0.37549772878E+01  0.10462081636E+02 -0.67442507192E+02  0.68480064127E+02  0.41800000000E+01 0. -1.
         -5    1    1    2    0  502 -0.14504337598E+03  0.51700987104E+02 -0.48178824236E+02  0.16139778340E+03  0.41800000000E+01 0. -1.
        -11    1    3    3    0    0  0.54595619215E+02  0.20716052621E+02  0.47147348078E+02  0.75051375100E+02  0.00000000000E+00 0. -1.
         11    1    3    3    0    0  0.86692779474E+02 -0.82879121362E+02  0.86813992544E+02  0.14805828606E+03  0.00000000000E+00 0.  1.
</event>
<event>
 7    1  0.6988825E-006  0.1311063E+03  0.7561462E-02  0.1225823E+00
         -1   -1    0    0    0  501 -0.00000000000E+00  0.00000000000E+00  0.34299119338E+02  0.34299119338E+02  0.00000000000E+00 0.  1.
          1   -1    0    0  501    0  0.00000000000E+00 -0.00000000000E+00 -0.12553464689E+04  0.12553464689E+04  0.00000000000E+00 0. -1.
         23    2    1    2    0    0 -0.25888278692E+02 -0.10350470513E+03 -0.14798760927E+03  0.20406365154E+03  0.91423270705E+02 0.  0.
          5    1    1    2  502    0 -0.12505486731E+02  0.78063606483E+02 -0.96234849269E+03  0.96559950686E+03  0.41800000000E+01 0.  1.
         -5    1    1    2    0  502  0.38393765423E+02  0.25441098647E+02 -0.11071124758E+03  0.11998242981E+03  0.41800000000E+01 0.  1.
        -11    1    3    3    0    0  0.27574928043E+02 -0.65887418181E+02 -0.10036476588E+03  0.12318528630E+03  0.00000000000E+00 0.  1.
         11    1    3    3    0    0 -0.53463206735E+02 -0.37617286949E+02 -0.47622843391E+02  0.80878365243E+02  0.00000000000E+00 0. -1.
</event>
<event>
 7    1  0.6988825E-006  0.1138507E+03  0.7561462E-02  0.1253601E+00
         -2   -1    0    0    0  501 -0.00000000000E+00  0.00000000000E+00  0.27876949601E+02  0.27876949601E+02  0.00000000000E+00 0. -1.
          2   -1    0    0  501    0  0.00000000000E+00 -0.00000000000E+00 -0.53944890932E+03  0.53944890932E+03  0.00000000000E+00 0.  1.
         23    2    1    2    0    0  0.16430230659E+02 -0.46194678826E+02 -0.14748669041E+03  0.17925037569E+03  0.89299902038E+02 0.  0.
          5    1    1    2  502    0  0.25788314512E+01  0.87882306907E+02 -0.25122114844E+03  0.26619445536E+03  0.41800000000E+01 0.  1.
         -5    1    1    2    0  502 -0.19009062110E+02 -0.41687628081E+02 -0.11286412087E+03  0.12188102788E+03  0.41800000000E+01 0.  1.
        -11    1    3    3    0    0  0.46828049317E+02 -0.42159421031E+02 -0.12867812004E+03  0.14327714948E+03  0.00000000000E+00 0.  1.
         11    1    3    3    0    0 -0.30397818658E+02 -0.40352577947E+01 -0.18808570369E+02  0.35973226210E+02  0.00000000000E+00 0. -1.
</event>
<event>
 7    1  0.6988825E-006  0.4369870E+03  0.7561462E-02  0.1031675E+00
          1   -1    0    0  501    0  0.00000000000E+00  0.00000000000E+00  0.12116003104E+04  0.12116003104E+04  0.00000000000E+00 0. -1.
         -1   -1    0    0    0  501 -0.00000000000E+00 -0.00000000000E+00 -0.16363704758E+03  0.16363704758E+03  0.00000000000E+00 0.  1.
         23    2    1    2    0    0  0.24810484015E+03  0.35122494316E+03  0.46034596735E+03  0.63641697261E+03  0.90516191682E+02 0.  0.
          5    1    1    2  502    0 -0.48787135305E+02 -0.12329155146E+02  0.38730515107E+02  0.63637393397E+02  0.41800000000E+01 0.  1.
         -5    1    1    2    0  502 -0.19931770485E+03 -0.33889578801E+03  0.54888678034E+03  0.67518299196E+03  0.41800000000E+01 0.  1.
        -11    1    3    3    0    0  0.69304591814E+02  0.11038540634E+03  0.83597117931E+02  0.15484360660E+03  0.00000000000E+00 0.  1.
         11    1    3    3    0    0  0.17880024834E+03  0.24083953682E+03  0.37674884942E+03  0.48157336600E+03  0.00000000000E+00 0. -1.
</event>
<event>
 7    1  0.6988825E-006  0.9753502E+02  0.7561462E-02  0.1285567E+00
          1   -1    0    0  501    0  0.00000000000E+00  0.00000000000E+00  0.30724877612E+03  0.30724877612E+03  0.00000000000E+00 0. -1.
         -1   -1    0    0    0  501 -0.00000000000E+00 -0.00000000000E+00 -0.10361720840E+03  0.10361720840E+03  0.00000000000E+00 0.  1.
         23    2    1    2    0    0  0.71334021380E+02 -0.15713421937E+02 -0.48684345727E+02  0.12550588460E+03  0.89700096517E+02 0.  0.
          5    1    1    2  502    0 -0.62160345116E+02  0.18383578712E+01  0.25941554036E+03  0.26679801919E+03  0.41800000000E+01 0. -1.
         -5    1    1    2    0  502 -0.91736762643E+01  0.13875064065E+02 -0.70996269017E+01  0.18562080734E+02  0.41800000000E+01 0.  1.
        -11    1    3    3    0    0  0.62023367946E+02  0.30029539830E+02 -0.31407014425E+02  0.75730258080E+02  0.00000000000E+00 0. -1.
         11    1    3    3    0    0  0.93106534346E+01 -0.45742961767E+02 -0.17277331302E+02  0.49775626520E+02  0.00000000000E+00 0.  1.
</event>
<event>
 7    1  0.6988825E-006  0.1018735E+03  0.7561462E-02  0.1276405E+00
         -1   -1    0    0    0  501 -0.00000000000E+00  0.00000000000E+00  0.47904261685E+03  0.47904261685E+03  0.00000000000E+00 0.  1.
          1   -1    0    0  501    0  0.00000000000E+00 -0.00000000000E+00 -0.28816347453E+02  0.28816347453E+02  0.00000000000E+00 0. -1.
         23    2    1    2    0    0  0.32315662660E+02 -0.13404105155E+02  0.16794334849E+03  0.19712534029E+03  0.97105403523E+02 0.  0.
          5    1    1    2  502    0 -0.24769694600E+02 -0.45433036286E+02  0.21390525632E+03  0.22011503728E+03  0.41800000000E+01 0.  1.
         -5    1    1    2    0  502 -0.75459680596E+01  0.58837141441E+02  0.68377664586E+02  0.90618586731E+02  0.41800000000E+01 0.  1.
        -11    1    3    3    0    0  0.30296732944E+02  0.33643795659E+02  0.12663073395E+03  0.13448100161E+03  0.00000000000E+00 0.  1.
         11    1    3    3    0    0  0.20189297156E+01 -0.47047900814E+02  0.41312614541E+02  0.62644338678E+02  0.00000000000E+00 0. -1.
</event>
<event>
 7    1  0.6988825E-006  0.7894536E+02  0.7561462E-02  0.1332071E+00
          2   -1    0    0  501    0  0.00000000000E+00  0.00000000000E+00  0.22603676217E+03  0.22603676217E+03  0.00000000000E+00 0. -1.
         -2   -1    0    0    0  501 -0.00000000000E+00 -0.00000000000E+00 -0.95125605077E+02  0.95125605077E+02  0.00000000000E+00 0.  1.
         23    2    1    2    0    0 -0.74074355006E+02 -0.26158649848E+02 -0.18093320075E+01  0.12259006614E+03  0.94094450440E+02 0.  0.
          5    1    1    2  502    0  0.28605980566E+02  0.13267706090E+02  0.14590291451E+03  0.14933006065E+03  0.41800000000E+01 0. -1.
         -5    1    1    2    0  502  0.45468374439E+02  0.12890943758E+02 -0.13182425414E+02  0.49242240454E+02  0.41800000000E+01 0. -1.
        -11    1    3    3    0    0 -0.10441686858E+02 -0.24038604324E+01  0.40950568749E+02  0.42329144219E+02  0.00000000000E+00 0. -1.
         11    1    3    3    0    0 -0.63632668147E+02 -0.23754789416E+02 -0.42759900756E+02  0.80260921926E+02  0.00000000000E+00 0.  1.
</event>
<event>
 7    1  0.6988825E-006  0.1094488E+03  0.7561462E-02  0.1261594E+00
          2   -1    0    0  501    0  0.00000000000E+00  0.00000000000E+00  0.12372514183E+04  0.12372514183E+04  0.00000000000E+00 0. -1.
         -2   -1    0    0    0  501 -0.00000000000E+00 -0.00000000000E+00 -0.11974797347E+02  0.11974797347E+02  0.00000000000E+00 0.  1.
         23    2    1    2    0    0  0.47594333248E+02  0.27960212601E+02  0.52393876265E+03  0.53468507937E+03  0.91265070216E+02 0.  0.
          5    1    1    2  502    0  0.29617926197E+02 -0.16309311460E+02  0.45074527214E+03  0.45203095906E+03  0.41800000000E+01 0. -1.
         -5    1    1    2    0  502 -0.77212259446E+02 -0.11650901141E+02  0.25059258619E+03  0.26251017725E+03  0.41800000000E+01 0. -1.
        -11    1    3    3    0    0  0.19833859082E+02 -0.33647005736E+02  0.19798050310E+03  0.20179638889E+03  0.00000000000E+00 0. -1.
         11    1    3    3    0    0  0.27760474166E+02  0.61607218337E+02  0.32595825955E+03  0.33288869048E+03  0.00000000000E+00 0.  1.
</event>
<event>
 7    1  0.6988825E-006  0.8064874E+02  0.7561462E-02  0.1327220E+00
         -2   -1    0    0    0  501 -0.00000000000E+00  0.00000000000E+00  0.10028656916E+03  0.10028656916E+03  0.00000000000E+00 0. -1.
          2   -1    0    0  501    0  0.00000000000E+00 -0.00000000000E+00 -0.14109187143E+03  0.14109187143E+03  0.00000000000E+00 0.  1.
         23    2    1    2    0    0 -0.10947231834E+02 -0.46692689072E+02 -0.19718711569E+02  0.10575823064E+03  0.92173351159E+02 0.  0.
          5    1    1    2  502    0  0.25781118004E+02  0.41240974749E+01  0.46958200190E+02  0.53890808035E+02  0.41800000000E+01 0. -1.
         -5    1    1    2    0  502 -0.14833886171E+02  0.42568591597E+02 -0.68044790892E+02  0.81729401913E+02  0.41800000000E+01 0. -1.
        -11    1    3    3    0    0 -0.43207213797E+02 -0.19551481406E+02 -0.37044526502E+02  0.60178241026E+02  0.00000000000E+00 0.  1.
         11    1    3    3    0    0  0.32259981963E+02 -0.27141207665E+02  0.17325814932E+02  0.45579989610E+02  0.00000000000E+00 0. -1.
</event>
<event>
 7    1  0.6988825E-006  0.1294415E+03  0.7561462E-02  0.1228287E+00
         -1   -1    0    0    0  501 -0.00000000000E+00  0.00000000000E+00  0.94920477786E+02  0.94920477786E+02  0.00000000000E+00 0.  1.
          1   -1    0    0  501    0  0.00000000000E+00 -0.00000000000E+00 -0.18438598972E+03  0.18438598972E+03  0.00000000000E+00 0. -1.
         23    2    1    2    0    0 -0.16611997125E+02  0.70200240382E+02 -0.64938058963E+02  0.13282741797E+03  0.90676012612E+02 0.  0.
          5    1    1    2  502    0  0.71430416207E+01  0.35788284387E+02 -0.14587957367E+02  0.39523477113E+02  0.41800000000E+01 0.  1.
         -5    1    1    2    0  502  0.94689555048E+01 -0.10598852477E+03 -0.99394956066E+01  0.10695557243E+03  0.41800000000E+01 0.  1.
        -11    1    3    3    0    0  0.30016729611E+02 -0.15838409881E+01 -0.13394812553E+02  0.32907956669E+02  0.00000000000E+00 0. -1.
         11    1    3    3    0    0 -0.46628726736E+02  0.71784081370E+02 -0.51543246410E+02  0.99919461296E+02  0.00000000000E+00 0.  1.
</event>
<event>
 7    1  0.6988825E-006  0.6502902E+02  0.7561462E-02  0.1377862E+00
          2   -1    0    0  501    0  0.00000000000E+00  0.00000000000E+00  0.53055473526E+03  0.53055473526E+03  0.00000000000E+00 0. -1.
         -2   -1    0    0    0  501 -0.00000000000E+00 -0.00000000000E+00 -0.21478723966E+02  0.21478723966E+02  0.00000000000E+00 0.  1.
         23    2    1    2    0    0  0.13378297668E+02  0.12975779951E+02  0.18797232736E+03  0.20692185841E+03  0.84473131363E+02 0.  0.
          5    1    1    2  502    0  0.80107761692E+01 -0.34122634842E+02  0.31116327987E+03  0.31315904248E+03  0.41800000000E+01 0. -1.
         -5    1    1    2    0  502 -0.21389073837E+02  0.21146854891E+02  0.99404040638E+01  0.31952558338E+02  0.41800000000E+01 0. -1.
        -11    1    3    3    0    0 -0.11812478771E+02  0.31160094703E+02  0.26747169740E+02  0.42730518903E+02  0.00000000000E+00 0.  1.
         11    1    3    3    0    0  0.25190776440E+02 -0.18184314752E+02  0.16122515762E+03  0.16419133951E+03  0.00000000000E+00 0. -1.
</event>
<event>
 7    1  0.6988825E-006  0.1220840E+03  0.7561462E-02  0.1239698E+00
          3   -1    0    0  501    0  0.00000000000E+00  0.00000000000E+00  0.49587305282E+03  0.49587305282E+03  0.00000000000E+00 0. -1.
         -3   -1    0    0    0  501 -0.00000000000E+00 -0.00000000000E+00 -0.43969505363E+02  0.43969505363E+02  0.00000000000E+00 0.  1.
         23    2    1    2    0    0 -0.82961466110E+02  0.48078008271E+02  0.15367536626E+03  0.20252331068E+03  0.90584068323E+02 0.  0.
          5    1    1    2  502    0 -0.21573049345E+02 -0.12327913487E+02  0.15161021998E+03  0.15368963892E+03  0.41800000000E+01 0.  1.
         -5    1    1    2    0  502  0.10453451546E+03 -0.35750094783E+02  0.14661796121E+03  0.18362960858E+03  0.41800000000E+01 0.  1.
        -11    1    3    3    0    0 -0.80832965431E+02  0.24110230822E+02  0.54397583208E+02  0.10037115417E+03  0.00000000000E+00 0.  1.
         11    1    3    3    0    0 -0.21285006794E+01  0.23967777449E+02  0.99277783057E+02  0.10215215651E+03  0.00000000000E+00 0. -1.
</event>
<event>
 7    1  0.6988825E-006  0.8778964E+02  0.7561462E-02  0.1308294E+00
          2   -1    0    0  501    0  0.00000000000E+00  0.00000000000E+00  0.51583742318E+03  0.51583742318E+03  0.00000000000E+00 0. -1.
         -2   -1    0    0    0  501 -0.00000000000E+00 -0.00000000000E+00 -0.24887593653E+02  0.24887593653E+02  0.00000000000E+00 0.  1.
         23    2    1    2    0    0 -0.70923443098E+01 -0.38400402231E+02  0.20149831979E+03  0.22299157040E+03  0.87170954749E+02 0.  0.
          5    1    1    2  502    0 -0.31424015299E+02  0.13826904669E+02  0.26199244286E+03  0.26426532983E+03  0.41800000000E+01 0. -1.
         -5    1    1    2    0  502  0.38516359608E+02  0.24573497561E+02  0.27459066871E+02  0.53468116605E+02  0.41800000000E+01 0. -1.
        -11    1    3    3    0    0 -0.22419659771E+02 -0.62587069533E+02  0.13111687625E+03  0.14700822309E+03  0.00000000000E+00 0.  1.
         11    1    3    3    0    0  0.15327315461E+02  0.24186667302E+02  0.70381443539E+02  0.75983347314E+02  0.00000000000E+00 0. -1.
</event>
<event>
 7    1  0.6988825E-006  0.1817547E+03  0.7561462E-02  0.1166116E+00
         -1   -1    0    0    0  501 -0.00000000000E+00  0.00000000000E+00  0.87431667778E+02  0.87431667778E+02  0.00000000000E+00 0.  1.
          1   -1    0    0  501    0  0.00000000000E+00 -0.00000000000E+00 -0.10160261132E+04  0.10160261132E+04  0.00000000000E+00 0. -1.
         23    2    1    2    0    0 -0.67193240752E+02  0.13739932287E+03 -0.27055522021E+02  0.17974181558E+03  0.90452271771E+02 0.  0.
          5    1    1    2  502    0  0.58069244609E+02 -0.15784914456E+03 -0.86036511930E+03  0.87666071003E+03  0.41800000000E+01 0. -1.
         -5    1    1    2    0  502  0.91239961427E+01  0.20449821682E+02 -0.41173804055E+02  0.47055255315E+02  0.41800000000E+01 0.  1.
        -11    1    3    3    0    0 -0.35505718960E+02  0.13622602104E+03 -0.38638440275E+02  0.14598326600E+03  0.00000000000E+00 0. -1.
         11    1    3    3    0    0 -0.31687521792E+02  0.11733018385E+01  0.11582918254E+02  0.33758549581E+02  0.00000000000E+00 0.  1.
</event>
<event>
 7    1  0.6988825E-006  0.1020174E+03  0.7561462E-02  0.1276110E+00
         -1   -1    0    0    0  501 -0.00000000000E+00  0.00000000000E+00  0.10051373249E+03  0.10051373249E+03  0.00000000000E+00 0. -1.
          1   -1    0    0  501    0  0.00000000000E+00 -0.00000000000E+00 -0.13341382984E+03  0.13341382984E+03  0.00000000000E+00 0.  1.
         23    2    1    2    0    0 -0.13670603533E+01  0.35728174251E+02  0.34285175916E+01  0.98853167075E+02  0.92096811121E+02 0.  0.
          5    1    1    2  502    0  0.32958560152E+02  0.22289466119E+02 -0.53391463065E+02  0.66717371916E+02  0.41800000000E+01 0.  1.
         -5    1    1    2    0  502 -0.31591499798E+02 -0.58017640370E+02  0.17062848117E+02  0.68357023337E+02  0.41800000000E+01 0.  1.
        -11    1    3    3    0    0  0.42387695620E+02  0.17286948903E+01  0.83021879073E+01  0.43227669959E+02  0.00000000000E+00 0. -1.
         11    1    3    3    0    0 -0.43754755974E+02  0.33999479361E+02 -0.48736703157E+01  0.55625497116E+02  0.00000000000E+00 0.  1.
</event>
<event>
 7    1  0.6988825E-006  0.6421815E+02  0.7561462E-02  0.1380937E+00
          2   -1    0    0  501    0  0.00000000000E+00  0.00000000000E+00  0.18643287444E+03  0.18643287444E+03  0.00000000000E+00 0.  1.
         -2   -1    0    0    0  501 -0.00000000000E+00 -0.00000000000E+00 -0.65498883595E+02  0.65498883595E+02  0.00000000000E+00 0. -1.
         23    2    1    2    0    0  0.54222538504E+00 -0.15869661671E+02  0.39008248100E+02  0.10156441344E+03  0.92420487375E+02 0.  0.
          5    1    1    2  502    0 -0.18341051323E+02  0.36720757570E+02 -0.19200550013E+02  0.45507600694E+02  0.41800000000E+01 0. -1.
         -5    1    1    2    0  502  0.17798825938E+02 -0.20851095899E+02  0.10112629276E+03  0.10485974391E+03  0.41800000000E+01 0. -1.
        -11    1    3    3    0    0 -0.28360640998E+02 -0.87399335692E+01  0.58766614555E+02  0.65834849304E+02  0.00000000000E+00 0.  1.
         11    1    3    3    0    0  0.28902866383E+02 -0.71297281018E+01 -0.19758366455E+02  0.35729564131E+02  0.00000000000E+00 0. -1.
</event>
<event>
 7    1  0.6988825E-006  0.1288656E+03  0.7561462E-02  0.1229149E+00
         -2   -1    0    0    0  501 -0.00000000000E+00  0.00000000000E+00  0.66228011335E+02  0.66228011335E+02  0.00000000000E+00 0.  1.
          2   -1    0    0  501    0  0.00000000000E+00 -0.00000000000E+00 -0.30638500691E+03  0.30638500691E+03  0.00000000000E+00 0. -1.
         23    2    1    2    0    0 -0.99309089896E+02 -0.94421351706E+01 -0.68167438333E+02  0.13771259685E+03  0.66079576494E+02 0.  0.
          5    1    1    2  502    0  0.41719121043E+02 -0.56169692962E+02 -0.56280404722E+02  0.89891466913E+02  0.41800000000E+01 0. -1.
         -5    1    1    2    0  502  0.57589968853E+02  0.65611828133E+02 -0.11570915251E+03  0.14500895448E+03  0.41800000000E+01 0. -1.
        -11    1    3    3    0    0 -0.26176380487E+02 -0.68530905102E+01  0.11620260885E+02  0.29448229284E+02  0.00000000000E+00 0.  1.
         11    1    3    3    0    0 -0.73132709409E+02 -0.25890446604E+01 -0.79787699218E+02  0.10826436757E+03  0.00000000000E+00 0. -1.
</event>
<event>
 7    1  0.6988825E-006  0.1431157E+03  0.7561462E-02  0.1209197E+00
          1   -1    0    0  501    0  0.00000000000E+00  0.00000000000E+00  0.40019105631E+03  0.40019105631E+03  0.00000000000E+00 0. -1.
         -1   -1    0    0    0  501 -0.00000000000E+00 -0.00000000000E+00 -0.64597623296E+02  0.64597623296E+02  0.00000000000E+00 0.  1.
         23    2    1    2    0    0 -0.34381260808E+02  0.93765355593E+02  0.65018951423E+02  0.15041275179E+03  0.91774282084E+02 0.  0.
          5    1    1    2  502    0 -0.41253404386E+02 -0.48621481978E+02  0.67330673438E+02  0.92826633402E+02  0.41800000000E+01 0.  1.
         -5    1    1    2    0  502  0.75634665194E+02 -0.45143873614E+02  0.20324380815E+03  0.22154929441E+03  0.41800000000E+01 0.  1.
        -11    1    3    3    0    0  0.30497084139E+02  0.23417054199E+02  0.88751184786E+01  0.39461351933E+02  0.00000000000E+00 0.  1.
         11    1    3    3    0    0 -0.64878344947E+02  0.70348301393E+02  0.56143832944E+02  0.11095139985E+03  0.00000000000E+00 0. -1.
</event>
<event>
 7    1  0.6988825E-006  0.1263414E+03  0.7561462E-02  0.1232988E+00
          1   -1    0    0  501    0  0.00000000000E+00  0.00000000000E+00  0.44307193799E+03  0.44307193799E+03  0.00000000000E+00 0. -1.
         -1   -1    0    0    0  501 -0.00000000000E+00 -0.00000000000E+00 -0.56421306781E+02  0.56421306781E+02  0.00000000000E+00 0.  1.
         23    2    1    2    0    0  0.91435489593E+02 -0.83316017647E+01  0.70420775584E+02  0.14762800477E+03  0.91679211463E+02 0.  0.
          5    1    1    2  502    0 -0.53785521553E+02  0.61758143957E+02  0.12292319158E+03  0.14776513155E+03  0.41800000000E+01 0. -1.
         -5    1    1    2    0  502 -0.37649968041E+02 -0.53426542192E+02  0.19330666405E+03  0.20410010845E+03  0.41800000000E+01 0.  1.
        -11    1    3    3    0    0  0.70765144493E+02 -0.28517338514E+02  0.54103345285E+01  0.76486704667E+02  0.00000000000E+00 0.  1.
         11    1    3    3    0    0  0.20670345100E+02  0.20185736749E+02  0.65010441056E+02  0.71141300107E+02  0.00000000000E+00 0. -1.
</event>
<event>
 7    1  0.6988825E-006  0.1119138E+03  0.7561462E-02  0.1257066E+00
         -1   -1    0    0    0  501 -0.00000000000E+00  0.00000000000E+00  0.46617089504E+02  0.46617089504E+02  0.00000000000E+00 0.  1.
          1   -1    0    0  501    0  0.00000000000E+00 -0.00000000000E+00 -0.29061548870E+03  0.29061548870E+03  0.00000000000E+00 0. -1.
         23    2    1    2    0    0  0.21327493393E+02  0.40706013223E+02 -0.10188331317E+03  0.14238774548E+03  0.88216886558E+02 0.  0.
          5    1    1    2  502    0  0.49637800024E+02 -0.47148877534E+01 -0.33814560447E+02  0.60390713325E+02  0.41800000000E+01 0. -1.
         -5    1    1    2    0  502 -0.70965293417E+02 -0.35991125470E+02 -0.10830052558E+03  0.13445411940E+03  0.41800000000E+01 0. -1.
        -11    1    3    3    0    0 -0.90006921696E+01  0.58339383163E+02 -0.84917304721E+02  0.10341878325E+03  0.00000000000E+00 0.  1.
         11    1    3    3    0    0  0.30328185563E+02 -0.17633369940E+02 -0.16966008452E+02  0.38968962236E+02  0.00000000000E+00 0. -1.
</event>
<event>
 7    1  0.6988825E-006  0.1083981E+03  0.7561462E-02  0.1263565E+00
         -1   -1    0    0    0  501 -0.00000000000E+00  0.00000000000E+00  0.50879574835E+02  0.50879574835E+02  0.00000000000E+00 0.  1.
          1   -1    0    0  501    0  0.00000000000E+00 -0.00000000000E+00 -0.29527171599E+03  0.29527171599E+03  0.00000000000E+00 0. -1.
         23    2    1    2    0    0 -0.16197642842E+02  0.50490841613E+02 -0.85200967583E+02  0.13686358803E+03  0.93063140564E+02 0.  0.
          5    1    1    2  502    0 -0.44443119111E+02 -0.43655406318E+02 -0.36833253578E+02  0.72492387919E+02  0.41800000000E+01 0.  1.
         -5    1    1    2    0  502  0.60640761953E+02 -0.68354352944E+01 -0.12235791999E+03  0.13679531487E+03  0.41800000000E+01 0.  1.
        -11    1    3    3    0    0 -0.36296660069E+02  0.60641415835E+02 -0.89397204400E+02  0.11395915497E+03  0.00000000000E+00 0. -1.
         11    1    3    3    0    0  0.20099017227E+02 -0.10150574223E+02  0.41962368173E+01  0.22904433063E+02  0.00000000000E+00 0.  1.
</event>
<event>
 7    1  0.6988825E-006  0.1106890E+03  0.7561462E-02  0.1259299E+00
         -1   -1    0    0    0  501 -0.00000000000E+00  0.00000000000E+00  0.67123826015E+02  0.67123826015E+02  0.00000000000E+00 0.  1.
          1   -1    0    0  501    0  0.00000000000E+00 -0.00000000000E+00 -0.21556014781E+03  0.21556014781E+03  0.00000000000E+00 0. -1.
         23    2    1    2    0    0 -0.35731058396E+02  0.28533178154E+02 -0.15149425255E+02  0.94259270228E+02  0.81021319100E+02 0.  0.
          5    1    1    2  502    0 -0.43527822745E+02 -0.30669851783E+02 -0.46733218266E+02  0.70970256099E+02  0.41800000000E+01 0. -1.
         -5    1    1    2    0  502  0.79258881141E+02  0.21366736291E+01 -0.86553678274E+02  0.11745444750E+03  0.41800000000E+01 0. -1.
        -11    1    3    3    0    0  0.23868954014E+02  0.44157877810E+01  0.85500059199E+01  0.25735748458E+02  0.00000000000E+00 0.  1.
         11    1    3    3    0    0 -0.59600012411E+02  0.24117390373E+02 -0.23699431175E+02  0.68523521770E+02  0.00000000000E+00 0. -1.
</event>
<event>
 7    1  0.6988825E-006  0.1087904E+03  0.7561462E-02  0.1262826E+00
          1   -1    0    0  501    0  0.00000000000E+00  0.00000000000E+00  0.12978967830E+03  0.12978967830E+03  0.00000000000E+00 0. -1.
         -1   -1    0    0    0  501 -0.00000000000E+00 -0.00000000000E+00 -0.10069416628E+03  0.10069416628E+03  0.00000000000E+00 0.  1.
         23    2    1    2    0    0 -0.25178202836E+02  0.12769749000E+01 -0.14325867261E+02  0.95537609595E+02  0.91030938759E+02 0.  0.
          5    1    1    2  502    0  0.29175009508E+02  0.57627538185E+02  0.61901804948E+01  0.65022342865E+02  0.41800000000E+01 0. -1.
         -5    1    1    2    0  502 -0.39968066724E+01 -0.58904513085E+02  0.37231198791E+02  0.69923892117E+02  0.41800000000E+01 0. -1.
        -11    1    3    3    0    0 -0.44589976768E+01 -0.43815210429E+02 -0.12902952360E+02  0.45892717340E+02  0.00000000000E+00 0.  1.
         11    1    3    3    0    0 -0.20719205159E+02  0.45092185329E+02 -0.14229149013E+01  0.49644892255E+02  0.00000000000E+00 0. -1.
</event>
<event>
 7    1  0.6988825E-006  0.1066054E+03  0.7561462E-02  0.1266989E+00
         -2   -1    0    0    0  501 -0.00000000000E+00  0.00000000000E+00  0.70701479552E+02  0.70701479552E+02  0.00000000000E+00 0. -1.
          2   -1    0    0  501    0  0.00000000000E+00 -0.00000000000E+00 -0.22145024529E+03  0.22145024529E+03  0.00000000000E+00 0.  1.
         23    2    1    2    0    0  0.30081194854E+02  0.52739224937E+02 -0.43311834278E+02  0.11643411480E+03  0.89412996651E+02 0.  0.
          5    1    1    2  502    0 -0.75745640224E+02 -0.42255212381E+02 -0.45773234011E+02  0.98160920625E+02  0.41800000000E+01 0. -1.
         -5    1    1    2    0  502  0.45664445370E+02 -0.10484012556E+02 -0.61663697450E+02  0.77556689418E+02  0.41800000000E+01 0. -1.
        -11    1    3    3    0    0 -0.93158161391E+01  0.34840680679E+02  0.18850150805E+02  0.40693803532E+02  0.00000000000E+00 0. -1.
         11    1    3    3    0    0  0.39397010993E+02  0.17898544258E+02 -0.62161985083E+02  0.75740311270E+02  0.00000000000E+00 0.  1.
</event>
<event>
 7    1  0.6988825E-006  0.1576547E+03  0.7561462E-02  0.1191370E+00
          2   -1    0    0  501    0  0.00000000000E+00  0.00000000000E+00  0.21777662998E+04  0.21777662998E+04  0.00000000000E+00 0. -1.
         -2   -1    0    0    0  501 -0.00000000000E+00 -0.00000000000E+00 -0.15130565780E+02  0.15130565780E+02  0.00000000000E+00 0.  1.
         23    2    1    2    0    0  0.11810611206E+03 -0.27900081531E+02  0.54863147261E+03  0.56951009554E+03  0.92832041534E+02 0.  0.
          5    1    1    2  502    0 -0.74698841757E+02 -0.42967297999E+02  0.63169336859E+03  0.63755791108E+03  0.41800000000E+01 0. -1.
         -5    1    1    2    0  502 -0.43407270303E+02  0.70867379530E+02  0.98231089278E+03  0.98582885892E+03  0.41800000000E+01 0. -1.
        -11    1    3    3    0    0  0.34528830890E+01 -0.30937999157E+02  0.59959802443E+02  0.67559308037E+02  0.00000000000E+00 0.  1.
         11    1    3    3    0    0  0.11465322897E+03  0.30379176261E+01  0.48867167016E+03  0.50195078751E+03  0.00000000000E+00 0. -1.
</event>
<event>
 7    1  0.6988825E-006  0.1077696E+03  0.7561462E-02  0.1264757E+00
          3   -1    0    0  501    0  0.00000000000E+00  0.00000000000E+00  0.23199839684E+03  0.23199839684E+03  0.00000000000E+00 0. -1.
         -3   -1    0    0    0  501 -0.00000000000E+00 -0.00000000000E+00 -0.58550012768E+02  0.58550012768E+02  0.00000000000E+00 0.  1.
         23    2    1    2    0    0  0.21796458742E+02  0.22189227171E+02  0.55323618637E+02  0.11571070374E+03  0.96751314022E+02 0.  0.
          5    1    1    2  502    0  0.12395698597E+02  0.41960078611E+02  0.10995792581E+02  0.45306527071E+02  0.41800000000E+01 0.  1.
         -5    1    1    2    0  502 -0.34192157340E+02 -0.64149305782E+02  0.10712897285E+03  0.12953117880E+03  0.41800000000E+01 0.  1.
        -11    1    3    3    0    0  0.58791813287E+02  0.88842787399E+01  0.19647042534E+02  0.62621194484E+02  0.00000000000E+00 0. -1.
         11    1    3    3    0    0 -0.36995354545E+02  0.13304948431E+02  0.35676576103E+02  0.53089509257E+02  0.00000000000E+00 0.  1.
</event>
<event>
 7    1  0.6988825E-006  0.1273075E+03  0.7561462E-02  0.1231507E+00
          1   -1    0    0  501    0  0.00000000000E+00  0.00000000000E+00  0.37191902829E+03  0.37191902829E+03  0.00000000000E+00 0. -1.
         -1   -1    0    0    0  501 -0.00000000000E+00 -0.00000000000E+00 -0.74825521024E+02  0.74825521024E+02  0.00000000000E+00 0.  1.
         23    2    1    2    0    0  0.89709962865E+02 -0.84454368055E+02  0.17517827197E+03  0.23298800188E+03  0.91736384982E+02 0.  0.
          5    1    1    2  502    0 -0.55245645393E+02  0.74758386971E+02  0.69915324914E+01  0.93312655540E+02  0.41800000000E+01 0. -1.
         -5    1    1    2    0  502 -0.34464317472E+02  0.96959810842E+01  0.11492370281E+03  0.12044389189E+03  0.41800000000E+01 0. -1.
        -11    1    3    3    0    0  0.73403665461E+02 -0.80088967720E+02  0.76486052991E+02  0.13286254986E+03  0.00000000000E+00 0.  1.
         11    1    3    3    0    0  0.16306297403E+02 -0.43654003349E+01  0.98692218981E+02  0.10012545202E+03  0.00000000000E+00 0. -1.
</event>
<event>
 7    1  0.6988825E-006  0.1367122E+03  0.7561462E-02  0.1217823E+00
          2   -1    0    0  501    0  0.00000000000E+00  0.00000000000E+00  0.69684962851E+03  0.69684962851E+03  0.00000000000E+00 0.  1.
         -2   -1    0    0    0  501 -0.00000000000E+00 -0.00000000000E+00 -0.36303510581E+02  0.36303510581E+02  0.00000000000E+00 0. -1.
         23    2    1    2    0    0  0.48342824175E+02 -0.92298708895E+02  0.19015395222E+03  0.23538558993E+03  0.91606605034E+02 0.  0.
          5    1    1    2  502    0  0.27449612749E+02  0.44814211421E+02  0.30660958216E+03  0.31110882832E+03  0.41800000000E+01 0. -1.
         -5    1    1    2    0  502 -0.75792436924E+02  0.47484497474E+02  0.16378258355E+03  0.18665872085E+03  0.41800000000E+01 0. -1.
        -11    1    3    3    0    0  0.68803656636E+02 -0.52952619205E+02  0.15909397168E+03  0.18124242018E+03  0.00000000000E+00 0.  1.
         11    1    3    3    0    0 -0.20460832461E+02 -0.39346089690E+02  0.31059980541E+02  0.54143169745E+02  0.00000000000E+00 0. -1.
</event>
<event>
 7    1  0.6988825E-006  0.6920515E+02  0.7561462E-02  0.1362817E+00
          2   -1    0    0  501    0  0.00000000000E+00  0.00000000000E+00  0.45756572070E+03  0.45756572070E+03  0.00000000000E+00 0. -1.
         -2   -1    0    0    0  501 -0.00000000000E+00 -0.00000000000E+00 -0.29586056525E+02  0.29586056525E+02  0.00000000000E+00 0.  1.
         23    2    1    2    0    0 -0.18827487327E+02 -0.26215270280E+02  0.19684315251E+03  0.22236273963E+03  0.98266202777E+02 0.  0.
          5    1    1    2  502    0 -0.81605780520E+01 -0.18558591282E+02  0.20527105785E+03  0.20631213230E+03  0.41800000000E+01 0.  1.
         -5    1    1    2    0  502  0.26988065379E+02  0.44773861562E+02  0.25865453812E+02  0.58476905296E+02  0.41800000000E+01 0.  1.
        -11    1    3    3    0    0 -0.35580203993E+02 -0.31683419625E+02  0.19898643122E+03  0.20461033650E+03  0.00000000000E+00 0. -1.
         11    1    3    3    0    0  0.16752716667E+02  0.54681493450E+01 -0.21432787068E+01  0.17752403121E+02  0.00000000000E+00 0.  1.
</event>
<event>
 7    1  0.6988825E-006  0.1699327E+03  0.7561462E-02  0.1177918E+00
         -1   -1    0    0    0  501 -0.00000000000E+00  0.00000000000E+00  0.63636068526E+02  0.63636068526E+02  0.00000000000E+00 0.  1.
          1   -1    0    0  501    0  0.00000000000E+00 -0.00000000000E+00 -0.79163176374E+03  0.79163176374E+03  0.00000000000E+00 0. -1.
         23    2    1    2    0    0  0.13179230758E+03  0.56939358939E+02 -0.97107647391E+02  0.19626933917E+03  0.92089388005E+02 0.  0.
          5    1    1    2  502    0 -0.34828608690E+02 -0.82430608836E+02 -0.32122455384E+03  0.33348241879E+03  0.41800000000E+01 0. -1.
         -5    1    1    2    0  502 -0.96963698886E+02  0.25491249897E+02 -0.30966349399E+03  0.32551607430E+03  0.41800000000E+01 0. -1.
        -11    1    3    3    0    0  0.77639809604E+02  0.56081849676E+02 -0.13600694054E+02  0.96737235732E+02  0.00000000000E+00 0.  1.
         11    1    3    3    0    0  0.54152497972E+02  0.85750926293E+00 -0.83506953337E+02  0.99532103436E+02  0.00000000000E+00 0. -1.
</event>
<event>
 7    1  0.6988825E-006  0.9940732E+02  0.7561462E-02  0.1281547E+00
          1   -1    0    0  501    0  0.00000000000E+00  0.00000000000E+00  0.92256393554E+02  0.92256393554E+02  0.00000000000E+00 0. -1.
         -1   -1    0    0    0  501 -0.00000000000E+00 -0.00000000000E+00 -0.14261854728E+03  0.14261854728E+03  0.00000000000E+00 0.  1.
         23    2    1    2    0    0 -0.15893472760E+02 -0.83206213899E+01 -0.58380013765E+02  0.10831681373E+03  0.89456530853E+02 0.  0.
          5    1    1    2  502    0  0.66180099286E+02  0.28207427092E+02  0.40519661901E+01  0.72175863796E+02  0.41800000000E+01 0. -1.
         -5    1    1    2    0  502 -0.50286626526E+02 -0.19886805703E+02  0.39658938510E+01  0.54382263308E+02  0.41800000000E+01 0. -1.
        -11    1    3    3    0    0  0.25703126902E+02 -0.15914388768E+02 -0.58704687989E+02  0.66031499258E+02  0.00000000000E+00 0.  1.
         11    1    3    3    0    0 -0.41596599662E+02  0.75937673779E+01  0.32467422363E+00  0.42285314470E+02  0.00000000000E+00 0. -1.
</event>
<event>
 7    1  0.6988825E-006  0.9523743E+02  0.7561462E-02  0.1290642E+00
          4   -1    0    0  501    0  0.00000000000E+00  0.00000000000E+00  0.84061422920E+02  0.84061422920E+02  0.00000000000E+00 0.  1.
         -4   -1    0    0    0  501 -0.00000000000E+00 -0.00000000000E+00 -0.21550567489E+03  0.21550567489E+03  0.00000000000E+00 0. -1.
         23    2    1    2    0    0  0.37897255609E+02  0.30938099990E+02 -0.13022012792E+03  0.16524810819E+03  0.89198024257E+02 0.  0.
          5    1    1    2  502    0 -0.42677895096E+02  0.15024551337E+02 -0.49614967944E+02  0.67277465149E+02  0.41800000000E+01 0. -1.
         -5    1    1    2    0  502  0.47806394866E+01 -0.45962651328E+02  0.48390843892E+02  0.67041524473E+02  0.41800000000E+01 0. -1.
        -11    1    3    3    0    0  0.65741710829E+02  0.23514633651E+02 -0.72042522947E+02  0.10032465126E+03  0.00000000000E+00 0. -1.
         11    1    3    3    0    0 -0.27844455220E+02  0.74234663396E+01 -0.58177604973E+02  0.64923456927E+02  0.00000000000E+00 0.  1.
</event>
<event>
 7    1  0.6988825E-006  0.1157037E+03  0.7561462E-02  0.1250358E+00
          2   -1    0    0  501    0  0.00000000000E+00  0.00000000000E+00  0.98392952971E+02  0.98392952971E+02  0.00000000000E+00 0. -1.
         -2   -1    0    0    0  501 -0.00000000000E+00 -0.00000000000E+00 -0.19874195251E+03  0.19874195251E+03  0.00000000000E+00 0.  1.
         23    2    1    2    0    0  0.39157203883E+02  0.46225446816E+02 -0.11230642880E+03  0.15763431716E+03  0.92551420560E+02 0.  0.
          5    1    1    2  502    0  0.10479034228E+02 -0.78698522498E+02  0.80712747126E+01  0.79911735542E+02  0.41800000000E+01 0. -1.
         -5    1    1    2    0  502 -0.49636238112E+02  0.32473075682E+02  0.38861545512E+01  0.59588852778E+02  0.41800000000E+01 0. -1.
        -11    1    3    3    0    0  0.39047856265E+02 -0.66128589797E+01 -0.93512215510E+02  0.10155293906E+03  0.00000000000E+00 0.  1.
         11    1    3    3    0    0  0.10934761873E+00  0.52838305796E+02 -0.18794213293E+02  0.56081378100E+02  0.00000000000E+00 0. -1.
</event>
<event>
 7    1  0.6988825E-006  0.8880938E+02  0.7561462E-02  0.1305761E+00
          2   -1    0    0  501    0  0.00000000000E+00  0.00000000000E+00  0.28480098972E+03  0.28480098972E+03  0.00000000000E+00 0. -1.
         -2   -1    0    0    0  501 -0.00000000000E+00 -0.00000000000E+00 -0.47365679947E+02  0.47365679947E+02  0.00000000000E+00 0.  1.
         23    2    1    2    0    0 -0.32933164015E+02  0.10605431401E+02  0.69362767102E+02  0.11981767065E+03  0.91367457410E+02 0.  0.
          5    1    1    2  502    0  0.24989832741E+02  0.49269290863E+02  0.33395732074E+02  0.64689273325E+02  0.41800000000E+01 0.  1.
         -5    1    1    2    0  502  0.79433312742E+01 -0.59874722264E+02  0.13467681060E+03  0.14765972569E+03  0.41800000000E+01 0.  1.
        -11    1    3    3    0    0 -0.36120575036E+02 -0.12595533769E+02 -0.79196395003E+01  0.39064870430E+02  0.00000000000E+00 0.  1.
         11    1    3    3    0    0  0.31874110207E+01  0.23200965170E+02  0.77282406602E+02  0.80752800224E+02  0.00000000000E+00 0. -1.
</event>
<event>
 7    1  0.6988825E-006  0.9795294E+02  0.7561462E-02  0.1284660E+00
          2   -1    0    0  501    0  0.00000000000E+00  0.00000000000E+00  0.14047748115E+04  0.14047748115E+04  0.00000000000E+00 0. -1.
         -2   -1    0    0    0  501 -0.00000000000E+00 -0.00000000000E+00 -0.10447318117E+02  0.10447318117E+02  0.00000000000E+00 0.  1.
         23    2    1    2    0    0  0.19414057607E+02  0.28410263296E+02  0.35031497973E+03  0.36317918171E+03  0.89411880129E+02 0.  0.
          5    1    1    2  502    0  0.31143275788E+02 -0.37579718897E+02  0.84641598502E+03  0.84783231302E+03  0.41800000000E+01 0. -1.
         -5    1    1    2    0  502 -0.50557333395E+02  0.91694556010E+01  0.19759652861E+03  0.20421063488E+03  0.41800000000E+01 0. -1.
        -11    1    3    3    0    0  0.53569599068E+02  0.29577760806E+02  0.20771608817E+03  0.21654218795E+03  0.00000000000E+00 0. -1.
         11    1    3    3    0    0 -0.34155541461E+02 -0.11674975103E+01  0.14259889157E+03  0.14663699376E+03  0.00000000000E+00 0.  1.
</event>
<event>
 7    1  0.6988825E-006  0.1033368E+03  0.7561462E-02  0.1273432E+00
         -2   -1    0    0    0  501 -0.00000000000E+00  0.00000000000E+00  0.34569382631E+02  0.34569382631E+02  0.00000000000E+00 0.  1.
          2   -1    0    0  501    0  0.00000000000E+00 -0.00000000000E+00 -0.68149465015E+03  0.68149465015E+03  0.00000000000E+00 0. -1.
         23    2    1    2    0    0 -0.67834869252E+02 -0.67908791584E+02 -0.21425093903E+03  0.25552637271E+03  0.10088155834E+03 0.  0.
          5    1    1    2  502    0 -0.58597249881E+01  0.14436234915E+02 -0.29490988354E+03  0.29535072890E+03  0.41800000000E+01 0.  1.
         -5    1    1    2    0  502  0.73694594240E+02  0.53472556669E+02 -0.13776444495E+03  0.16518693117E+03  0.41800000000E+01 0.  1.
        -11    1    3    3    0    0 -0.35676113165E+02 -0.53147475440E+02 -0.35277650716E+02  0.73088657371E+02  0.00000000000E+00 0.  1.
         11    1    3    3    0    0 -0.32158756086E+02 -0.14761316144E+02 -0.17897328832E+03  0.18243771534E+03  0.00000000000E+00 0. -1.
</event>
<event>
 7    1  0.6988825E-006  0.1397553E+03  0.7561462E-02  0.1213659E+00
          2   -1    0    0  501    0  0.00000000000E+00  0.00000000000E+00  0.36713032015E+03  0.36713032015E+03  0.00000000000E+00 0.  1.
         -2   -1    0    0    0  501 -0.00000000000E+00 -0.00000000000E+00 -0.82120172700E+02  0.82120172700E+02  0.00000000000E+00 0. -1.
         23    2    1    2    0    0 -0.12593375792E+03  0.41939684571E+02  0.11541814723E+03  0.20019883001E+03  0.95603212821E+02 0.  0.
          5    1    1    2  502    0  0.14739456253E+02  0.15108994794E+02  0.10713891872E+03  0.10927833088E+03  0.41800000000E+01 0.  1.
         -5    1    1    2    0  502  0.11119430166E+03 -0.57048679366E+02  0.62453081492E+02  0.13977333196E+03  0.41800000000E+01 0.  1.
        -11    1    3    3    0    0 -0.21602471809E+02  0.10245933598E+02 -0.16500113387E+02  0.29049951555E+02  0.00000000000E+00 0. -1.
         11    1    3    3    0    0 -0.10433128611E+03  0.31693750974E+02  0.13191826062E+03  0.17114887845E+03  0.00000000000E+00 0.  1.
</event>
<event>
 7    1  0.6988825E-006  0.2331340E+03  0.7561462E-02  0.1124453E+00
          2   -1    0    0  501    0  0.00000000000E+00  0.00000000000E+00  0.51926562927E+03  0.51926562927E+03  0.00000000000E+00 0. -1.
         -2   -1    0    0    0  501 -0.00000000000E+00 -0.00000000000E+00 -0.13068986119E+03  0.13068986119E+03  0.00000000000E+00 0.  1.
         23    2    1    2    0    0 -0.46805005627E+02 -0.20763640776E+03  0.58545445895E+02  0.23780481043E+03  0.88430606992E+02 0.  0.
          5    1    1    2  502    0 -0.19883186641E+02  0.15877968700E+03  0.18063425091E+03  0.24135561961E+03  0.41800000000E+01 0. -1.
         -5    1    1    2    0  502  0.66688192268E+02  0.48856720754E+02  0.14939607127E+03  0.17079506042E+03  0.41800000000E+01 0. -1.
        -11    1    3    3    0    0  0.17228760895E+02 -0.30033281083E+02  0.32012599337E+02  0.47155431191E+02  0.00000000000E+00 0.  1.
         11    1    3    3    0    0 -0.64033766522E+02 -0.17760312667E+03  0.26532846559E+02  0.19064937924E+03  0.00000000000E+00 0. -1.
</event>
<event>
 7    1  0.6988825E-006  0.1331953E+03  0.7561462E-02  0.1222790E+00
          2   -1    0    0  501    0  0.00000000000E+00  0.00000000000E+00  0.23129496196E+03  0.23129496196E+03  0.00000000000E+00 0. -1.
         -2   -1    0    0    0  501 -0.00000000000E+00 -0.00000000000E+00 -0.10632308633E+03  0.10632308633E+03  0.00000000000E+00 0.  1.
         23    2    1    2    0    0  0.53766642943E+02  0.57937207315E+02 -0.29576461378E+02  0.12361290917E+03  0.90320608727E+02 0.  0.
          5    1    1    2  502    0 -0.91180799479E+02 -0.61664508207E+02  0.11732743765E+03  0.16093368135E+03  0.41800000000E+01 0.  1.
         -5    1    1    2    0  502  0.37414156536E+02  0.37273008917E+01  0.37220899351E+02  0.53071457769E+02  0.41800000000E+01 0.  1.
        -11    1    3    3    0    0 -0.22333168416E+02  0.29867601631E+02 -0.18875035940E+02  0.41798457154E+02  0.00000000000E+00 0.  1.
         11    1    3    3    0    0  0.76099811359E+02  0.28069605685E+02 -0.10701425437E+02  0.81814452016E+02  0.00000000000E+00 0. -1.
</event>
<event>
 7    1  0.6988825E-006  0.1135709E+03  0.7561462E-02  0.1254097E+00
         -2   -1    0    0    0  501 -0.00000000000E+00  0.00000000000E+00  0.41483777201E+02  0.41483777201E+02  0.00000000000E+00 0.  1.
          2   -1    0    0  501    0  0.00000000000E+00 -0.00000000000E+00 -0.53437801603E+03  0.53437801603E+03  0.00000000000E+00 0. -1.
         23    2    1    2    0    0  0.68011067574E+02 -0.72793452566E+02 -0.24184779242E+03  0.27820983564E+03  0.94794334739E+02 0.  0.
          5    1    1    2  502    0 -0.81643805944E+02  0.52159460648E+02 -0.82702976774E+02  0.12745028502E+03  0.41800000000E+01 0. -1.
         -5    1    1    2    0  502  0.13632738370E+02  0.20633991918E+02 -0.16834346964E+03  0.17020167258E+03  0.41800000000E+01 0. -1.
        -11    1    3    3    0    0  0.51695421117E+02 -0.31134810730E+02 -0.22055432534E+03  0.22866132911E+03  0.00000000000E+00 0. -1.
         11    1    3    3    0    0  0.16315646457E+02 -0.41658641836E+02 -0.21293467079E+02  0.49548506529E+02  0.00000000000E+00 0.  1.
</event>
<event>
 7    1  0.6988825E-006  0.2052781E+03  0.7561462E-02  0.1145361E+00
          2   -1    0    0  501    0  0.00000000000E+00  0.00000000000E+00  0.72645717358E+03  0.72645717358E+03  0.00000000000E+00 0. -1.
         -2   -1    0    0    0  501 -0.00000000000E+00 -0.00000000000E+00 -0.14515934258E+03  0.14515934258E+03  0.00000000000E+00 0.  1.
         23    2    1    2    0    0  0.17229923461E+03 -0.75371023909E+02 -0.38167103825E+02  0.21225804140E+03  0.90713454524E+02 0.  0.
          5    1    1    2  502    0 -0.16903340321E+03  0.95925172654E+02  0.47342404893E+03  0.51178289602E+03  0.41800000000E+01 0.  1.
         -5    1    1    2    0  502 -0.32658314014E+01 -0.20554148744E+02  0.14604088589E+03  0.14757557873E+03  0.41800000000E+01 0.  1.
        -11    1    3    3    0    0  0.69714595996E+02 -0.37490754224E+01 -0.51042334461E+02  0.86484104716E+02  0.00000000000E+00 0.  1.
         11    1    3    3    0    0  0.10258463862E+03 -0.71621948487E+02  0.12875230635E+02  0.12577393669E+03  0.00000000000E+00 0. -1.
</event>
<event>
 7    1  0.6988825E-006  0.1636942E+03  0.7561462E-02  0.1184588E+00
          1   -1    0    0  501    0  0.00000000000E+00  0.00000000000E+00  0.14671247970E+04  0.14671247970E+04  0.00000000000E+00 0. -1.
         -1   -1    0    0    0  501 -0.00000000000E+00 -0.00000000000E+00 -0.12495115343E+03  0.12495115343E+03  0.00000000000E+00 0.  1.
         23    2    1    2    0    0 -0.50653222362E+02 -0.52434692642E+02 -0.79580717409E+02  0.14096262728E+03  0.90676489671E+02 0.  0.
          5    1    1    2  502    0  0.10536535960E+03  0.96307029712E+02  0.13185802972E+04  0.13262912107E+04  0.41800000000E+01 0. -1.
         -5    1    1    2    0  502 -0.54712137238E+02 -0.43872337070E+02  0.10317406375E+03  0.12482211243E+03  0.41800000000E+01 0.  1.
        -11    1    3    3    0    0 -0.66594407479E+02 -0.79461622888E+01 -0.33545218152E+02  0.74988254170E+02  0.00000000000E+00 0. -1.
         11    1    3    3    0    0  0.15941185117E+02 -0.44488530353E+02 -0.46035499256E+02  0.65974373113E+02  0.00000000000E+00 0.  1.
</event>
<event>
 7    1  0.6988825E-006  0.1134926E+03  0.7561462E-02  0.1254236E+00
          1   -1    0    0  501    0  0.00000000000E+00  0.00000000000E+00  0.56264305727E+03  0.56264305727E+03  0.00000000000E+00 0. -1.
         -1   -1    0    0    0  501 -0.00000000000E+00 -0.00000000000E+00 -0.24992474244E+02  0.24992474244E+02  0.00000000000E+00 0.  1.
         23    2    1    2    0    0  0.21809016022E+02  0.41880673664E+02  0.20845681254E+03  0.23232399632E+03  0.91052581342E+02 0.  0.
          5    1    1    2  502    0 -0.50451706512E+02 -0.68991074452E+02  0.27599658891E+03  0.28895801172E+03  0.41800000000E+01 0.  1.
         -5    1    1    2    0  502  0.28642690490E+02  0.27110400788E+02  0.53197181576E+02  0.66353523471E+02  0.41800000000E+01 0.  1.
        -11    1    3    3    0    0  0.29471616555E+02 -0.22399938578E+02  0.62220934977E+02  0.72400125552E+02  0.00000000000E+00 0. -1.
         11    1    3    3    0    0 -0.76626005329E+01  0.64280612242E+02  0.14623587756E+03  0.15992387077E+03  0.00000000000E+00 0.  1.
</event>
<event>
 7    1  0.6988825E-006  0.9882127E+02  0.7561462E-02  0.1282794E+00
          4   -1    0    0  501    0  0.00000000000E+00  0.00000000000E+00  0.19699275987E+03  0.19699275987E+03  0.00000000000E+00 0. -1.
         -4   -1    0    0    0  501 -0.00000000000E+00 -0.00000000000E+00 -0.64686239299E+02  0.64686239299E+02  0.00000000000E+00 0.  1.
         23    2    1    2    0    0 -0.15897864815E+02  0.18571381472E+02  0.32883383013E+02  0.10002973436E+03  0.91252356478E+02 0.  0.
          5    1    1    2  502    0  0.58666353813E+02 -0.45269874747E+02  0.74839622224E+02  0.10540182201E+03  0.41800000000E+01 0. -1.
         -5    1    1    2    0  502 -0.42768488998E+02  0.26698493275E+02  0.24583515329E+02  0.56247442789E+02  0.41800000000E+01 0. -1.
        -11    1    3    3    0    0  0.98618230323E+01  0.38828553047E+02 -0.14339222163E+02  0.42550268830E+02  0.00000000000E+00 0.  1.
         11    1    3    3    0    0 -0.25759687848E+02 -0.20257171575E+02  0.47222605177E+02  0.57479465533E+02  0.00000000000E+00 0. -1.
</event>
<event>
 7    1  0.6988825E-006  0.8998408E+02  0.7561462E-02  0.1302890E+00
          1   -1    0    0  501    0  0.00000000000E+00  0.00000000000E+00  0.76028792911E+03  0.76028792911E+03  0.00000000000E+00 0. -1.
         -1   -1    0    0    0  501 -0.00000000000E+00 -0.00000000000E+00 -0.17919382401E+02  0.17919382401E+02  0.00000000000E+00 0.  1.
         23    2    1    2    0    0 -0.38967344527E+02 -0.30856982083E+02  0.13977226577E+03  0.16076121083E+03  0.61945729029E+02 0.  0.
          5    1    1    2  502    0  0.28320351974E+02  0.76830510389E+02  0.45816628932E+03  0.46544472360E+03  0.41800000000E+01 0.  1.
         -5    1    1    2    0  502  0.10646992553E+02 -0.45973528307E+02  0.14442999161E+03  0.15200137708E+03  0.41800000000E+01 0.  1.
        -11    1    3    3    0    0 -0.16859648622E+02 -0.19400864549E+02  0.13228688227E+03  0.13476075288E+03  0.00000000000E+00 0. -1.
         11    1    3    3    0    0 -0.22107695905E+02 -0.11456117534E+02  0.74853835033E+01  0.26000457946E+02  0.00000000000E+00 0.  1.
</event>
<event>
 7    1  0.6988825E-006  0.5474382E+02  0.7561462E-02  0.1421314E+00
          1   -1    0    0  501    0  0.00000000000E+00  0.00000000000E+00  0.16515661254E+03  0.16515661254E+03  0.00000000000E+00 0. -1.
         -1   -1    0    0    0  501 -0.00000000000E+00 -0.00000000000E+00 -0.73651382878E+02  0.73651382878E+02  0.00000000000E+00 0.  1.
         23    2    1    2    0    0 -0.16925885947E+01 -0.20957861252E+02  0.10035781645E+02  0.88048671080E+02  0.84910274769E+02 0.  0.
          5    1    1    2  502    0  0.33875414734E+02  0.16065904307E+02  0.10421196695E+03  0.11082988523E+03  0.41800000000E+01 0.  1.
         -5    1    1    2    0  502 -0.32182826139E+02  0.48919569455E+01 -0.22742518925E+02  0.39929439116E+02  0.41800000000E+01 0.  1.
        -11    1    3    3    0    0  0.11070873631E+02  0.32833109617E+01 -0.34155294434E+02  0.36054521377E+02  0.00000000000E+00 0.  1.
         11    1    3    3    0    0 -0.12763462226E+02 -0.24241172214E+02  0.44191076079E+02  0.51994149703E+02  0.00000000000E+00 0. -1.
</event>
<event>
 7    1  0.6988825E-006  0.1147366E+03  0.7561462E-02  0.1252042E+00
         -3   -1    0    0    0  501 -0.00000000000E+00  0.00000000000E+00  0.57730955604E+03  0.57730955604E+03  0.00000000000E+00 0.  1.
          3   -1    0    0  501    0  0.00000000000E+00 -0.00000000000E+00 -0.33982798722E+02  0.33982798722E+02  0.00000000000E+00 0. -1.
         23    2    1    2    0    0 -0.23769424965E+02  0.53792801915E+02  0.40131670805E+03  0.41311846448E+03  0.78441790081E+02 0.  0.
          5    1    1    2  502    0  0.66083770718E+02 -0.64379101355E+02  0.11149631987E+03  0.14477788225E+03  0.41800000000E+01 0. -1.
         -5    1    1    2    0  502 -0.42314345753E+02  0.10586299440E+02  0.30513729396E+02  0.53396008034E+02  0.41800000000E+01 0. -1.
        -11    1    3    3    0    0  0.14537576464E+02  0.53029964358E+02  0.17061519799E+03  0.17925697765E+03  0.00000000000E+00 0.  1.
         11    1    3    3    0    0 -0.38307001429E+02  0.76283755721E+00  0.23070151006E+03  0.23386148683E+03  0.00000000000E+00 0. -1.
</event>
<event>
 7    1  0.6988825E-006  0.1461264E+03  0.7561462E-02  0.1205315E+00
         -3   -1    0    0    0  501 -0.00000000000E+00  0.00000000000E+00  0.34943508457E+03  0.34943508457E+03  0.00000000000E+00 0.  1.
          3   -1    0    0  501    0  0.00000000000E+00 -0.00000000000E+00 -0.73436991720E+02  0.73436991720E+02  0.00000000000E+00 0. -1.
         23    2    1    2    0    0  0.10688653609E+03 -0.11850237405E+02  0.18968493942E+03  0.23669334989E+03  0.92077173685E+02 0.  0.
          5    1    1    2  502    0 -0.29836590645E+02 -0.55065000251E+02  0.35254131077E+02  0.71990989380E+02  0.41800000000E+01 0. -1.
         -5    1    1    2    0  502 -0.77049945444E+02  0.66915237656E+02  0.51059022358E+02  0.11418773703E+03  0.41800000000E+01 0. -1.
        -11    1    3    3    0    0  0.72283137084E+02 -0.40115064268E+02  0.16754267128E+03  0.18682777360E+03  0.00000000000E+00 0.  1.
         11    1    3    3    0    0  0.34603399004E+02  0.28264826863E+02  0.22142268142E+02  0.49865576289E+02  0.00000000000E+00 0. -1.
</event>
<event>
 7    1  0.6988825E-006  0.9724327E+02  0.7561462E-02  0.1286202E+00
         -1   -1    0    0    0  501 -0.00000000000E+00  0.00000000000E+00  0.16516954417E+02  0.16516954417E+02  0.00000000000E+00 0. -1.
          1   -1    0    0  501    0  0.00000000000E+00 -0.00000000000E+00 -0.10635677674E+04  0.10635677674E+04  0.00000000000E+00 0.  1.
         23    2    1    2    0    0 -0.57683123101E+02  0.35690687294E+02 -0.32193786365E+03  0.34114169799E+03  0.90180387026E+02 0.  0.
          5    1    1    2  502    0  0.72718184368E+02 -0.21688084256E+02 -0.20873805055E+03  0.22214264220E+03  0.41800000000E+01 0. -1.
         -5    1    1    2    0  502 -0.15035061267E+02 -0.14002603038E+02 -0.51637489883E+03  0.51680038167E+03  0.41800000000E+01 0. -1.
        -11    1    3    3    0    0 -0.69106391015E+02  0.10549842281E+02 -0.29266886865E+03  0.30090207565E+03  0.00000000000E+00 0.  1.
         11    1    3    3    0    0  0.11423267914E+02  0.25140845013E+02 -0.29268994997E+02  0.40239622338E+02  0.00000000000E+00 0. -1.
</event>
<event>
 7    1  0.6988825E-006  0.1435507E+03  0.7561462E-02  0.1208630E+00
         -1   -1    0    0    0  501 -0.00000000000E+00  0.00000000000E+00  0.20190096700E+03  0.20190096700E+03  0.00000000000E+00 0.  1.
          1   -1    0    0  501    0  0.00000000000E+00 -0.00000000000E+00 -0.15342184887E+03  0.15342184887E+03  0.00000000000E+00 0. -1.
         23    2    1    2    0    0  0.13226482594E+02 -0.12002369754E+03  0.88780733436E+02  0.17685060102E+03  0.93880182357E+02 0.  0.
          5    1    1    2  502    0  0.22726986590E+02  0.81751829816E+02 -0.76689515526E+02  0.11444925421E+03  0.41800000000E+01 0.  1.
         -5    1    1    2    0  502 -0.35953469184E+02  0.38271867726E+02  0.36387900218E+02  0.64022960630E+02  0.41800000000E+01 0.  1.
        -11    1    3    3    0    0 -0.33635183238E+02 -0.20305819751E+02  0.40907753931E+02  0.56719451680E+02  0.00000000000E+00 0. -1.
         11    1    3    3    0    0  0.46861665832E+02 -0.99717877791E+02  0.47872979505E+02  0.12013114934E+03  0.00000000000E+00 0.  1.
</event>
<event>
 7    1  0.6988825E-006  0.1370818E+03  0.7561462E-02  0.1217310E+00
          1   -1    0    0  501    0  0.00000000000E+00  0.00000000000E+00  0.32929278294E+03  0.32929278294E+03  0.00000000000E+00 0. -1.
         -1   -1    0    0    0  501 -0.00000000000E+00 -0.00000000000E+00 -0.58935188085E+02  0.58935188085E+02  0.00000000000E+00 0.  1.
         23    2    1    2    0    0  0.60410289402E+02  0.67042440872E+02  0.16398931411E+03  0.20999806932E+03  0.95197699724E+02 0.  0.
          5    1    1    2  502    0 -0.60123946287E+02 -0.96208431098E+02  0.83337136400E+02  0.14083146607E+03  0.41800000000E+01 0. -1.
         -5    1    1    2    0  502 -0.28634311497E+00  0.29165990226E+02  0.23031144351E+02  0.37398435640E+02  0.41800000000E+01 0.  1.
        -11    1    3    3    0    0  0.80803824384E+02  0.74054758344E+02  0.13647046653E+03  0.17503586347E+03  0.00000000000E+00 0.  1.
         11    1    3    3    0    0 -0.20393534981E+02 -0.70123174718E+01  0.27518847580E+02  0.34962205844E+02  0.00000000000E+00 0. -1.
</event>
<event>
 7    1  0.6988825E-006  0.7662852E+02  0.7561462E-02  0.1338901E+00
         -1   -1    0    0    0  501 -0.00000000000E+00  0.00000000000E+00  0.40585139785E+03  0.40585139785E+03  0.00000000000E+00 0.  1.
          1   -1    0    0  501    0  0.00000000000E+00 -0.00000000000E+00 -0.36229081130E+02  0.36229081130E+02  0.00000000000E+00 0. -1.
         23    2    1    2    0    0  0.25053591700E+02 -0.21781027246E+02  0.18493866688E+03  0.21657381679E+03  0.10770242340E+03 0.  0.
          5    1    1    2  502    0 -0.39973257918E+02 -0.13567145591E+02  0.61666241355E+01  0.42865235813E+02  0.41800000000E+01 0. -1.
         -5    1    1    2    0  502  0.14919666218E+02  0.35348172837E+02  0.17851702571E+03  0.18264142638E+03  0.41800000000E+01 0. -1.
        -11    1    3    3    0    0  0.38130998223E+02  0.86684565600E+01  0.12608628767E+02  0.41086405100E+02  0.00000000000E+00 0. -1.
         11    1    3    3    0    0 -0.13077406523E+02 -0.30449483806E+02  0.17233003812E+03  0.17548741169E+03  0.00000000000E+00 0.  1.
</event>
<event>
 7    1  0.6988825E-006  0.1503112E+03  0.7561462E-02  0.1200091E+00
          2   -1    0    0  501    0  0.00000000000E+00  0.00000000000E+00  0.82834340418E+03  0.82834340418E+03  0.00000000000E+00 0. -1.
         -2   -1    0    0    0  501 -0.00000000000E+00 -0.00000000000E+00 -0.50318614192E+02  0.50318614192E+02  0.00000000000E+00 0.  1.
         23    2    1    2    0    0  0.10571320132E+03 -0.76959920506E+02  0.11845175867E+03  0.19471606387E+03  0.82373637169E+02 0.  0.
          5    1    1    2  502    0 -0.38616685681E+02 -0.25878455980E+02  0.91246046203E+02  0.10249027390E+03  0.41800000000E+01 0. -1.
         -5    1    1    2    0  502 -0.67096515637E+02  0.10283837649E+03  0.56832698511E+03  0.58145568060E+03  0.41800000000E+01 0. -1.
        -11    1    3    3    0    0  0.95964236267E+02 -0.66292307838E+02  0.13112683550E+03  0.17549373695E+03  0.00000000000E+00 0. -1.
         11    1    3    3    0    0  0.97489650508E+01 -0.10667612668E+02 -0.12675076830E+02  0.19222326921E+02  0.00000000000E+00 0.  1.
</event>
<event>
 7    1  0.6988825E-006  0.1034524E+03  0.7561462E-02  0.1273199E+00
          1   -1    0    0  501    0  0.00000000000E+00  0.00000000000E+00  0.31453257086E+03  0.31453257086E+03  0.00000000000E+00 0. -1.
         -1   -1    0    0    0  501 -0.00000000000E+00 -0.00000000000E+00 -0.52521648160E+02  0.52521648160E+02  0.00000000000E+00 0.  1.
         23    2    1    2    0    0 -0.25347942323E+02 -0.21934039111E+02  0.29510093564E+02  0.10089426390E+03  0.90472021165E+02 0.  0.
          5    1    1    2  502    0 -0.31551204074E+02 -0.22489183454E+02  0.15641169744E+03  0.16119346559E+03  0.41800000000E+01 0. -1.
         -5    1    1    2    0  502  0.56899146397E+02  0.44423222564E+02  0.76089131694E+02  0.10496648954E+03  0.41800000000E+01 0. -1.
        -11    1    3    3    0    0  0.28689039099E+02 -0.29397582279E+02  0.19350904642E+02  0.45406346679E+02  0.00000000000E+00 0.  1.
         11    1    3    3    0    0 -0.54036981422E+02  0.74635431680E+01  0.10159188922E+02  0.55487917220E+02  0.00000000000E+00 0. -1.
</event>
<event>
 7    1  0.6988825E-006  0.1388654E+03  0.7561462E-02  0.1214864E+00
          2   -1    0    0  501    0  0.00000000000E+00  0.00000000000E+00  0.30720293856E+03  0.30720293856E+03  0.00000000000E+00 0. -1.
         -2   -1    0    0    0  501 -0.00000000000E+00 -0.00000000000E+00 -0.10125553334E+03  0.10125553334E+03  0.00000000000E+00 0.  1.
         23    2    1    2    0    0 -0.99056228283E+02 -0.28817332551E+02 -0.20335874022E+01  0.14474466751E+03  0.10151013879E+03 0.  0.
          5    1    1    2  502    0  0.10615554583E+03 -0.14987842065E+02  0.18426382058E+03  0.21322350549E+03  0.41800000000E+01 0.  1.
         -5    1    1    2    0  502 -0.70993175460E+01  0.43805174616E+02  0.23717172044E+02  0.50490298895E+02  0.41800000000E+01 0.  1.
        -11    1    3    3    0    0 -0.34364144418E+02 -0.47412454066E+02 -0.36623168349E+02  0.69065850332E+02  0.00000000000E+00 0.  1.
         11    1    3    3    0    0 -0.64692083865E+02  0.18595121515E+02  0.34589580946E+02  0.75678817175E+02  0.00000000000E+00 0. -1.
</event>
<event>
 7    1  0.6988825E-006  0.2045109E+03  0.7561462E-02  0.1145988E+00
          2   -1    0    0  501    0  0.00000000000E+00  0.00000000000E+00  0.11682960536E+04  0.11682960536E+04  0.00000000000E+00 0. -1.
         -2   -1    0    0    0  501 -0.00000000000E+00 -0.00000000000E+00 -0.48879093689E+02  0.48879093689E+02  0.00000000000E+00 0.  1.
         23    2    1    2    0    0 -0.12597657750E+03  0.13728984139E+03  0.27329162357E+03  0.34179316270E+03  0.86114202827E+02 0.  0.
          5    1    1    2  502    0  0.48768326538E+02  0.65301304210E+01  0.99133016922E+02  0.11075116126E+03  0.41800000000E+01 0. -1.
         -5    1    1    2    0  502  0.77208250964E+02 -0.14381997181E+03  0.74699231939E+03  0.76463082330E+03  0.41800000000E+01 0. -1.
        -11    1    3    3    0    0 -0.91330850001E+02  0.53892073207E+02  0.19633241844E+03  0.22314143104E+03  0.00000000000E+00 0. -1.
         11    1    3    3    0    0 -0.34645727501E+02  0.83397768180E+02  0.76959205124E+02  0.11865173166E+03  0.00000000000E+00 0.  1.
</event>
<event>
 7    1  0.6988825E-006  0.8008533E+02  0.7561462E-02  0.1328809E+00
          2   -1    0    0  501    0  0.00000000000E+00  0.00000000000E+00  0.18773047303E+03  0.18773047303E+03  0.00000000000E+00 0. -1.
         -2   -1    0    0    0  501 -0.00000000000E+00 -0.00000000000E+00 -0.64802294580E+02  0.64802294580E+02  0.00000000000E+00 0.  1.
         23    2    1    2    0    0 -0.19702824940E+02  0.63633513227E+01  0.38440273575E+02  0.10016776639E+03  0.90151168829E+02 0.  0.
          5    1    1    2  502    0 -0.33729616129E+02  0.90201425518E+01  0.89715489891E+02  0.96360736310E+02  0.41800000000E+01 0. -1.
         -5    1    1    2    0  502  0.53432441068E+02 -0.15383493875E+02 -0.52275850171E+01  0.56004264904E+02  0.41800000000E+01 0. -1.
        -11    1    3    3    0    0 -0.16422752944E+02 -0.29216574012E+02  0.52071256515E+02  0.61925202998E+02  0.00000000000E+00 0. -1.
         11    1    3    3    0    0 -0.32800719955E+01  0.35579925335E+02 -0.13630982941E+02  0.38242563396E+02  0.00000000000E+00 0.  1.
</event>
<event>
 7    1  0.6988825E-006  0.1027549E+03  0.7561462E-02  0.1274607E+00
          1   -1    0    0  501    0  0.00000000000E+00  0.00000000000E+00  0.67940252937E+02  0.67940252937E+02  0.00000000000E+00 0. -1.
         -1   -1    0    0    0  501 -0.00000000000E+00 -0.00000000000E+00 -0.35050889178E+03  0.35050889178E+03  0.00000000000E+00 0.  1.
         23    2    1    2    0    0  0.43763168051E+02 -0.52040358011E+02 -0.24776461636E+03  0.27189407585E+03  0.88970049017E+02 0.  0.
          5    1    1    2  502    0  0.15485808788E+01 -0.30742013170E+02 -0.41517654536E+02  0.51852266244E+02  0.41800000000E+01 0. -1.
         -5    1    1    2    0  502 -0.45311748930E+02  0.82782371181E+02  0.67136320520E+01  0.94702802624E+02  0.41800000000E+01 0. -1.
        -11    1    3    3    0    0  0.40599454087E+02 -0.15740177962E+02 -0.22445212835E+03  0.22863688853E+03  0.00000000000E+00 0.  1.
         11    1    3    3    0    0  0.31637139645E+01 -0.36300180049E+02 -0.23312488005E+02  0.43257187318E+02  0.00000000000E+00 0. -1.
</event>
<event>
 7    1  0.6988825E-006  0.2836552E+03  0.7561462E-02  0.1093709E+00
         -2   -1    0    0    0  501 -0.00000000000E+00  0.00000000000E+00  0.94808837450E+02  0.94808837450E+02  0.00000000000E+00 0.  1.
          2   -1    0    0  501    0  0.00000000000E+00 -0.00000000000E+00 -0.91351329134E+03  0.91351329134E+03  0.00000000000E+00 0. -1.
         23    2    1    2    0    0 -0.13785997116E+03 -0.80273099771E+02 -0.20608621159E+03  0.27834106199E+03  0.97739848491E+02 0.  0.
          5    1    1    2  502    0 -0.11587825768E+03  0.53573866296E+02 -0.30259251401E+03  0.32844730428E+03  0.41800000000E+01 0. -1.
         -5    1    1    2    0  502  0.25373822885E+03  0.26699233475E+02 -0.31002572828E+03  0.40153376252E+03  0.41800000000E+01 0.  1.
        -11    1    3    3    0    0 -0.16717438374E+02  0.20764960371E+02 -0.48635595182E+02  0.55462396664E+02  0.00000000000E+00 0.  1.
         11    1    3    3    0    0 -0.12114253279E+03 -0.10103806014E+03 -0.15745061641E+03  0.22287866532E+03  0.00000000000E+00 0. -1.
</event>
<event>
 7    1  0.6988825E-006  0.9521609E+02  0.7561462E-02  0.1290690E+00
          2   -1    0    0  501    0  0.00000000000E+00  0.00000000000E+00  0.38396937469E+03  0.38396937469E+03  0.00000000000E+00 0. -1.
         -2   -1    0    0    0  501 -0.00000000000E+00 -0.00000000000E+00 -0.50030177610E+02  0.50030177610E+02  0.00000000000E+00 0.  1.
         23    2    1    2    0    0  0.77804816771E+02  0.97337017606E+01  0.96298467887E+02  0.15425407344E+03  0.91501856768E+02 0.  0.
          5    1    1    2  502    0 -0.53767665569E+02 -0.23506129762E+02  0.22812721374E+02  0.63098277739E+02  0.41800000000E+01 0. -1.
         -5    1    1    2    0  502 -0.24037151202E+02  0.13772428002E+02  0.21482800782E+03  0.21664720112E+03  0.41800000000E+01 0. -1.
        -11    1    3    3    0    0  0.65974509538E+02 -0.22137379477E+02  0.22724941542E+02  0.73206027395E+02  0.00000000000E+00 0.  1.
         11    1    3    3    0    0  0.11830307233E+02  0.31871081238E+02  0.73573526345E+02  0.81048046043E+02  0.00000000000E+00 0. -1.
</event>
<event>
 7    1  0.6988825E-006  0.8215988E+02  0.7561462E-02  0.1323031E+00
         -2   -1    0    0    0  501 -0.00000000000E+00  0.00000000000E+00  0.45329260702E+02  0.45329260702E+02  0.00000000000E+00 0.  1.
          2   -1    0    0  501    0  0.00000000000E+00 -0.00000000000E+00 -0.31736393283E+03  0.31736393283E+03  0.00000000000E+00 0. -1.
         23    2    1    2    0    0  0.21626262552E+02  0.40873227081E+02 -0.11380801274E+03  0.15467151426E+03  0.93982432580E+02 0.  0.
          5    1    1    2  502    0  0.23408162428E+02 -0.15305089053E+02 -0.15324087891E+03  0.15582819767E+03  0.41800000000E+01 0.  1.
         -5    1    1    2    0  502 -0.45034424980E+02 -0.25568138028E+02 -0.49857804735E+01  0.52193481608E+02  0.41800000000E+01 0.  1.
        -11    1    3    3    0    0 -0.22691480980E+02 -0.15402377302E+01  0.27972875833E+01  0.22915070568E+02  0.00000000000E+00 0.  1.
         11    1    3    3    0    0  0.44317743531E+02  0.42413464811E+02 -0.11660530033E+03  0.13175644369E+03  0.00000000000E+00 0. -1.
</event>
<event>
 7    1  0.6988825E-006  0.9536373E+02  0.7561462E-02  0.1290359E+00
          2   -1    0    0  501    0  0.00000000000E+00  0.00000000000E+00  0.57347010090E+03  0.57347010090E+03  0.00000000000E+00 0. -1.
         -2   -1    0    0    0  501 -0.00000000000E+00 -0.00000000000E+00 -0.32315029774E+02  0.32315029774E+02  0.00000000000E+00 0.  1.
         23    2    1    2    0    0 -0.42972951639E+02  0.11481700529E+02  0.88661850718E+02  0.13421749256E+03  0.90415195169E+02 0.  0.
          5    1    1    2  502    0  0.14288379282E+02 -0.52011327830E+02  0.85303494884E+02  0.10101234897E+03  0.41800000000E+01 0. -1.
         -5    1    1    2    0  502  0.28684572357E+02  0.40529627301E+02  0.36718972552E+03  0.37055528914E+03  0.41800000000E+01 0. -1.
        -11    1    3    3    0    0 -0.23176144355E+02 -0.31715428559E+02  0.72375731782E+01  0.39942265101E+02  0.00000000000E+00 0.  1.
         11    1    3    3    0    0 -0.19796807284E+02  0.43197129088E+02  0.81424277540E+02  0.94275227462E+02  0.00000000000E+00 0. -1.
</event>
<event>
 7    1  0.6988825E-006  0.8785750E+02  0.7561462E-02  0.1308125E+00
          1   -1    0    0  501    0  0.00000000000E+00  0.00000000000E+00  0.37264596217E+03  0.37264596217E+03  0.00000000000E+00 0. -1.
         -1   -1    0    0    0  501 -0.00000000000E+00 -0.00000000000E+00 -0.33200497870E+02  0.33200497870E+02  0.00000000000E+00 0.  1.
         23    2    1    2    0    0 -0.10206037598E+02  0.22378579474E+02  0.98497595523E+02  0.13324775876E+03  0.86303098831E+02 0.  0.
          5    1    1    2  502    0  0.45876659609E+02 -0.59341033277E+02  0.15788835245E+03  0.17484916462E+03  0.41800000000E+01 0.  1.
         -5    1    1    2    0  502 -0.35670622011E+02  0.36962453803E+02  0.83059516321E+02  0.97749536660E+02  0.41800000000E+01 0.  1.
        -11    1    3    3    0    0 -0.26379750582E+02  0.19057118764E+02 -0.83328044364E+00  0.32553945577E+02  0.00000000000E+00 0.  1.
         11    1    3    3    0    0  0.16173712983E+02  0.33214607092E+01  0.99330875966E+02  0.10069381318E+03  0.00000000000E+00 0. -1.
</event>
<event>
 7    1  0.6988825E-006  0.8951003E+02  0.7561462E-02  0.1304043E+00
          2   -1    0    0  501    0  0.00000000000E+00  0.00000000000E+00  0.38081739021E+03  0.38081739021E+03  0.00000000000E+00 0. -1.
         -2   -1    0    0    0  501 -0.00000000000E+00 -0.00000000000E+00 -0.36782531227E+02  0.36782531227E+02  0.00000000000E+00 0.  1.
         23    2    1    2    0    0  0.12723113441E+02 -0.11614236211E+02  0.73868110350E+02  0.11938125531E+03  0.92187950915E+02 0.  0.
          5    1    1    2  502    0 -0.67535849233E+02  0.93606956067E+01  0.11714272016E+03  0.13560458267E+03  0.41800000000E+01 0. -1.
         -5    1    1    2    0  502  0.54812735792E+02  0.22535406040E+01  0.15302402847E+03  0.16261408346E+03  0.41800000000E+01 0. -1.
        -11    1    3    3    0    0  0.51826218447E+01  0.21302127943E+02 -0.13477664588E+02  0.25734950298E+02  0.00000000000E+00 0.  1.
         11    1    3    3    0    0  0.75404915961E+01 -0.32916364153E+02  0.87345774938E+02  0.93646305011E+02  0.00000000000E+00 0. -1.
</event>
<event>
 7    1  0.6988825E-006  0.7840255E+02  0.7561462E-02  0.1333647E+00
         -3   -1    0    0    0  501 -0.00000000000E+00  0.00000000000E+00  0.14683054301E+03  0.14683054301E+03  0.00000000000E+00 0.  1.
          3   -1    0    0  501    0  0.00000000000E+00 -0.00000000000E+00 -0.96609489755E+02  0.96609489755E+02  0.00000000000E+00 0. -1.
         23    2    1    2    0    0 -0.36842932753E+00  0.43630968721E+02  0.43770364336E+02  0.11080669135E+03  0.91969999898E+02 0.  0.
          5    1    1    2  502    0  0.12443005417E+02  0.32113544412E+02  0.36309811639E+02  0.50219348262E+02  0.41800000000E+01 0.  1.
         -5    1    1    2    0  502 -0.12074576090E+02 -0.75744513134E+02 -0.29859122724E+02  0.82413993153E+02  0.41800000000E+01 0.  1.
        -11    1    3    3    0    0  0.57999314603E+01  0.17015389081E+02 -0.28414999188E+02  0.33624021909E+02  0.00000000000E+00 0. -1.
         11    1    3    3    0    0 -0.61683607878E+01  0.26615579641E+02  0.72185363524E+02  0.77182669437E+02  0.00000000000E+00 0.  1.
</event>
<event>
 7    1  0.6988825E-006  0.1231104E+03  0.7561462E-02  0.1238052E+00
          1   -1    0    0  501    0  0.00000000000E+00  0.00000000000E+00  0.40430565447E+03  0.40430565447E+03  0.00000000000E+00 0. -1.
         -1   -1    0    0    0  501 -0.00000000000E+00 -0.00000000000E+00 -0.47720119355E+02  0.47720119355E+02  0.00000000000E+00 0.  1.
         23    2    1    2    0    0  0.68592955195E+02  0.21976675670E+02  0.62088524877E+02  0.12405644925E+03  0.79668374556E+02 0.  0.
          5    1    1    2  502    0 -0.45444719069E+02  0.50547623451E+02  0.13897554677E+03  0.15476420687E+03  0.41800000000E+01 0.  1.
         -5    1    1    2    0  502 -0.23148236126E+02 -0.72524299121E+02  0.15552146347E+03  0.17320511770E+03  0.41800000000E+01 0.  1.
        -11    1    3    3    0    0  0.83553649435E+02  0.23612786703E+02  0.65332964340E+02  0.10866081290E+03  0.00000000000E+00 0. -1.
         11    1    3    3    0    0 -0.14960694240E+02 -0.16361110336E+01 -0.32444394629E+01  0.15395636359E+02  0.00000000000E+00 0.  1.
</event>
<event>
 7    1  0.6988825E-006  0.1462011E+03  0.7561462E-02  0.1205220E+00
         -2   -1    0    0    0  501 -0.00000000000E+00  0.00000000000E+00  0.15439720797E+03  0.15439720797E+03  0.00000000000E+00 0.  1.
          2   -1    0    0  501    0  0.00000000000E+00 -0.00000000000E+00 -0.16089971841E+03  0.16089971841E+03  0.00000000000E+00 0. -1.
         23    2    1    2    0    0 -0.16885571607E+02 -0.11319545828E+03 -0.12214880996E+02  0.14565903164E+03  0.89269344556E+02 0.  0.
          5    1    1    2  502    0  0.37891720760E+02 -0.72868217206E-01  0.33846448809E+02  0.50978841777E+02  0.41800000000E+01 0.  1.
         -5    1    1    2    0  502 -0.21006149153E+02  0.11326832650E+03 -0.28134078247E+02  0.11865905296E+03  0.41800000000E+01 0.  1.
        -11    1    3    3    0    0 -0.47769886971E+02 -0.53012746118E+02 -0.27210323967E+02  0.76372214074E+02  0.00000000000E+00 0.  1.
         11    1    3    3    0    0  0.30884315365E+02 -0.60182712166E+02  0.14995442971E+02  0.69286817571E+02  0.00000000000E+00 0. -1.
</event>
<event>
 7    1  0.6988825E-006  0.1384317E+03  0.7561462E-02  0.1215455E+00
          1   -1    0    0  501    0  0.00000000000E+00  0.00000000000E+00  0.43312077039E+03  0.43312077039E+03  0.00000000000E+00 0. -1.
         -1   -1    0    0    0  501 -0.00000000000E+00 -0.00000000000E+00 -0.22726535268E+03  0.22726535268E+03  0.00000000000E+00 0.  1.
         23    2    1    2    0    0  0.61382440264E+00 -0.10815428511E+02 -0.18812775011E+03  0.21247968885E+03  0.98174424055E+02 0.  0.
          5    1    1    2  502    0 -0.31625118087E+02  0.88967088580E+02  0.32682532117E+03  0.34021692184E+03  0.41800000000E+01 0. -1.
         -5    1    1    2    0  502  0.31011293684E+02 -0.78151660069E+02  0.67157846653E+02  0.10768951237E+03  0.41800000000E+01 0.  1.
        -11    1    3    3    0    0  0.63744995713E+01  0.43289339611E+02 -0.72320794136E+02  0.84527501046E+02  0.00000000000E+00 0. -1.
         11    1    3    3    0    0 -0.57606751686E+01 -0.54104768122E+02 -0.11580695598E+03  0.12795218781E+03  0.00000000000E+00 0.  1.
</event>
<event>
 7    1  0.6988825E-006  0.6073111E+02  0.7561462E-02  0.1394789E+00
         -2   -1    0    0    0  501 -0.00000000000E+00  0.00000000000E+00  0.57754455033E+03  0.57754455033E+03  0.00000000000E+00 0.  1.
          2   -1    0    0  501    0  0.00000000000E+00 -0.00000000000E+00 -0.23162394038E+02  0.23162394038E+02  0.00000000000E+00 0. -1.
         23    2    1    2    0    0  0.26142330358E+02 -0.29591756721E+02  0.26478429029E+03  0.28278838659E+03  0.91101359478E+02 0.  0.
          5    1    1    2  502    0  0.14268971451E+02  0.15990036750E+02 -0.31424407641E+01  0.22059740603E+02  0.41800000000E+01 0. -1.
         -5    1    1    2    0  502 -0.40411301809E+02  0.13601719971E+02  0.29274030676E+03  0.29585881717E+03  0.41800000000E+01 0. -1.
        -11    1    3    3    0    0  0.59374018746E+01  0.10401455761E+02 -0.21081012440E+01  0.12160884582E+02  0.00000000000E+00 0. -1.
         11    1    3    3    0    0  0.20204928483E+02 -0.39993212482E+02  0.26689239154E+03  0.27062750200E+03  0.00000000000E+00 0.  1.
</event>
<event>
 7    1  0.6988825E-006  0.1639451E+03  0.7561462E-02  0.1184313E+00
         -2   -1    0    0    0  501 -0.00000000000E+00  0.00000000000E+00  0.51216615691E+03  0.51216615691E+03  0.00000000000E+00 0. -1.
          2   -1    0    0  501    0  0.00000000000E+00 -0.00000000000E+00 -0.79811012197E+02  0.79811012197E+02  0.00000000000E+00 0.  1.
         23    2    1    2    0    0  0.39706763670E+02 -0.15104401826E+03  0.30665607811E+03  0.35567379763E+03  0.89860878833E+02 0.  0.
          5    1    1    2  502    0 -0.49806835407E+02  0.12078568159E+03  0.28325257124E+02  0.13375236193E+03  0.41800000000E+01 0. -1.
         -5    1    1    2    0  502  0.10100071737E+02  0.30258336669E+02  0.97373809471E+02  0.10255100954E+03  0.41800000000E+01 0. -1.
        -11    1    3    3    0    0  0.52771198392E+02 -0.11159656484E+03  0.28078809299E+03  0.30672552197E+03  0.00000000000E+00 0. -1.
         11    1    3    3    0    0 -0.13064434722E+02 -0.39447453422E+02  0.25867985130E+02  0.48948275666E+02  0.00000000000E+00 0.  1.
</event>
<event>
 6    1  0.6988825E-006  0.4647313E+02  0.7561462E-02  0.1465349E+00
          3   -1    0    0  501    0  0.00000000000E+00  0.00000000000E+00  0.28486289705E+02  0.28486289705E+02  0.00000000000E+00 0. -1.
         -3   -1    0    0    0  501 -0.00000000000E+00 -0.00000000000E+00 -0.28493144439E+03  0.28493144439E+03  0.00000000000E+00 0.  1.
          5    1    1    2  502    0 -0.10138756262E+02 -0.42627196101E+01  0.17923592206E+02  0.21440445764E+02  0.41800000000E+01 0. -1.
         -5    1    1    2    0  502 -0.31082600309E+02 -0.31361894727E+01 -0.17242426403E+03  0.17528138222E+03  0.41800000000E+01 0.  1.
        -11    1    1    2    0    0  0.32858894176E+02  0.16944831197E+02 -0.44440740483E+02  0.57808421925E+02  0.00000000000E+00 0. -1.
         11    1    1    2    0    0  0.83624623944E+01 -0.95459221143E+01 -0.57503742380E+02  0.58887484189E+02  0.00000000000E+00 0.  1.
</event>
<event>
 7    1  0.6988825E-006  0.1110202E+03  0.7561462E-02  0.1258692E+00
          1   -1    0    0  501    0  0.00000000000E+00  0.00000000000E+00  0.14092035343E+04  0.14092035343E+04  0.00000000000E+00 0. -1.
         -1   -1    0    0    0  501 -0.00000000000E+00 -0.00000000000E+00 -0.18961034388E+02  0.18961034388E+02  0.00000000000E+00 0.  1.
         23    2    1    2    0    0  0.49793671605E+02 -0.18921280025E+02  0.16310368709E+03  0.19351733615E+03  0.89491463724E+02 0.  0.
          5    1    1    2  502    0 -0.91478882182E+02  0.12690189287E+02  0.76318641702E+03  0.76876550801E+03  0.41800000000E+01 0. -1.
         -5    1    1    2    0  502  0.41685210576E+02  0.62310907378E+01  0.46395239576E+03  0.46588172448E+03  0.41800000000E+01 0. -1.
        -11    1    3    3    0    0  0.61212457843E+02  0.42953914632E+01  0.15451907487E+03  0.16625751075E+03  0.00000000000E+00 0.  1.
         11    1    3    3    0    0 -0.11418786237E+02 -0.23216671488E+02  0.85846122272E+01  0.27259825407E+02  0.00000000000E+00 0. -1.
</event>
<event>
 7    1  0.6988825E-006  0.1039942E+03  0.7561462E-02  0.1272114E+00
         -1   -1    0    0    0  501 -0.00000000000E+00  0.00000000000E+00  0.75216692122E+02  0.75216692122E+02  0.00000000000E+00 0.  1.
          1   -1    0    0  501    0  0.00000000000E+00 -0.00000000000E+00 -0.25617520018E+03  0.25617520018E+03  0.00000000000E+00 0. -1.
         23    2    1    2    0    0 -0.30447264283E+02  0.79405595892E+02 -0.52407151859E+02  0.13288478717E+03  0.87633170278E+02 0.  0.
          5    1    1    2  502    0  0.12907345997E+02 -0.96100580296E+02 -0.37249706382E+02  0.10395640500E+03  0.41800000000E+01 0. -1.
         -5    1    1    2    0  502  0.17539918286E+02  0.16694984405E+02 -0.91301649819E+02  0.94550700143E+02  0.41800000000E+01 0. -1.
        -11    1    3    3    0    0 -0.64405791320E+01  0.37649761442E+02  0.22126680520E+02  0.44142673085E+02  0.00000000000E+00 0.  1.
         11    1    3    3    0    0 -0.24006685151E+02  0.41755834450E+02 -0.74533832380E+02  0.88742114082E+02  0.00000000000E+00 0. -1.
</event>
<event>
 7    1  0.6988825E-006  0.1580021E+03  0.7561462E-02  0.1190971E+00
         -1   -1    0    0    0  501 -0.00000000000E+00  0.00000000000E+00  0.32354798304E+02  0.32354798304E+02  0.00000000000E+00 0.  1.
          1   -1    0    0  501    0  0.00000000000E+00 -0.00000000000E+00 -0.12697766735E+04  0.12697766735E+04  0.00000000000E+00 0. -1.
         23    2    1    2    0    0  0.14308152242E+03  0.33778075745E+01 -0.28535333409E+03  0.33128739898E+03  0.88549894456E+02 0.  0.
          5    1    1    2  502    0  0.63375046255E+01  0.46874462948E+01 -0.21167331603E+01  0.91700096465E+01  0.41800000000E+01 0.  1.
         -5    1    1    2    0  502 -0.14941902704E+03 -0.80652538692E+01 -0.94995180794E+03  0.96167406316E+03  0.41800000000E+01 0.  1.
        -11    1    3    3    0    0  0.82543120041E+01  0.19906807126E+02 -0.89994980624E+01  0.23353920484E+02  0.00000000000E+00 0.  1.
         11    1    3    3    0    0  0.13482721041E+03 -0.16528999551E+02 -0.27635383602E+03  0.30793347850E+03  0.00000000000E+00 0. -1.
</event>
<event>
 7    1  0.6988825E-006  0.2228644E+03  0.7561462E-02  0.1131765E+00
         -2   -1    0    0    0  501 -0.00000000000E+00  0.00000000000E+00  0.35886290536E+03  0.35886290536E+03  0.00000000000E+00 0. -1.
          2   -1    0    0  501    0  0.00000000000E+00 -0.00000000000E+00 -0.47014468690E+03  0.47014468690E+03  0.00000000000E+00 0.  1.
         23    2    1    2    0    0  0.19260611918E+03  0.94475166317E+02  0.28075621380E+03  0.36499183290E+03  0.91500340431E+02 0.  0.
          5    1    1    2  502    0 -0.19047192575E+02 -0.25194742186E+02 -0.17368239629E+03  0.17658034364E+03  0.41800000000E+01 0. -1.
         -5    1    1    2    0  502 -0.17355892661E+03 -0.69280424130E+02 -0.21835559905E+03  0.28743541572E+03  0.41800000000E+01 0. -1.
        -11    1    3    3    0    0  0.19026867741E+03  0.70580125680E+02  0.27215629152E+03  0.33948898474E+03  0.00000000000E+00 0. -1.
         11    1    3    3    0    0  0.23374417698E+01  0.23895040637E+02  0.85999222802E+01  0.25502848160E+02  0.00000000000E+00 0.  1.
</event>
<event>
 6    1  0.6988825E-006  0.9814522E+02  0.7561462E-02  0.1284245E+00
         -2   -1    0    0    0  501 -0.00000000000E+00  0.00000000000E+00  0.10723005407E+03  0.10723005407E+03  0.00000000000E+00 0. -1.
          2   -1    0    0  501    0  0.00000000000E+00 -0.00000000000E+00 -0.26525651312E+03  0.26525651312E+03  0.00000000000E+00 0.  1.
          5    1    1    2  502    0 -0.41058413729E+02 -0.17986987877E+02 -0.18759853752E+03  0.19292487851E+03  0.41800000000E+01 0. -1.
         -5    1    1    2    0  502  0.26785827320E+02 -0.93409157015E-01 -0.39408241345E+00  0.27113040616E+02  0.41800000000E+01 0.  1.
        -11    1    1    2    0    0 -0.90608125833E+01  0.68240110315E+02  0.58376515974E+02  0.90258676024E+02  0.00000000000E+00 0. -1.
         11    1    1    2    0    0  0.23333398992E+02 -0.50159713281E+02 -0.28410355087E+02  0.62189972030E+02  0.00000000000E+00 0.  1.
</event>
<event>
 7    1  0.7957425E-006  0.1129650E+03  0.7561462E-02  0.1255176E+00
          2   -1    0    0  501    0  0.00000000000E+00  0.00000000000E+00  0.56218779878E+03  0.56218779878E+03  0.00000000000E+00 0.  1.
         -2   -1    0    0    0  501 -0.00000000000E+00 -0.00000000000E+00 -0.40668501302E+02  0.40668501302E+02  0.00000000000E+00 0. -1.
         23    2    1    2    0    0  0.77904568272E+02  0.42815157482E+02  0.95476198780E+02  0.15001846854E+03  0.74078181014E+02 0.  0.
          5    1    1    2  502    0 -0.82862856535E+02  0.93859866588E+01  0.14859619919E+03  0.17044838677E+03  0.41800000000E+01 0.  1.
         -5    1    1    2    0  502  0.49582882626E+01 -0.52201144140E+02  0.27744689951E+03  0.28238944477E+03  0.41800000000E+01 0.  1.
        -11    1    3    3    0    0  0.40598040304E+02  0.14939801273E+02  0.93940650065E+02  0.10342264874E+03  0.00000000000E+00 0.  1.
         11    1    3    3    0    0  0.37306527968E+02  0.27875356209E+02  0.15355487157E+01  0.46595819798E+02  0.00000000000E+00 0. -1.
</event>
<event>
 7    1  0.6988825E-006  0.1998042E+03  0.7561462E-02  0.1149904E+00
          1   -1    0    0  501    0  0.00000000000E+00  0.00000000000E+00  0.80690341388E+03  0.80690341388E+03  0.00000000000E+00 0. -1.
         -1   -1    0    0    0  501 -0.00000000000E+00 -0.00000000000E+00 -0.66124104736E+02  0.66124104736E+02  0.00000000000E+00 0.  1.
         23    2    1    2    0    0 -0.18675666838E+03  0.62675144961E+01  0.16715337666E+03  0.25690161582E+03  0.56043322184E+02 0.  0.
          5    1    1    2  502    0  0.66538193842E+02  0.39178380149E+02  0.34745079102E+03  0.35595196486E+03  0.41800000000E+01 0.  1.
         -5    1    1    2    0  502  0.12021847454E+03 -0.45445894645E+02  0.22617514146E+03  0.26017393793E+03  0.41800000000E+01 0.  1.
        -11    1    3    3    0    0 -0.13021924372E+03  0.27865946495E+02  0.10024421289E+03  0.16668072663E+03  0.00000000000E+00 0.  1.
         11    1    3    3    0    0 -0.56537424658E+02 -0.21598431999E+02  0.66909163768E+02  0.90220889199E+02  0.00000000000E+00 0. -1.
</event>
<event>
 7    1  0.6988825E-006  0.7183252E+02  0.7561462E-02  0.1353970E+00
          3   -1    0    0  501    0  0.00000000000E+00  0.00000000000E+00  0.44032888191E+02  0.44032888191E+02  0.00000000000E+00 0. -1.
         -3   -1    0    0    0  501 -0.00000000000E+00 -0.00000000000E+00 -0.29863688851E+03  0.29863688851E+03  0.00000000000E+00 0.  1.
         23    2    1    2    0    0  0.34463172143E+02  0.70950202480E+00 -0.13663752223E+03  0.16731751715E+03  0.90206016643E+02 0.  0.
          5    1    1    2  502    0 -0.31813848990E+01  0.19347465688E+02  0.22416947748E+02  0.30073868803E+02  0.41800000000E+01 0. -1.
         -5    1    1    2    0  502 -0.31281787244E+02 -0.20056967713E+02 -0.14038342584E+03  0.14527839074E+03  0.41800000000E+01 0. -1.
        -11    1    3    3    0    0 -0.23106574189E+02 -0.13719734100E+02 -0.83280149873E+02  0.87508446663E+02  0.00000000000E+00 0.  1.
         11    1    3    3    0    0  0.57569746332E+02  0.14429236125E+02 -0.53357372355E+02  0.79809070490E+02  0.00000000000E+00 0. -1.
</event>
<event>
 7    1  0.6988825E-006  0.1497448E+03  0.7561462E-02  0.1200787E+00
          1   -1    0    0  501    0  0.00000000000E+00  0.00000000000E+00  0.23451230185E+03  0.23451230185E+03  0.00000000000E+00 0. -1.
         -1   -1    0    0    0  501 -0.00000000000E+00 -0.00000000000E+00 -0.10860856193E+03  0.10860856193E+03  0.00000000000E+00 0.  1.
         23    2    1    2    0    0 -0.10727304398E+03 -0.49308881417E+02  0.52626997404E+02  0.15615702395E+03  0.87615886237E+02 0.  0.
          5    1    1    2  502    0  0.54161520168E+02 -0.39891927966E+02  0.20604990917E+02  0.70476054334E+02  0.41800000000E+01 0.  1.
         -5    1    1    2    0  502  0.53111523808E+02  0.89200809383E+02  0.52671751599E+02  0.11648778551E+03  0.41800000000E+01 0.  1.
        -11    1    3    3    0    0 -0.35172417291E+02 -0.43383294893E+02 -0.14247947994E+02  0.57638643599E+02  0.00000000000E+00 0.  1.
         11    1    3    3    0    0 -0.72100626686E+02 -0.59255865244E+01  0.66874945398E+02  0.98518380347E+02  0.00000000000E+00 0. -1.
</event>
<event>
 7    1  0.6988825E-006  0.1351904E+03  0.7561462E-02  0.1219951E+00
          1   -1    0    0  501    0  0.00000000000E+00  0.00000000000E+00  0.23355266664E+03  0.23355266664E+03  0.00000000000E+00 0. -1.
         -1   -1    0    0    0  501 -0.00000000000E+00 -0.00000000000E+00 -0.10472419869E+03  0.10472419869E+03  0.00000000000E+00 0.  1.
         23    2    1    2    0    0  0.95118316804E+01  0.10152505526E+03  0.70811110778E+01  0.13933515287E+03  0.94690711802E+02 0.  0.
          5    1    1    2  502    0  0.11892734352E+01 -0.11742416455E+03  0.13206976958E+03  0.17677597469E+03  0.41800000000E+01 0. -1.
         -5    1    1    2    0  502 -0.10701105116E+02  0.15899109290E+02 -0.10322412702E+02  0.22165737770E+02  0.41800000000E+01 0.  1.
        -11    1    3    3    0    0  0.19403554910E+02  0.11495505982E+03 -0.79907360330E+01  0.11685467720E+03  0.00000000000E+00 0.  1.
         11    1    3    3    0    0 -0.98917232292E+01 -0.13430004555E+02  0.15071847111E+02  0.22480475665E+02  0.00000000000E+00 0. -1.
</event>
<event>
 7    1  0.6988825E-006  0.1085979E+03  0.7561462E-02  0.1263189E+00
          1   -1    0    0  501    0  0.00000000000E+00  0.00000000000E+00  0.95413857376E+03  0.95413857376E+03  0.00000000000E+00 0. -1.
         -1   -1    0    0    0  501 -0.00000000000E+00 -0.00000000000E+00 -0.25210358479E+02  0.25210358479E+02  0.00000000000E+00 0.  1.
         23    2    1    2    0    0  0.15598008094E+01  0.64097883033E+02  0.14757581343E+03  0.18545330201E+03  0.92213528990E+02 0.  0.
          5    1    1    2  502    0 -0.48956505144E+02  0.11905899988E+02  0.25571999721E+03  0.26066967453E+03  0.41800000000E+01 0. -1.
         -5    1    1    2    0  502  0.47396704335E+02 -0.76003783021E+02  0.52563240465E+03  0.53322595570E+03  0.41800000000E+01 0. -1.
        -11    1    3    3    0    0 -0.17122194599E+02  0.51918729625E+02  0.15302380592E+03  0.16249618215E+03  0.00000000000E+00 0. -1.
         11    1    3    3    0    0  0.18681995408E+02  0.12179153408E+02 -0.54479924919E+01  0.22957119862E+02  0.00000000000E+00 0.  1.
</event>
<event>
 7    1  0.6988825E-006  0.1356051E+03  0.7561462E-02  0.1219368E+00
          2   -1    0    0  501    0  0.00000000000E+00  0.00000000000E+00  0.52538749784E+03  0.52538749784E+03  0.00000000000E+00 0. -1.
         -2   -1    0    0    0  501 -0.00000000000E+00 -0.00000000000E+00 -0.39906929075E+02  0.39906929075E+02  0.00000000000E+00 0.  1.
         23    2    1    2    0    0 -0.92348008112E+02 -0.63257277057E+01  0.26590785680E+03  0.29616962150E+03  0.91876476647E+02 0.  0.
          5    1    1    2  502    0  0.21073446748E+02 -0.55875032783E+02  0.70098025558E+02  0.92180882147E+02  0.41800000000E+01 0.  1.
         -5    1    1    2    0  502  0.71274561364E+02  0.62200760489E+02  0.14947468640E+03  0.17694392326E+03  0.41800000000E+01 0.  1.
        -11    1    3    3    0    0 -0.91281325655E+02  0.17384084297E+02  0.25217231078E+03  0.26874776487E+03  0.00000000000E+00 0. -1.
         11    1    3    3    0    0 -0.10666824569E+01 -0.23709812003E+02  0.13735546021E+02  0.27421856632E+02  0.00000000000E+00 0.  1.
</event>
<event>
 7    1  0.6988825E-006  0.1700083E+03  0.7561462E-02  0.1177839E+00
          1   -1    0    0  501    0  0.00000000000E+00  0.00000000000E+00  0.11008558280E+03  0.11008558280E+03  0.00000000000E+00 0. -1.
         -1   -1    0    0    0  501 -0.00000000000E+00 -0.00000000000E+00 -0.29328538427E+03  0.29328538427E+03  0.00000000000E+00 0.  1.
         23    2    1    2    0    0  0.13880717736E+03  0.46346823662E+01 -0.12181804629E+03  0.20663213508E+03  0.92565058628E+02 0.  0.
          5    1    1    2  502    0 -0.16203938105E+03  0.18621623666E+01 -0.57209023868E+02  0.17190280239E+03  0.41800000000E+01 0.  1.
         -5    1    1    2    0  502  0.23232203684E+02 -0.64968447328E+01 -0.41727313083E+01  0.24836029596E+02  0.41800000000E+01 0.  1.
        -11    1    3    3    0    0  0.60384104328E+02  0.34461830839E+02 -0.96603827888E+02  0.11902166779E+03  0.00000000000E+00 0.  1.
         11    1    3    3    0    0  0.78423073035E+02 -0.29827148473E+02 -0.25214218405E+02  0.87610467297E+02  0.00000000000E+00 0. -1.
</event>
<event>
 7    1  0.6988825E-006  0.1012489E+03  0.7561462E-02  0.1277691E+00
          1   -1    0    0  501    0  0.00000000000E+00  0.00000000000E+00  0.22603075356E+02  0.22603075356E+02  0.00000000000E+00 0. -1.
         -1   -1    0    0    0  501 -0.00000000000E+00 -0.00000000000E+00 -0.71904894594E+03  0.71904894594E+03  0.00000000000E+00 0.  1.
         23    2    1    2    0    0 -0.54352081270E+02  0.41437919495E+02 -0.29522802970E+03  0.31586453892E+03  0.89104250808E+02 0.  0.
          5    1    1    2  502    0  0.88086374339E+00 -0.44733956282E+02 -0.34538739957E+03  0.34829847968E+03  0.41800000000E+01 0. -1.
         -5    1    1    2    0  502  0.53471217527E+02  0.32960367865E+01 -0.55830441304E+02  0.77489002694E+02  0.41800000000E+01 0. -1.
        -11    1    3    3    0    0 -0.23963189718E+02  0.62442801962E+02 -0.24200603996E+03  0.25107819769E+03  0.00000000000E+00 0.  1.
         11    1    3    3    0    0 -0.30388891552E+02 -0.21004882466E+02 -0.53221989738E+02  0.64786341221E+02  0.00000000000E+00 0. -1.
</event>
<event>
 7    1  0.6988825E-006  0.1572520E+03  0.7561462E-02  0.1191835E+00
         -2   -1    0    0    0  501 -0.00000000000E+00  0.00000000000E+00  0.49801426743E+02  0.49801426743E+02  0.00000000000E+00 0. -1.
          2   -1    0    0  501    0  0.00000000000E+00 -0.00000000000E+00 -0.67381143305E+03  0.67381143305E+03  0.00000000000E+00 0.  1.
         23    2    1    2    0    0 -0.12795018596E+03  0.71499179765E+02 -0.29424726675E+03  0.34167638089E+03  0.93155313731E+02 0.  0.
          5    1    1    2  502    0  0.11547142552E+03 -0.25240075253E+02 -0.12698007128E+03  0.17352844843E+03  0.41800000000E+01 0. -1.
         -5    1    1    2    0  502  0.12478760441E+02 -0.46259104512E+02 -0.20278266829E+03  0.20840803048E+03  0.41800000000E+01 0. -1.
        -11    1    3    3    0    0 -0.95637587976E+02  0.42254738188E+02 -0.27467459236E+03  0.29390158697E+03  0.00000000000E+00 0.  1.
         11    1    3    3    0    0 -0.32312597986E+02  0.29244441576E+02 -0.19572674383E+02  0.47774793921E+02  0.00000000000E+00 0. -1.
</event>
<event>
 7    1  0.6988825E-006  0.1181746E+03  0.7561462E-02  0.1246139E+00
         -1   -1    0    0    0  501 -0.00000000000E+00  0.00000000000E+00  0.30366877799E+02  0.30366877799E+02  0.00000000000E+00 0.  1.
          1   -1    0    0  501    0  0.00000000000E+00 -0.00000000000E+00 -0.14632915134E+04  0.14632915134E+04  0.00000000000E+00 0. -1.
         23    2    1    2    0    0 -0.79800796008E+02  0.43124088522E+02 -0.13175013233E+03  0.18334159779E+03  0.89600167728E+02 0.  0.
          5    1    1    2  502    0  0.81583878387E+02 -0.69215606126E+02 -0.66275530566E+03  0.67134849141E+03  0.41800000000E+01 0. -1.
         -5    1    1    2    0  502 -0.17830823785E+01  0.26091517604E+02 -0.63841919760E+03  0.63896830198E+03  0.41800000000E+01 0. -1.
        -11    1    3    3    0    0  0.30699650758E+01  0.14954432621E+02 -0.80455271397E+02  0.81890844641E+02  0.00000000000E+00 0. -1.
         11    1    3    3    0    0 -0.82870761084E+02  0.28169655901E+02 -0.51294860931E+02  0.10145075315E+03  0.00000000000E+00 0.  1.
</event>
<event>
 7    1  0.6988825E-006  0.1890693E+03  0.7561462E-02  0.1159303E+00
         -2   -1    0    0    0  501 -0.00000000000E+00  0.00000000000E+00  0.19829498868E+02  0.19829498868E+02  0.00000000000E+00 0.  1.
          2   -1    0    0  501    0  0.00000000000E+00 -0.00000000000E+00 -0.27559493685E+04  0.27559493685E+04  0.00000000000E+00 0. -1.
         23    2    1    2    0    0 -0.65069117259E+02 -0.16148844957E+03 -0.65840612266E+03  0.68703468102E+03  0.90584332005E+02 0.  0.
          5    1    1    2  502    0 -0.25969054461E+02  0.45527431158E+02 -0.27322863626E+03  0.27824179925E+03  0.41800000000E+01 0.  1.
         -5    1    1    2    0  502  0.91038171720E+02  0.11596101841E+03 -0.18044851108E+04  0.18105023871E+04  0.41800000000E+01 0.  1.
        -11    1    3    3    0    0 -0.87847771588E+01 -0.70761493606E+02 -0.13318528464E+03  0.15107177543E+03  0.00000000000E+00 0.  1.
         11    1    3    3    0    0 -0.56284340101E+02 -0.90726955963E+02 -0.52522083802E+03  0.53596290559E+03  0.00000000000E+00 0. -1.
</event>
<event>
 7    1  0.6988825E-006  0.9149360E+02  0.7561462E-02  0.1299275E+00
          2   -1    0    0  501    0  0.00000000000E+00  0.00000000000E+00  0.40236658798E+03  0.40236658798E+03  0.00000000000E+00 0. -1.
         -2   -1    0    0    0  501 -0.00000000000E+00 -0.00000000000E+00 -0.41101426611E+02  0.41101426611E+02  0.00000000000E+00 0.  1.
         23    2    1    2    0    0 -0.92196221127E+01  0.66033769293E+02  0.11400435438E+03  0.15845784712E+03  0.87558188523E+02 0.  0.
          5    1    1    2  502    0 -0.13403482325E+02 -0.21845475506E+02  0.23121886589E+03  0.23267254776E+03  0.41800000000E+01 0. -1.
         -5    1    1    2    0  502  0.22623104437E+02 -0.44188293787E+02  0.16041941093E+02  0.52337619703E+02  0.41800000000E+01 0. -1.
        -11    1    3    3    0    0  0.26165035966E+02  0.66869135545E+02  0.92287920602E+02  0.11693224827E+03  0.00000000000E+00 0. -1.
         11    1    3    3    0    0 -0.35384658079E+02 -0.83536625268E+00  0.21716433781E+02  0.41525598855E+02  0.00000000000E+00 0.  1.
</event>
<event>
 7    1  0.6988825E-006  0.8878547E+02  0.7561462E-02  0.1305820E+00
         -2   -1    0    0    0  501 -0.00000000000E+00  0.00000000000E+00  0.41536120427E+02  0.41536120427E+02  0.00000000000E+00 0.  1.
          2   -1    0    0  501    0  0.00000000000E+00 -0.00000000000E+00 -0.43179136294E+03  0.43179136294E+03  0.00000000000E+00 0. -1.
         23    2    1    2    0    0  0.39545600644E+01 -0.26049143056E+02 -0.45005699348E+02  0.10516662336E+03  0.91325293844E+02 0.  0.
          5    1    1    2  502    0 -0.75617469560E+01  0.56091339509E+02 -0.32841705893E+03  0.33328464618E+03  0.41800000000E+01 0.  1.
         -5    1    1    2    0  502  0.36071868915E+01 -0.30042196453E+02 -0.16832484229E+02  0.34876213819E+02  0.41800000000E+01 0.  1.
        -11    1    3    3    0    0 -0.40436011253E+02 -0.37879793103E+01 -0.36854827684E+02  0.54842484598E+02  0.00000000000E+00 0.  1.
         11    1    3    3    0    0  0.44390571317E+02 -0.22261163746E+02 -0.81508716645E+01  0.50324138761E+02  0.00000000000E+00 0. -1.
</event>
<event>
 7    1  0.6988825E-006  0.1225580E+03  0.7561462E-02  0.1238936E+00
         -2   -1    0    0    0  501 -0.00000000000E+00  0.00000000000E+00  0.24548752590E+02  0.24548752590E+02  0.00000000000E+00 0.  1.
          2   -1    0    0  501    0  0.00000000000E+00 -0.00000000000E+00 -0.82785758308E+03  0.82785758308E+03  0.00000000000E+00 0. -1.
         23    2    1    2    0    0 -0.71475760479E+02  0.31004328734E+02 -0.27491279942E+03  0.29993493175E+03  0.91180388586E+02 0.  0.
          5    1    1    2  502    0 -0.24128259691E+02  0.73679434853E+01 -0.30900932794E+03  0.31006563283E+03  0.41800000000E+01 0. -1.
         -5    1    1    2    0  502  0.95604020170E+02 -0.38372272220E+02 -0.21938670312E+03  0.24240577108E+03  0.41800000000E+01 0.  1.
        -11    1    3    3    0    0 -0.79228398447E+02 -0.52171573636E+01 -0.15098481718E+03  0.17058948640E+03  0.00000000000E+00 0.  1.
         11    1    3    3    0    0  0.77526379684E+01  0.36221486098E+02 -0.12392798225E+03  0.12934544535E+03  0.00000000000E+00 0. -1.
</event>
<event>
 7    1  0.6988825E-006  0.8536380E+02  0.7561462E-02  0.1314484E+00
          3   -1    0    0  501    0  0.00000000000E+00  0.00000000000E+00  0.65657818151E+02  0.65657818151E+02  0.00000000000E+00 0. -1.
         -3   -1    0    0    0  501 -0.00000000000E+00 -0.00000000000E+00 -0.20114709137E+03  0.20114709137E+03  0.00000000000E+00 0.  1.
         23    2    1    2    0    0 -0.10306401524E+02  0.34769344834E+02 -0.70688480302E+02  0.12133387182E+03  0.91705604793E+02 0.  0.
          5    1    1    2  502    0 -0.42282189212E+02 -0.47374068012E+01  0.14910374430E+02  0.45277126824E+02  0.41800000000E+01 0. -1.
         -5    1    1    2    0  502  0.52588590736E+02 -0.30031938033E+02 -0.79711167352E+02  0.10019391088E+03  0.41800000000E+01 0. -1.
        -11    1    3    3    0    0 -0.31756122137E+02  0.75938779408E+01 -0.79213439595E+02  0.85678978098E+02  0.00000000000E+00 0.  1.
         11    1    3    3    0    0  0.21449720613E+02  0.27175466893E+02  0.85249592932E+01  0.35654893720E+02  0.00000000000E+00 0. -1.
</event>
<event>
 7    1  0.6988825E-006  0.9089794E+02  0.7561462E-02  0.1300692E+00
         -1   -1    0    0    0  501 -0.00000000000E+00  0.00000000000E+00  0.31939164891E+03  0.31939164891E+03  0.00000000000E+00 0.  1.
          1   -1    0    0  501    0  0.00000000000E+00 -0.00000000000E+00 -0.54216315573E+02  0.54216315573E+02  0.00000000000E+00 0. -1.
         23    2    1    2    0    0 -0.73581178140E+02  0.76715161206E+01  0.13499550641E+03  0.17849958693E+03  0.90361904849E+02 0.  0.
          5    1    1    2  502    0  0.84277953373E+02 -0.52255752888E+01  0.14993441862E+03  0.17212751770E+03  0.41800000000E+01 0. -1.
         -5    1    1    2    0  502 -0.10696775233E+02 -0.24459408319E+01 -0.19754591689E+02  0.22980859856E+02  0.41800000000E+01 0. -1.
        -11    1    3    3    0    0 -0.62246339606E+02 -0.11441673808E+02  0.27974675668E+02  0.69196106628E+02  0.00000000000E+00 0. -1.
         11    1    3    3    0    0 -0.11334838534E+02  0.19113189928E+02  0.10702083074E+03  0.10930348030E+03  0.00000000000E+00 0.  1.
</event>
<event>
 7    1  0.6988825E-006  0.8107272E+02  0.7561462E-02  0.1326034E+00
         -2   -1    0    0    0  501 -0.00000000000E+00  0.00000000000E+00  0.17891081021E+02  0.17891081021E+02  0.00000000000E+00 0.  1.
          2   -1    0    0  501    0  0.00000000000E+00 -0.00000000000E+00 -0.88357295609E+03  0.88357295609E+03  0.00000000000E+00 0. -1.
         23    2    1    2    0    0  0.15461387452E+02 -0.62297042739E+02 -0.40172380404E+03  0.41667060221E+03  0.90068862410E+02 0.  0.
          5    1    1    2  502    0  0.29040843785E+01  0.57904952967E+02 -0.46167350750E+03  0.46531851157E+03  0.41800000000E+01 0.  1.
         -5    1    1    2    0  502 -0.18365471830E+02  0.43920897714E+01 -0.22845635251E+01  0.19474923327E+02  0.41800000000E+01 0.  1.
        -11    1    3    3    0    0  0.16723570414E+02  0.49321682563E+01 -0.11946331438E+02  0.21135726293E+02  0.00000000000E+00 0.  1.
         11    1    3    3    0    0 -0.12621829626E+01 -0.67229210995E+02 -0.38977747260E+03  0.39553487591E+03  0.00000000000E+00 0. -1.
</event>
<event>
 7    1  0.6988825E-006  0.1456725E+03  0.7561462E-02  0.1205894E+00
         -1   -1    0    0    0  501 -0.00000000000E+00  0.00000000000E+00  0.15554944452E+03  0.15554944452E+03  0.00000000000E+00 0.  1.
          1   -1    0    0  501    0  0.00000000000E+00 -0.00000000000E+00 -0.19993789025E+03  0.19993789025E+03  0.00000000000E+00 0. -1.
         23    2    1    2    0    0 -0.64358393185E+02 -0.75582298904E+02  0.75262481991E+02  0.15594146304E+03  0.93800916934E+02 0.  0.
          5    1    1    2  502    0 -0.29786432773E+02  0.48918046735E+02 -0.22735409930E+02  0.61762271156E+02  0.41800000000E+01 0. -1.
         -5    1    1    2    0  502  0.94144825958E+02  0.26664252169E+02 -0.96915517794E+02  0.13778360058E+03  0.41800000000E+01 0. -1.
        -11    1    3    3    0    0 -0.87976470559E+02 -0.50115163883E+02  0.49529893004E+02  0.11271468105E+03  0.00000000000E+00 0. -1.
         11    1    3    3    0    0  0.23618077374E+02 -0.25467135021E+02  0.25732588988E+02  0.43226781988E+02  0.00000000000E+00 0.  1.
</event>
<event>
 7    1  0.6988825E-006  0.1611899E+03  0.7561462E-02  0.1187360E+00
          1   -1    0    0  501    0  0.00000000000E+00  0.00000000000E+00  0.16001856845E+04  0.16001856845E+04  0.00000000000E+00 0. -1.
         -1   -1    0    0    0  501 -0.00000000000E+00 -0.00000000000E+00 -0.25914895493E+02  0.25914895493E+02  0.00000000000E+00 0.  1.
         23    2    1    2    0    0  0.13729381815E+03  0.50289698732E+02  0.38885761362E+03  0.42517160416E+03  0.90454425021E+02 0.  0.
          5    1    1    2  502    0 -0.11153115912E+03 -0.25319826900E+02  0.11230063483E+04  0.11288228487E+04  0.41800000000E+01 0.  1.
         -5    1    1    2    0  502 -0.25762659034E+02 -0.24969871832E+02  0.62406827066E+02  0.72106127093E+02  0.41800000000E+01 0.  1.
        -11    1    3    3    0    0 -0.13420774312E+02  0.61932520217E+01  0.29247625493E+02  0.32770370012E+02  0.00000000000E+00 0.  1.
         11    1    3    3    0    0  0.15071459246E+03  0.44096446711E+02  0.35960998813E+03  0.39240123414E+03  0.00000000000E+00 0. -1.
</event>
<event>
 7    1  0.6988825E-006  0.1344311E+03  0.7561462E-02  0.1221025E+00
          1   -1    0    0  501    0  0.00000000000E+00  0.00000000000E+00  0.14450150663E+03  0.14450150663E+03  0.00000000000E+00 0. -1.
         -1   -1    0    0    0  501 -0.00000000000E+00 -0.00000000000E+00 -0.12902526147E+03  0.12902526147E+03  0.00000000000E+00 0.  1.
         23    2    1    2    0    0 -0.52265153421E+02 -0.63586149092E+02 -0.15544196300E+02  0.12060678430E+03  0.86772863049E+02 0.  0.
          5    1    1    2  502    0  0.14360698869E+02  0.97355809930E+02  0.25053914144E+02  0.10163441550E+03  0.41800000000E+01 0. -1.
         -5    1    1    2    0  502  0.37904454552E+02 -0.33769660838E+02  0.59665273106E+01  0.51285568303E+02  0.41800000000E+01 0. -1.
        -11    1    3    3    0    0  0.66443429940E+01 -0.60044540108E+02 -0.11114012933E+02  0.61424875857E+02  0.00000000000E+00 0. -1.
         11    1    3    3    0    0 -0.58909496415E+02 -0.35416089844E+01 -0.44301833666E+01  0.59181908441E+02  0.00000000000E+00 0.  1.
</event>
<event>
 7    1  0.6988825E-006  0.1212595E+03  0.7561462E-02  0.1241034E+00
          3   -1    0    0  501    0  0.00000000000E+00  0.00000000000E+00  0.21261325903E+03  0.21261325903E+03  0.00000000000E+00 0. -1.
         -3   -1    0    0    0  501 -0.00000000000E+00 -0.00000000000E+00 -0.11008083154E+03  0.11008083154E+03  0.00000000000E+00 0.  1.
         23    2    1    2    0    0  0.11848390632E+02  0.63558470961E+02 -0.43278995458E+02  0.11999123885E+03  0.91349670840E+02 0.  0.
          5    1    1    2  502    0 -0.89974107664E+01 -0.97306912855E+02  0.72221330245E+02  0.12158528543E+03  0.41800000000E+01 0. -1.
         -5    1    1    2    0  502 -0.28509798656E+01  0.33748441894E+02  0.73590092700E+02  0.81117566285E+02  0.41800000000E+01 0. -1.
        -11    1    3    3    0    0  0.49947730679E+02  0.23173113371E+02 -0.30781483694E+02  0.63081445145E+02  0.00000000000E+00 0.  1.
         11    1    3    3    0    0 -0.38099340047E+02  0.40385357590E+02 -0.12497511764E+02  0.56909793709E+02  0.00000000000E+00 0. -1.
</event>
<event>
 7    1  0.6988825E-006  0.1142679E+03  0.7561462E-02  0.1252864E+00
         -2   -1    0    0    0  501 -0.00000000000E+00  0.00000000000E+00  0.93622450084E+02  0.93622450084E+02  0.00000000000E+00 0.  1.
          2   -1    0    0  501    0  0.00000000000E+00 -0.00000000000E+00 -0.17590469370E+03  0.17590469370E+03  0.00000000000E+00 0. -1.
         23    2    1    2    0    0 -0.93474402900E+01  0.68075839092E+02 -0.39535765097E+02  0.12051992095E+03  0.90775988656E+02 0.  0.
          5    1    1    2  502    0  0.56878997504E+02 -0.44891214630E+01  0.29979779461E+01  0.57287283409E+02  0.41800000000E+01 0.  1.
         -5    1    1    2    0  502 -0.47531557214E+02 -0.63586717629E+02 -0.45744456462E+02  0.91719939419E+02  0.41800000000E+01 0.  1.
        -11    1    3    3    0    0 -0.34686744727E+02  0.49351122886E+02  0.10658858393E+02  0.61256141342E+02  0.00000000000E+00 0.  1.
         11    1    3    3    0    0  0.25339304437E+02  0.18724716206E+02 -0.50194623490E+02  0.59263779610E+02  0.00000000000E+00 0. -1.
</event>
<event>
 7    1  0.6988825E-006  0.9769590E+02  0.7561462E-02  0.1285217E+00
         -1   -1    0    0    0  501 -0.00000000000E+00  0.00000000000E+00  0.27990241999E+02  0.27990241999E+02  0.00000000000E+00 0.  1.
          1   -1    0    0  501    0  0.00000000000E+00 -0.00000000000E+00 -0.62232400667E+03  0.62232400667E+03  0.00000000000E+00 0. -1.
         23    2    1    2    0    0 -0.98617598009E+01  0.76670627957E+02 -0.25181733409E+03  0.27559756097E+03  0.81033365762E+02 0.  0.
          5    1    1    2  502    0 -0.82454457823E+01 -0.78898387754E+00 -0.26327935567E+03  0.26344278581E+03  0.41800000000E+01 0. -1.
         -5    1    1    2    0  502  0.18107205583E+02 -0.75881644080E+02 -0.79237074916E+02  0.11127390190E+03  0.41800000000E+01 0.  1.
        -11    1    3    3    0    0 -0.42596174591E+02  0.35919943410E+02 -0.93159199278E+02  0.10855096883E+03  0.00000000000E+00 0.  1.
         11    1    3    3    0    0  0.32734414790E+02  0.40750684547E+02 -0.15865813481E+03  0.16704659214E+03  0.00000000000E+00 0. -1.
</event>
<event>
 7    1  0.6988825E-006  0.1090581E+03  0.7561462E-02  0.1262324E+00
         -1   -1    0    0    0  501 -0.00000000000E+00  0.00000000000E+00  0.12353598977E+03  0.12353598977E+03  0.00000000000E+00 0.  1.
          1   -1    0    0  501    0  0.00000000000E+00 -0.00000000000E+00 -0.11474926108E+03  0.11474926108E+03  0.00000000000E+00 0. -1.
         23    2    1    2    0    0  0.21426221523E+02 -0.31638959022E+02  0.16546046591E+02  0.10725652457E+03  0.98843733781E+02 0.  0.
          5    1    1    2  502    0  0.39780999800E+02 -0.17142405675E+02  0.19978686662E+02  0.47885387522E+02  0.41800000000E+01 0. -1.
         -5    1    1    2    0  502 -0.61207221322E+02  0.48781364698E+02 -0.27738004563E+02  0.83143338764E+02  0.41800000000E+01 0. -1.
        -11    1    3    3    0    0  0.47660910265E+02  0.83544275823E+01  0.30786679341E+02  0.57351359638E+02  0.00000000000E+00 0.  1.
         11    1    3    3    0    0 -0.26234688742E+02 -0.39993386604E+02 -0.14240632750E+02  0.49905164929E+02  0.00000000000E+00 0. -1.
</event>
<event>
 7    1  0.6988825E-006  0.1105542E+03  0.7561462E-02  0.1259547E+00
          2   -1    0    0  501    0  0.00000000000E+00  0.00000000000E+00  0.71794536054E+02  0.71794536054E+02  0.00000000000E+00 0. -1.
         -2   -1    0    0    0  501 -0.00000000000E+00 -0.00000000000E+00 -0.21082086792E+03  0.21082086792E+03  0.00000000000E+00 0.  1.
         23    2    1    2    0    0 -0.42594061490E+02 -0.33481026922E+02 -0.80892665750E+02  0.13441542084E+03  0.92674962901E+02 0.  0.
          5    1    1    2  502    0 -0.31174164531E+02  0.50590216512E+02 -0.17135247432E+02  0.61986189152E+02  0.41800000000E+01 0.  1.
         -5    1    1    2    0  502  0.73768226021E+02 -0.17109189591E+02 -0.40998418685E+02  0.86213793986E+02  0.41800000000E+01 0.  1.
        -11    1    3    3    0    0  0.75719575845E+01  0.14449499048E+02 -0.59669546413E+02  0.61859335055E+02  0.00000000000E+00 0.  1.
         11    1    3    3    0    0 -0.50166019075E+02 -0.47930525970E+02 -0.21223119337E+02  0.72556085781E+02  0.00000000000E+00 0. -1.
</event>
<event>
 7    1  0.6988825E-006  0.2787049E+03  0.7561462E-02  0.1096398E+00
          2   -1    0    0  501    0  0.00000000000E+00  0.00000000000E+00  0.61574869006E+03  0.61574869006E+03  0.00000000000E+00 0. -1.
         -2   -1    0    0    0  501 -0.00000000000E+00 -0.00000000000E+00 -0.28404508492E+03  0.28404508492E+03  0.00000000000E+00 0.  1.
         23    2    1    2    0    0 -0.10396705113E+03  0.17041223214E+03 -0.26646336188E+02  0.22093462009E+03  0.90843835977E+02 0.  0.
          5    1    1    2  502    0 -0.89368201721E+02 -0.48224996795E+01  0.40949573729E+03  0.41918273252E+03  0.41800000000E+01 0. -1.
         -5    1    1    2    0  502  0.19333525285E+03 -0.16558973246E+03 -0.51145795966E+02  0.25967642238E+03  0.41800000000E+01 0.  1.
        -11    1    3    3    0    0 -0.85812414972E+02  0.17464000975E+03 -0.39157516592E+02  0.19848479708E+03  0.00000000000E+00 0. -1.
         11    1    3    3    0    0 -0.18154636162E+02 -0.42277776064E+01  0.12511180404E+02  0.22449823000E+02  0.00000000000E+00 0.  1.
</event>
<event>
 7    1  0.6988825E-006  0.1383664E+03  0.7561462E-02  0.1215544E+00
         -2   -1    0    0    0  501 -0.00000000000E+00  0.00000000000E+00  0.20120162398E+02  0.20120162398E+02  0.00000000000E+00 0.  1.
          2   -1    0    0  501    0  0.00000000000E+00 -0.00000000000E+00 -0.10297602931E+04  0.10297602931E+04  0.00000000000E+00 0. -1.
         23    2    1    2    0    0  0.41018350440E+02  0.83125605722E+02 -0.32968232628E+03  0.35232615569E+03  0.82770238121E+02 0.  0.
          5    1    1    2  502    0 -0.79706866744E+02 -0.81693200910E+02 -0.55657022358E+03  0.56816797679E+03  0.41800000000E+01 0.  1.
         -5    1    1    2    0  502  0.38688516304E+02 -0.14324048123E+01 -0.12338758079E+03  0.12938632297E+03  0.41800000000E+01 0.  1.
        -11    1    3    3    0    0  0.37294116936E+01  0.86092962848E+02 -0.21211220879E+03  0.22894867522E+03  0.00000000000E+00 0. -1.
         11    1    3    3    0    0  0.37288938746E+02 -0.29673571264E+01 -0.11757011749E+03  0.12337748047E+03  0.00000000000E+00 0.  1.
</event>
<event>
 7    1  0.6988825E-006  0.1614980E+03  0.7561462E-02  0.1187016E+00
          2   -1    0    0  501    0  0.00000000000E+00  0.00000000000E+00  0.19639194798E+04  0.19639194798E+04  0.00000000000E+00 0.  1.
         -2   -1    0    0    0  501 -0.00000000000E+00 -0.00000000000E+00 -0.18120010986E+02  0.18120010986E+02  0.00000000000E+00 0. -1.
         23    2    1    2    0    0 -0.81269997483E+02 -0.11430586511E+03  0.59458700627E+03  0.61782056920E+03  0.92184078989E+02 0.  0.
          5    1    1    2  502    0  0.31837260715E+02  0.10325412676E+03  0.50331212494E+03  0.51479665245E+03  0.41800000000E+01 0.  1.
         -5    1    1    2    0  502  0.49432736768E+02  0.11051738352E+02  0.84790033761E+03  0.84942226913E+03  0.41800000000E+01 0.  1.
        -11    1    3    3    0    0 -0.77842949401E+02 -0.12806075857E+03  0.57065643396E+03  0.59000665104E+03  0.00000000000E+00 0.  1.
         11    1    3    3    0    0 -0.34270480819E+01  0.13754893453E+02  0.23930572311E+02  0.27813918163E+02  0.00000000000E+00 0. -1.
</event>
<event>
 7    1  0.6988825E-006  0.1037014E+03  0.7561462E-02  0.1272700E+00
         -2   -1    0    0    0  501 -0.00000000000E+00  0.00000000000E+00  0.69177268627E+02  0.69177268627E+02  0.00000000000E+00 0. -1.
          2   -1    0    0  501    0  0.00000000000E+00 -0.00000000000E+00 -0.13375479459E+04  0.13375479459E+04  0.00000000000E+00 0.  1.
         23    2    1    2    0    0  0.87742418587E+02 -0.36270890572E+02 -0.26951239958E+01  0.13134410366E+03  0.90717695905E+02 0.  0.
          5    1    1    2  502    0 -0.26006069750E+02  0.81650646774E+01 -0.10229230027E+04  0.10232946427E+04  0.41800000000E+01 0.  1.
         -5    1    1    2    0  502 -0.61736348837E+02  0.28105825894E+02 -0.24275255060E+03  0.25208646818E+03  0.41800000000E+01 0.  1.
        -11    1    3    3    0    0 -0.29056536702E+01  0.97711326939E+01 -0.25225038603E+02  0.27206992298E+02  0.00000000000E+00 0.  1.
         11    1    3    3    0    0  0.90648072258E+02 -0.46042023266E+02  0.22529914608E+02  0.10413711136E+03  0.00000000000E+00 0. -1.
</event>
<event>
 7    1  0.6988825E-006  0.1291171E+03  0.7561462E-02  0.1228772E+00
          2   -1    0    0  501    0  0.00000000000E+00  0.00000000000E+00  0.38414360314E+03  0.38414360314E+03  0.00000000000E+00 0.  1.
         -2   -1    0    0    0  501 -0.00000000000E+00 -0.00000000000E+00 -0.79926150380E+02  0.79926150380E+02  0.00000000000E+00 0. -1.
         23    2    1    2    0    0 -0.10027309974E+03  0.66968813903E+02  0.54387185252E+02  0.15976522735E+03  0.89596012091E+02 0.  0.
          5    1    1    2  502    0  0.70049199898E+01 -0.17116342685E+02 -0.11624291129E+02  0.22240382983E+02  0.41800000000E+01 0.  1.
         -5    1    1    2    0  502  0.93268179753E+02 -0.49852471217E+02  0.26145455864E+03  0.28206414319E+03  0.41800000000E+01 0.  1.
        -11    1    3    3    0    0 -0.75410714126E+02  0.16528992443E+02 -0.57711521018E+01  0.77416339314E+02  0.00000000000E+00 0. -1.
         11    1    3    3    0    0 -0.24862385616E+02  0.50439821459E+02  0.60158337353E+02  0.82348888034E+02  0.00000000000E+00 0.  1.
</event>
<event>
 7    1  0.6988825E-006  0.1740300E+03  0.7561462E-02  0.1173709E+00
          1   -1    0    0  501    0  0.00000000000E+00  0.00000000000E+00  0.27922122465E+03  0.27922122465E+03  0.00000000000E+00 0.  1.
         -1   -1    0    0    0  501 -0.00000000000E+00 -0.00000000000E+00 -0.13158121362E+03  0.13158121362E+03  0.00000000000E+00 0. -1.
         23    2    1    2    0    0  0.42686701123E+02 -0.14163217854E+03  0.78968221626E+02  0.20526592742E+03  0.11839042395E+03 0.  0.
          5    1    1    2  502    0 -0.80736755855E+02  0.13107103020E+03  0.53472013686E+02  0.16301769030E+03  0.41800000000E+01 0.  1.
         -5    1    1    2    0  502  0.38050054732E+02  0.10561148338E+02  0.15199775718E+02  0.42518820553E+02  0.41800000000E+01 0.  1.
        -11    1    3    3    0    0  0.10505817405E+01 -0.79809845075E+02  0.99878069145E+02  0.12785282081E+03  0.00000000000E+00 0.  1.
         11    1    3    3    0    0  0.41636119383E+02 -0.61822333461E+02 -0.20909847519E+02  0.77413106610E+02  0.00000000000E+00 0. -1.
</event>
<event>
 7    1  0.6988825E-006  0.1504408E+03  0.7561462E-02  0.1199932E+00
         -1   -1    0    0    0  501 -0.00000000000E+00  0.00000000000E+00  0.58684884425E+02  0.58684884425E+02  0.00000000000E+00 0.  1.
          1   -1    0    0  501    0  0.00000000000E+00 -0.00000000000E+00 -0.56867243278E+03  0.56867243278E+03  0.00000000000E+00 0. -1.
         23    2    1    2    0    0 -0.13374155517E+03  0.26963618708E+02 -0.14947203467E+03  0.22210383954E+03  0.91511671810E+02 0.  0.
          5    1    1    2  502    0  0.20704255000E+01 -0.19432324559E+02  0.14003139543E+01  0.20033351659E+02  0.41800000000E+01 0.  1.
         -5    1    1    2    0  502  0.13167112967E+03 -0.75312941489E+01 -0.36191582764E+03  0.38522012600E+03  0.41800000000E+01 0.  1.
        -11    1    3    3    0    0 -0.11635089595E+03 -0.60128216144E+00 -0.14958826181E+03  0.18951132051E+03  0.00000000000E+00 0. -1.
         11    1    3    3    0    0 -0.17390659225E+02  0.27564900870E+02  0.11622714598E+00  0.32592519034E+02  0.00000000000E+00 0.  1.
</event>
<event>
 7    1  0.6988825E-006  0.1287229E+03  0.7561462E-02  0.1229363E+00
         -2   -1    0    0    0  501 -0.00000000000E+00  0.00000000000E+00  0.40589508070E+02  0.40589508070E+02  0.00000000000E+00 0. -1.
          2   -1    0    0  501    0  0.00000000000E+00 -0.00000000000E+00 -0.86883103364E+03  0.86883103364E+03  0.00000000000E+00 0.  1.
         23    2    1    2    0    0 -0.10179912576E+03 -0.26402322656E+02 -0.12389635899E+03  0.18636623686E+03  0.91224568106E+02 0.  0.
          5    1    1    2  502    0  0.58819820657E+00 -0.19056349348E+02 -0.37479847380E+03  0.37530635325E+03  0.41800000000E+01 0.  1.
         -5    1    1    2    0  502  0.10121092755E+03  0.45458672004E+02 -0.32954669278E+03  0.34774795159E+03  0.41800000000E+01 0.  1.
        -11    1    3    3    0    0  0.10474951186E+02  0.28883868433E+01 -0.44408929132E+02  0.45718927891E+02  0.00000000000E+00 0.  1.
         11    1    3    3    0    0 -0.11227407694E+03 -0.29290709499E+02 -0.79487429857E+02  0.14064730897E+03  0.00000000000E+00 0. -1.
</event>
<event>
 7    1  0.6988825E-006  0.1375242E+03  0.7561462E-02  0.1216700E+00
          2   -1    0    0  501    0  0.00000000000E+00  0.00000000000E+00  0.51324461728E+02  0.51324461728E+02  0.00000000000E+00 0.  1.
         -2   -1    0    0    0  501 -0.00000000000E+00 -0.00000000000E+00 -0.47440762121E+03  0.47440762121E+03  0.00000000000E+00 0. -1.
         23    2    1    2    0    0 -0.26721359429E+02 -0.10829597567E+03 -0.20800254838E+03  0.25306199212E+03  0.91286703982E+02 0.  0.
          5    1    1    2  502    0  0.25202653328E+02 -0.38763820571E+01 -0.12803411022E+03  0.13061548857E+03  0.41800000000E+01 0.  1.
         -5    1    1    2    0  502  0.15187061003E+01  0.11217235773E+03 -0.87046500876E+02  0.14205460225E+03  0.41800000000E+01 0.  1.
        -11    1    3    3    0    0 -0.53841851855E+02 -0.53998171843E+02 -0.15389692192E+03  0.17175275879E+03  0.00000000000E+00 0. -1.
         11    1    3    3    0    0  0.27120492426E+02 -0.54297803830E+02 -0.54105626462E+02  0.81309233332E+02  0.00000000000E+00 0.  1.
</event>
<event>
 7    1  0.6988825E-006  0.1494002E+03  0.7561462E-02  0.1201212E+00
          1   -1    0    0  501    0  0.00000000000E+00  0.00000000000E+00  0.43223344225E+03  0.43223344225E+03  0.00000000000E+00 0. -1.
         -1   -1    0    0    0  501 -0.00000000000E+00 -0.00000000000E+00 -0.58242114872E+02  0.58242114872E+02  0.00000000000E+00 0.  1.
         23    2    1    2    0    0 -0.10368295650E+03  0.88754451894E+01  0.10897224505E+03  0.17949074937E+03  0.97534865148E+02 0.  0.
          5    1    1    2  502    0  0.64338261511E+02  0.55375592640E+02  0.11433227269E+03  0.14246125485E+03  0.41800000000E+01 0. -1.
         -5    1    1    2    0  502  0.39344694994E+02 -0.64251037830E+02  0.15068680963E+03  0.16852355291E+03  0.41800000000E+01 0. -1.
        -11    1    3    3    0    0 -0.42260994938E+02  0.49214660796E+02  0.73053440093E+02  0.97697899874E+02  0.00000000000E+00 0. -1.
         11    1    3    3    0    0 -0.61421961567E+02 -0.40339215606E+02  0.35918804961E+02  0.81792849494E+02  0.00000000000E+00 0.  1.
</event>
<event>
 7    1  0.6988825E-006  0.9700768E+02  0.7561462E-02  0.1286717E+00
         -1   -1    0    0    0  501 -0.00000000000E+00  0.00000000000E+00  0.55670478519E+02  0.55670478519E+02  0.00000000000E+00 0.  1.
          1   -1    0    0  501    0  0.00000000000E+00 -0.00000000000E+00 -0.34739650363E+03  0.34739650363E+03  0.00000000000E+00 0. -1.
         23    2    1    2    0    0  0.84305344207E+02  0.85041682698E+01 -0.10969053617E+03  0.16649757267E+03  0.92248122143E+02 0.  0.
          5    1    1    2  502    0 -0.83015216793E+02 -0.46909217749E+01 -0.20056235158E+03  0.21715492220E+03  0.41800000000E+01 0.  1.
         -5    1    1    2    0  502 -0.12901274141E+01 -0.38132464949E+01  0.18526862632E+02  0.19414487285E+02  0.41800000000E+01 0.  1.
        -11    1    3    3    0    0 -0.49150074931E+01  0.14723890379E+02  0.89535591325E+01  0.17919722868E+02  0.00000000000E+00 0.  1.
         11    1    3    3    0    0  0.89220351700E+02 -0.62197221089E+01 -0.11864409530E+03  0.14857784980E+03  0.00000000000E+00 0. -1.
</event>
<event>
 7    1  0.6988825E-006  0.9723560E+02  0.7561462E-02  0.1286219E+00
         -2   -1    0    0    0  501 -0.00000000000E+00  0.00000000000E+00  0.29013715042E+02  0.29013715042E+02  0.00000000000E+00 0.  1.
          2   -1    0    0  501    0  0.00000000000E+00 -0.00000000000E+00 -0.63800824806E+03  0.63800824806E+03  0.00000000000E+00 0. -1.
         23    2    1    2    0    0 -0.58275767045E+02  0.18772073215E+02 -0.13376883345E+03  0.17180937859E+03  0.88746301387E+02 0.  0.
          5    1    1    2  502    0  0.36310039745E+02 -0.44222969257E+02 -0.79502462609E+02  0.98041847989E+02  0.41800000000E+01 0. -1.
         -5    1    1    2    0  502  0.21965727300E+02  0.25450896043E+02 -0.39572323695E+03  0.39717073652E+03  0.41800000000E+01 0. -1.
        -11    1    3    3    0    0 -0.25229319508E+02 -0.33159774944E+02 -0.30686089297E+02  0.51746742057E+02  0.00000000000E+00 0. -1.
         11    1    3    3    0    0 -0.33046447537E+02  0.51931848159E+02 -0.10308274416E+03  0.12006263653E+03  0.00000000000E+00 0.  1.
</event>
<event>
 7    1  0.6988825E-006  0.1180152E+03  0.7561462E-02  0.1246408E+00
          4   -1    0    0  501    0  0.00000000000E+00  0.00000000000E+00  0.15370172430E+02  0.15370172430E+02  0.00000000000E+00 0. -1.
         -4   -1    0    0    0  501 -0.00000000000E+00 -0.00000000000E+00 -0.98843584720E+03  0.98843584720E+03  0.00000000000E+00 0.  1.
         23    2    1    2    0    0  0.10362699072E+02  0.66480681933E+02 -0.47220165098E+03  0.48319260252E+03  0.77289231746E+02 0.  0.
          5    1    1    2  502    0  0.39085015079E+02  0.13204868881E+02 -0.88988587050E+02  0.98175597737E+02  0.41800000000E+01 0. -1.
         -5    1    1    2    0  502 -0.49447714151E+02 -0.79685550814E+02 -0.41187543674E+03  0.42243781937E+03  0.41800000000E+01 0. -1.
        -11    1    3    3    0    0 -0.32476064789E+02  0.33197766753E+02 -0.26316795294E+03  0.26723427542E+03  0.00000000000E+00 0. -1.
         11    1    3    3    0    0  0.42838763861E+02  0.33282915180E+02 -0.20903369803E+03  0.21595832710E+03  0.00000000000E+00 0.  1.
</event>
<event>
 7    1  0.6988825E-006  0.1083009E+03  0.7561462E-02  0.1263749E+00
          1   -1    0    0  501    0  0.00000000000E+00  0.00000000000E+00  0.55711230112E+03  0.55711230112E+03  0.00000000000E+00 0. -1.
         -1   -1    0    0    0  501 -0.00000000000E+00 -0.00000000000E+00 -0.29502855957E+02  0.29502855957E+02  0.00000000000E+00 0.  1.
         23    2    1    2    0    0 -0.11351271006E+02 -0.44920510640E+02  0.12712351448E+03  0.16449742358E+03  0.93553785609E+02 0.  0.
          5    1    1    2  502    0  0.19747741412E+02  0.76690060953E+02  0.15209292805E+03  0.17152571207E+03  0.41800000000E+01 0. -1.
         -5    1    1    2    0  502 -0.83964704061E+01 -0.31769550312E+02  0.24839300264E+03  0.25059202143E+03  0.41800000000E+01 0. -1.
        -11    1    3    3    0    0  0.17714965872E+02 -0.65957005882E+02  0.88370181774E+02  0.11168453638E+03  0.00000000000E+00 0.  1.
         11    1    3    3    0    0 -0.29066236877E+02  0.21036495242E+02  0.38753332703E+02  0.52812887195E+02  0.00000000000E+00 0. -1.
</event>
<event>
 7    1  0.6988825E-006  0.1229973E+03  0.7561462E-02  0.1238233E+00
          1   -1    0    0  501    0  0.00000000000E+00  0.00000000000E+00  0.62462157620E+03  0.62462157620E+03  0.00000000000E+00 0. -1.
         -1   -1    0    0    0  501 -0.00000000000E+00 -0.00000000000E+00 -0.34016956356E+02  0.34016956356E+02  0.00000000000E+00 0.  1.
         23    2    1    2    0    0  0.58953586236E+02  0.77987471989E+02  0.24422192201E+03  0.27760595585E+03  0.88674395477E+02 0.  0.
          5    1    1    2  502    0 -0.30546593888E+02  0.18408637865E+02  0.20140426570E+03  0.20458035827E+03  0.41800000000E+01 0. -1.
         -5    1    1    2    0  502 -0.28406992348E+02 -0.96396109854E+02  0.14497843213E+03  0.17645221844E+03  0.41800000000E+01 0. -1.
        -11    1    3    3    0    0  0.26356930270E+02  0.15451863502E+01  0.86139492166E+01  0.27771847170E+02  0.00000000000E+00 0.  1.
         11    1    3    3    0    0  0.32596655966E+02  0.76442285639E+02  0.23560797279E+03  0.24983410868E+03  0.00000000000E+00 0. -1.
</event>
<event>
 7    1  0.6988825E-006  0.1416350E+03  0.7561462E-02  0.1211146E+00
         -2   -1    0    0    0  501 -0.00000000000E+00  0.00000000000E+00  0.46442823984E+02  0.46442823984E+02  0.00000000000E+00 0.  1.
          2   -1    0    0  501    0  0.00000000000E+00 -0.00000000000E+00 -0.50397296906E+03  0.50397296906E+03  0.00000000000E+00 0. -1.
         23    2    1    2    0    0  0.31725213069E+02 -0.10249106083E+03 -0.22945938516E+03  0.26903656764E+03  0.90654059989E+02 0.  0.
          5    1    1    2  502    0 -0.10216705678E+02 -0.26420952082E+02 -0.73721326152E+02  0.79087003442E+02  0.41800000000E+01 0.  1.
         -5    1    1    2    0  502 -0.21508507391E+02  0.12891201292E+03 -0.15434943376E+03  0.20229222197E+03  0.41800000000E+01 0.  1.
        -11    1    3    3    0    0  0.50001309591E+02 -0.63583466523E+02 -0.20309224373E+03  0.21860797707E+03  0.00000000000E+00 0. -1.
         11    1    3    3    0    0 -0.18276096523E+02 -0.38907594311E+02 -0.26367141429E+02  0.50428590565E+02  0.00000000000E+00 0.  1.
</event>
<event>
 7    1  0.6988825E-006  0.1234538E+03  0.7561462E-02  0.1237506E+00
         -4   -1    0    0    0  501 -0.00000000000E+00  0.00000000000E+00  0.27464414059E+02  0.27464414059E+02  0.00000000000E+00 0.  1.
          4   -1    0    0  501    0  0.00000000000E+00 -0.00000000000E+00 -0.60694096994E+03  0.60694096994E+03  0.00000000000E+00 0. -1.
         23    2    1    2    0    0 -0.11971008328E+02 -0.66711361639E+02 -0.24646898129E+03  0.27228062890E+03  0.93787372955E+02 0.  0.
          5    1    1    2  502    0 -0.35703723297E+02  0.76779836848E+02 -0.14601187470E+03  0.16883968478E+03  0.41800000000E+01 0.  1.
         -5    1    1    2    0  502  0.47674731625E+02 -0.10068475209E+02 -0.18699569990E+03  0.19328507032E+03  0.41800000000E+01 0.  1.
        -11    1    3    3    0    0  0.21067043124E+02 -0.76031749956E+02 -0.19560276541E+03  0.21091488601E+03  0.00000000000E+00 0.  1.
         11    1    3    3    0    0 -0.33038051452E+02  0.93203883167E+01 -0.50866215879E+02  0.61365742886E+02  0.00000000000E+00 0. -1.
</event>
<event>
 7    1  0.6988825E-006  0.1662736E+03  0.7561462E-02  0.1181791E+00
          2   -1    0    0  501    0  0.00000000000E+00  0.00000000000E+00  0.12038434690E+04  0.12038434690E+04  0.00000000000E+00 0. -1.
         -2   -1    0    0    0  501 -0.00000000000E+00 -0.00000000000E+00 -0.48102065651E+02  0.48102065651E+02  0.00000000000E+00 0.  1.
         23    2    1    2    0    0  0.35277189753E+02 -0.65953428211E+02  0.53405322495E+02  0.12726150934E+03  0.88028566268E+02 0.  0.
          5    1    1    2  502    0 -0.11275251998E+02  0.14070136043E+03  0.61165309965E+03  0.62774277443E+03  0.41800000000E+01 0. -1.
         -5    1    1    2    0  502 -0.24001937754E+02 -0.74747932218E+02  0.49068298122E+03  0.49694125090E+03  0.41800000000E+01 0.  1.
        -11    1    3    3    0    0  0.52903502435E+02 -0.75867633938E+02  0.53864660960E+02  0.10703307970E+03  0.00000000000E+00 0.  1.
         11    1    3    3    0    0 -0.17626312683E+02  0.99142057271E+01 -0.45933846469E+00  0.20228429643E+02  0.00000000000E+00 0. -1.
</event>
<event>
 7    1  0.6988825E-006  0.9423368E+02  0.7561462E-02  0.1292911E+00
          4   -1    0    0  501    0  0.00000000000E+00  0.00000000000E+00  0.80033597668E+02  0.80033597668E+02  0.00000000000E+00 0. -1.
         -4   -1    0    0    0  501 -0.00000000000E+00 -0.00000000000E+00 -0.16139603620E+03  0.16139603620E+03  0.00000000000E+00 0.  1.
         23    2    1    2    0    0  0.20578133222E+02 -0.28347581254E+02 -0.38046110981E+02  0.10448852781E+03  0.90792626092E+02 0.  0.
          5    1    1    2  502    0  0.51736111561E+02  0.34124231428E+01 -0.81611357535E+01  0.52653075959E+02  0.41800000000E+01 0. -1.
         -5    1    1    2    0  502 -0.72314244783E+02  0.24935158112E+02 -0.35155191801E+02  0.84288030106E+02  0.41800000000E+01 0. -1.
        -11    1    3    3    0    0  0.84737063444E+01  0.13688923086E+02 -0.55200779567E+02  0.57500577208E+02  0.00000000000E+00 0.  1.
         11    1    3    3    0    0  0.12104426878E+02 -0.42036504341E+02  0.17154668586E+02  0.46987950599E+02  0.00000000000E+00 0. -1.
</event>
<event>
 6    1  0.6988825E-006  0.6972339E+02  0.7561462E-02  0.1361036E+00
          3   -1    0    0  501    0  0.00000000000E+00  0.00000000000E+00  0.43841267811E+03  0.43841267811E+03  0.00000000000E+00 0. -1.
         -3   -1    0    0    0  501 -0.00000000000E+00 -0.00000000000E+00 -0.14948985173E+02  0.14948985173E+02  0.00000000000E+00 0.  1.
          5    1    1    2  502    0 -0.48866042047E+02  0.36028937454E+00  0.16435159798E+03  0.17151367302E+03  0.41800000000E+01 0. -1.
         -5    1    1    2    0  502  0.59905423882E+02  0.21421803356E+02  0.24133471568E+03  0.24961464472E+03  0.41800000000E+01 0.  1.
        -11    1    1    2    0    0 -0.92637539776E+01 -0.66402323805E+01  0.97738826840E+01  0.15014613100E+02  0.00000000000E+00 0.  1.
         11    1    1    2    0    0 -0.17756278572E+01 -0.15141860350E+02  0.80034965995E+01  0.17218732444E+02  0.00000000000E+00 0. -1.
</event>
<event>
 7    1  0.6988825E-006  0.8799248E+02  0.7561462E-02  0.1307787E+00
          1   -1    0    0  501    0  0.00000000000E+00  0.00000000000E+00  0.10084462458E+03  0.10084462458E+03  0.00000000000E+00 0. -1.
         -1   -1    0    0    0  501 -0.00000000000E+00 -0.00000000000E+00 -0.14337241296E+03  0.14337241296E+03  0.00000000000E+00 0.  1.
         23    2    1    2    0    0 -0.29841518554E+02  0.43299402883E+02 -0.20423166582E+02  0.10673424320E+03  0.90607606850E+02 0.  0.
          5    1    1    2  502    0  0.69855824121E+02 -0.22863065580E+02  0.19441786666E+02  0.76144674141E+02  0.41800000000E+01 0.  1.
         -5    1    1    2    0  502 -0.40014305567E+02 -0.20436337303E+02 -0.41546408467E+02  0.61338120193E+02  0.41800000000E+01 0.  1.
        -11    1    3    3    0    0 -0.11324748649E+02  0.35293292636E+02  0.33001107828E+02  0.49628011797E+02  0.00000000000E+00 0. -1.
         11    1    3    3    0    0 -0.18516769905E+02  0.80061102469E+01 -0.53424274410E+02  0.57106231405E+02  0.00000000000E+00 0.  1.
</event>
<event>
 7    1  0.6988825E-006  0.1050593E+03  0.7561462E-02  0.1270003E+00
          2   -1    0    0  501    0  0.00000000000E+00  0.00000000000E+00  0.95367244334E+03  0.95367244334E+03  0.00000000000E+00 0. -1.
         -2   -1    0    0    0  501 -0.00000000000E+00 -0.00000000000E+00 -0.26597163513E+02  0.26597163513E+02  0.00000000000E+00 0.  1.
         23    2    1    2    0    0  0.40819212280E+02 -0.92830721982E+02  0.26935992764E+03  0.30312803000E+03  0.95121400955E+02 0.  0.
          5    1    1    2  502    0 -0.25968328721E+02  0.81766006704E+02  0.65153971093E+03  0.65717691779E+03  0.41800000000E+01 0. -1.
         -5    1    1    2    0  502 -0.14850883558E+02  0.11064715279E+02  0.61756412548E+01  0.19964659065E+02  0.41800000000E+01 0. -1.
        -11    1    3    3    0    0  0.29172460685E+02 -0.31985798835E+02  0.21915297568E+03  0.22338789255E+03  0.00000000000E+00 0. -1.
         11    1    3    3    0    0  0.11646751595E+02 -0.60844923148E+02  0.50206951964E+02  0.79740137453E+02  0.00000000000E+00 0.  1.
</event>
<event>
 7    1  0.6988825E-006  0.9758641E+02  0.7561462E-02  0.1285455E+00
          1   -1    0    0  501    0  0.00000000000E+00  0.00000000000E+00  0.38347217239E+02  0.38347217239E+02  0.00000000000E+00 0. -1.
         -1   -1    0    0    0  501 -0.00000000000E+00 -0.00000000000E+00 -0.36559214089E+03  0.36559214089E+03  0.00000000000E+00 0.  1.
         23    2    1    2    0    0 -0.46935331136E+02 -0.53072052126E+01 -0.13698107956E+03  0.17139554201E+03  0.91550663173E+02 0.  0.
          5    1    1    2  502    0  0.57120695967E+02  0.51787868720E+02 -0.74430204331E+02  0.10724777373E+03  0.41800000000E+01 0. -1.
         -5    1    1    2    0  502 -0.10185364831E+02 -0.46480663508E+02 -0.11583363976E+03  0.12529604238E+03  0.41800000000E+01 0. -1.
        -11    1    3    3    0    0 -0.54343154436E+02  0.80309458103E+01 -0.14435195696E+03  0.15445116382E+03  0.00000000000E+00 0.  1.
         11    1    3    3    0    0  0.74078233002E+01 -0.13338151023E+02  0.73708774021E+01  0.16944378196E+02  0.00000000000E+00 0. -1.
</event>
<event>
 7    1  0.6988825E-006  0.1076955E+03  0.7561462E-02  0.1264898E+00
         -4   -1    0    0    0  501 -0.00000000000E+00  0.00000000000E+00  0.72563873642E+03  0.72563873642E+03  0.00000000000E+00 0.  1.
          4   -1    0    0  501    0  0.00000000000E+00 -0.00000000000E+00 -0.22962859332E+02  0.22962859332E+02  0.00000000000E+00 0. -1.
         23    2    1    2    0    0  0.33986424360E+02  0.59309066812E+02  0.33083505739E+03  0.35037179564E+03  0.92929637548E+02 0.  0.
          5    1    1    2  502    0  0.14095721943E+02  0.87248558325E+01 -0.52541425314E-01  0.17096422052E+02  0.41800000000E+01 0.  1.
         -5    1    1    2    0  502 -0.48082146302E+02 -0.68033922645E+02  0.37189336113E+03  0.38113337806E+03  0.41800000000E+01 0.  1.
        -11    1    3    3    0    0 -0.26670666148E+02  0.45391247948E+02  0.13577777903E+03  0.14562724711E+03  0.00000000000E+00 0. -1.
         11    1    3    3    0    0  0.60657090507E+02  0.13917818864E+02  0.19505727836E+03  0.20474454853E+03  0.00000000000E+00 0.  1.
</event>
<event>
 7    1  0.6988825E-006  0.1257806E+03  0.7561462E-02  0.1233854E+00
         -2   -1    0    0    0  501 -0.00000000000E+00  0.00000000000E+00  0.92130919102E+02  0.92130919102E+02  0.00000000000E+00 0.  1.
          2   -1    0    0  501    0  0.00000000000E+00 -0.00000000000E+00 -0.21029512439E+03  0.21029512439E+03  0.00000000000E+00 0. -1.
         23    2    1    2    0    0  0.82698756109E+02  0.20410139332E+02 -0.35466815780E+02  0.12996266409E+03  0.91524537615E+02 0.  0.
          5    1    1    2  502    0 -0.93225367325E+02 -0.42039350817E+02 -0.99563642899E+02  0.14278889143E+03  0.41800000000E+01 0. -1.
         -5    1    1    2    0  502  0.10526611216E+02  0.21629211485E+02  0.16866253387E+02  0.29674487973E+02  0.41800000000E+01 0. -1.
        -11    1    3    3    0    0  0.30533398533E+02  0.54505625352E+02 -0.13774637552E+02  0.63975716179E+02  0.00000000000E+00 0.  1.
         11    1    3    3    0    0  0.52165357577E+02 -0.34095486020E+02 -0.21692178229E+02  0.65986947909E+02  0.00000000000E+00 0. -1.
</event>
<event>
 7    1  0.6988825E-006  0.9217607E+02  0.7561462E-02  0.1297666E+00
         -2   -1    0    0    0  501 -0.00000000000E+00  0.00000000000E+00  0.35626002622E+02  0.35626002622E+02  0.00000000000E+00 0.  1.
          2   -1    0    0  501    0  0.00000000000E+00 -0.00000000000E+00 -0.18189514458E+04  0.18189514458E+04  0.00000000000E+00 0. -1.
         23    2    1    2    0    0  0.27133441722E+02  0.31017002832E+02 -0.62427015667E+02  0.12835945015E+03  0.10431077621E+03 0.  0.
          5    1    1    2  502    0 -0.25525951294E+02 -0.74683541165E+02 -0.71358866951E+03  0.71795227360E+03  0.41800000000E+01 0. -1.
         -5    1    1    2    0  502 -0.16074904275E+01  0.43666538332E+02 -0.10073097580E+04  0.10082657247E+04  0.41800000000E+01 0.  1.
        -11    1    3    3    0    0 -0.60466076375E+01  0.27382425014E+02  0.23239301812E+02  0.36420101760E+02  0.00000000000E+00 0.  1.
         11    1    3    3    0    0  0.33180049359E+02  0.36345778188E+01 -0.85666317478E+02  0.91939348386E+02  0.00000000000E+00 0. -1.
</event>
<event>
 7    1  0.6988825E-006  0.9137631E+02  0.7561462E-02  0.1299553E+00
         -2   -1    0    0    0  501 -0.00000000000E+00  0.00000000000E+00  0.28887939529E+02  0.28887939529E+02  0.00000000000E+00 0.  1.
          2   -1    0    0  501    0  0.00000000000E+00 -0.00000000000E+00 -0.42897452005E+03  0.42897452005E+03  0.00000000000E+00 0. -1.
         23    2    1    2    0    0  0.13513384852E+02 -0.20237239925E+02 -0.15197251210E+03  0.17893362708E+03  0.91265771312E+02 0.  0.
          5    1    1    2  502    0  0.40238967008E+02  0.12508152619E+02 -0.24808909078E+02  0.49077313673E+02  0.41800000000E+01 0. -1.
         -5    1    1    2    0  502 -0.53752351860E+02  0.77290873061E+01 -0.22330515934E+03  0.22985151883E+03  0.41800000000E+01 0. -1.
        -11    1    3    3    0    0  0.20801303766E+01 -0.52073363214E+02 -0.12578795656E+03  0.13615642517E+03  0.00000000000E+00 0.  1.
         11    1    3    3    0    0  0.11433254476E+02  0.31836123289E+02 -0.26184555541E+02  0.42777201905E+02  0.00000000000E+00 0. -1.
</event>
<event>
 7    1  0.6988825E-006  0.1016573E+03  0.7561462E-02  0.1276849E+00
          3   -1    0    0  501    0  0.00000000000E+00  0.00000000000E+00  0.76173064524E+02  0.76173064524E+02  0.00000000000E+00 0. -1.
         -3   -1    0    0    0  501 -0.00000000000E+00 -0.00000000000E+00 -0.23148992220E+03  0.23148992220E+03  0.00000000000E+00 0.  1.
         23    2    1    2    0    0  0.67550660839E+02  0.32975565238E+02 -0.56230753798E+02  0.13126431404E+03  0.91749347598E+02 0.  0.
          5    1    1    2  502    0  0.85669988421E+01 -0.18274477931E+02 -0.96544531896E+02  0.98720155246E+02  0.41800000000E+01 0.  1.
         -5    1    1    2    0  502 -0.76117659681E+02 -0.14701087308E+02 -0.25415719814E+01  0.77678517438E+02  0.41800000000E+01 0.  1.
        -11    1    3    3    0    0  0.72560958611E+02  0.49475018460E+02 -0.18457765290E+02  0.89741625045E+02  0.00000000000E+00 0. -1.
         11    1    3    3    0    0 -0.50102977727E+01 -0.16499453221E+02 -0.37772988508E+02  0.41522688993E+02  0.00000000000E+00 0.  1.
</event>
<event>
 7    1  0.6988825E-006  0.8642499E+02  0.7561462E-02  0.1311748E+00
          2   -1    0    0  501    0  0.00000000000E+00  0.00000000000E+00  0.43053383916E+03  0.43053383916E+03  0.00000000000E+00 0. -1.
         -2   -1    0    0    0  501 -0.00000000000E+00 -0.00000000000E+00 -0.27246069909E+02  0.27246069909E+02  0.00000000000E+00 0.  1.
         23    2    1    2    0    0  0.90761382393E+01 -0.12953026763E+02  0.14423913358E+03  0.16967619058E+03  0.87948421289E+02 0.  0.
          5    1    1    2  502    0 -0.15388136660E+02  0.64938175416E+02  0.18944998954E+03  0.20090428645E+03  0.41800000000E+01 0. -1.
         -5    1    1    2    0  502  0.63119984208E+01 -0.51985148653E+02  0.69598646128E+02  0.87199432036E+02  0.41800000000E+01 0. -1.
        -11    1    3    3    0    0 -0.21235358247E+02 -0.82181125291E+01  0.57973452453E+00  0.22777486814E+02  0.00000000000E+00 0.  1.
         11    1    3    3    0    0  0.30311496487E+02 -0.47349142338E+01  0.14365939906E+03  0.14689870377E+03  0.00000000000E+00 0. -1.
</event>
<event>
 7    1  0.6988825E-006  0.1415577E+03  0.7561462E-02  0.1211248E+00
          1   -1    0    0  501    0  0.00000000000E+00  0.00000000000E+00  0.17301523830E+04  0.17301523830E+04  0.00000000000E+00 0. -1.
         -1   -1    0    0    0  501 -0.00000000000E+00 -0.00000000000E+00 -0.14746147570E+02  0.14746147570E+02  0.00000000000E+00 0.  1.
         23    2    1    2    0    0  0.10882822470E+03 -0.12220438128E+02  0.56663166043E+03  0.58415678447E+03  0.90414537718E+02 0.  0.
          5    1    1    2  502    0 -0.60723897395E+02  0.68504744531E+02  0.67708312431E+03  0.68325640968E+03  0.41800000000E+01 0. -1.
         -5    1    1    2    0  502 -0.48104327310E+02 -0.56284306403E+02  0.47169145067E+03  0.47748533641E+03  0.41800000000E+01 0. -1.
        -11    1    3    3    0    0  0.12336445170E+02 -0.16652823474E+02  0.19144073150E+02  0.28213471000E+02  0.00000000000E+00 0.  1.
         11    1    3    3    0    0  0.96491779535E+02  0.44323853456E+01  0.54748758728E+03  0.55594331347E+03  0.00000000000E+00 0. -1.
</event>
<event>
 7    1  0.6988825E-006  0.9726604E+02  0.7561462E-02  0.1286152E+00
          1   -1    0    0  501    0  0.00000000000E+00  0.00000000000E+00  0.23408892516E+03  0.23408892516E+03  0.00000000000E+00 0. -1.
         -1   -1    0    0    0  501 -0.00000000000E+00 -0.00000000000E+00 -0.52098872873E+02  0.52098872873E+02  0.00000000000E+00 0.  1.
         23    2    1    2    0    0  0.11287329640E+02 -0.26325920778E+01  0.82297145522E+02  0.12581056332E+03  0.94451804276E+02 0.  0.
          5    1    1    2  502    0 -0.17797344140E+02 -0.48920861216E+02  0.94522675292E+02  0.10799076194E+03  0.41800000000E+01 0. -1.
         -5    1    1    2    0  502  0.65100144996E+01  0.51553453293E+02  0.51702314699E+01  0.52386472765E+02  0.41800000000E+01 0. -1.
        -11    1    3    3    0    0 -0.78894654000E+01 -0.43935653932E+02  0.20689791681E+02  0.49200130391E+02  0.00000000000E+00 0.  1.
         11    1    3    3    0    0  0.19176795040E+02  0.41303061854E+02  0.61607353842E+02  0.76610432931E+02  0.00000000000E+00 0. -1.
</event>
<event>
 7    1  0.6988825E-006  0.2219571E+03  0.7561462E-02  0.1132432E+00
         -1   -1    0    0    0  501 -0.00000000000E+00  0.00000000000E+00  0.50416290190E+02  0.50416290190E+02  0.00000000000E+00 0.  1.
          1   -1    0    0  501    0  0.00000000000E+00 -0.00000000000E+00 -0.23131038320E+04  0.23131038320E+04  0.00000000000E+00 0. -1.
         23    2    1    2    0    0  0.14854965699E+03  0.15379496315E+03 -0.34527931728E+03  0.41612306806E+03  0.90668128599E+02 0.  0.
          5    1    1    2  502    0 -0.91032370817E+02 -0.14523399853E+03 -0.18514249920E+04  0.18593471382E+04  0.41800000000E+01 0. -1.
         -5    1    1    2    0  502 -0.57517286174E+02 -0.85609646231E+01 -0.65983232528E+02  0.88049915951E+02  0.41800000000E+01 0.  1.
        -11    1    3    3    0    0  0.12524713373E+03  0.13560236409E+03 -0.21895022086E+03  0.28638094362E+03  0.00000000000E+00 0.  1.
         11    1    3    3    0    0  0.23302523261E+02  0.18192599066E+02 -0.12632909642E+03  0.12974212444E+03  0.00000000000E+00 0. -1.
</event>
<event>
 7    1  0.6988825E-006  0.1615153E+03  0.7561462E-02  0.1186996E+00
         -1   -1    0    0    0  501 -0.00000000000E+00  0.00000000000E+00  0.23134992993E+03  0.23134992993E+03  0.00000000000E+00 0.  1.
          1   -1    0    0  501    0  0.00000000000E+00 -0.00000000000E+00 -0.20596520695E+03  0.20596520695E+03  0.00000000000E+00 0. -1.
         23    2    1    2    0    0  0.13663580483E+03  0.21152702733E+02  0.14096587408E+03  0.21794403606E+03  0.92257494027E+02 0.  0.
          5    1    1    2  502    0  0.19455043699E+02  0.46705618773E+01 -0.37915784898E+02  0.43074261665E+02  0.41800000000E+01 0. -1.
         -5    1    1    2    0  502 -0.15609084853E+03 -0.25823264611E+02 -0.77665366198E+02  0.17629683916E+03  0.41800000000E+01 0. -1.
        -11    1    3    3    0    0  0.14881600184E+02  0.16867115062E+02  0.77251363540E+02  0.80459522515E+02  0.00000000000E+00 0.  1.
         11    1    3    3    0    0  0.12175420465E+03  0.42855876715E+01  0.63714510536E+02  0.13748451354E+03  0.00000000000E+00 0. -1.
</event>
<event>
 7    1  0.6988825E-006  0.6546892E+02  0.7561462E-02  0.1376216E+00
          1   -1    0    0  501    0  0.00000000000E+00  0.00000000000E+00  0.78341384170E+03  0.78341384170E+03  0.00000000000E+00 0. -1.
         -1   -1    0    0    0  501 -0.00000000000E+00 -0.00000000000E+00 -0.65459928196E+02  0.65459928196E+02  0.00000000000E+00 0.  1.
         23    2    1    2    0    0 -0.57483294212E+00 -0.18338924547E+02 -0.26974940804E+02  0.95638872787E+02  0.89902725043E+02 0.  0.
          5    1    1    2  502    0  0.51551707351E+01 -0.92164249534E+01  0.70047536035E+03  0.70056742797E+03  0.41800000000E+01 0. -1.
         -5    1    1    2    0  502 -0.45803377930E+01  0.27555349500E+02  0.44453493952E+02  0.52667469134E+02  0.41800000000E+01 0.  1.
        -11    1    3    3    0    0  0.19756157352E+02  0.31684306184E+02 -0.15543927585E+02  0.40445206100E+02  0.00000000000E+00 0. -1.
         11    1    3    3    0    0 -0.20330990294E+02 -0.50023230731E+02 -0.11431013219E+02  0.55193666687E+02  0.00000000000E+00 0.  1.
</event>
<event>
 7    1  0.6988825E-006  0.1131607E+03  0.7561462E-02  0.1254826E+00
          2   -1    0    0  501    0  0.00000000000E+00  0.00000000000E+00  0.12902128815E+03  0.12902128815E+03  0.00000000000E+00 0. -1.
         -2   -1    0    0    0  501 -0.00000000000E+00 -0.00000000000E+00 -0.11548729429E+03  0.11548729429E+03  0.00000000000E+00 0.  1.
         23    2    1    2    0    0 -0.17850341058E+02 -0.47815643484E+02 -0.12069806080E+02  0.10700155251E+03  0.93266722811E+02 0.  0.
          5    1    1    2  502    0  0.79751162795E+01 -0.42709439139E+02  0.12568131404E+02  0.45421679826E+02  0.41800000000E+01 0. -1.
         -5    1    1    2    0  502  0.98752247788E+01  0.90525082623E+02  0.13035668542E+02  0.92085350098E+02  0.41800000000E+01 0. -1.
        -11    1    3    3    0    0  0.23588288291E+02 -0.43970994292E+02  0.20710000847E+02  0.54025547833E+02  0.00000000000E+00 0. -1.
         11    1    3    3    0    0 -0.41438629350E+02 -0.38446491917E+01 -0.32779806927E+02  0.52976004681E+02  0.00000000000E+00 0.  1.
</event>
<event>
 7    1  0.6988825E-006  0.1188246E+03  0.7561462E-02  0.1245049E+00
         -1   -1    0    0    0  501 -0.00000000000E+00  0.00000000000E+00  0.13838023682E+03  0.13838023682E+03  0.00000000000E+00 0.  1.
          1   -1    0    0  501    0  0.00000000000E+00 -0.00000000000E+00 -0.12140582837E+03  0.12140582837E+03  0.00000000000E+00 0. -1.
         23    2    1    2    0    0  0.32967906879E+02  0.55091017777E+02  0.26657997165E+02  0.11884649821E+03  0.96394700064E+02 0.  0.
          5    1    1    2  502    0 -0.23864321848E+02 -0.95076012129E+02 -0.15429967789E+02  0.99320240866E+02  0.41800000000E+01 0.  1.
         -5    1    1    2    0  502 -0.91035850308E+01  0.39984994352E+02  0.57463790639E+01  0.41619326113E+02  0.41800000000E+01 0.  1.
        -11    1    3    3    0    0  0.39353879471E+02 -0.33769200886E+01 -0.19529702120E+02  0.44062917329E+02  0.00000000000E+00 0.  1.
         11    1    3    3    0    0 -0.63859725918E+01  0.58467937866E+02  0.46187699285E+02  0.74783580882E+02  0.00000000000E+00 0. -1.
</event>
<event>
 7    1  0.6988825E-006  0.1150281E+03  0.7561462E-02  0.1251532E+00
         -1   -1    0    0    0  501 -0.00000000000E+00  0.00000000000E+00  0.40231360300E+02  0.40231360300E+02  0.00000000000E+00 0.  1.
          1   -1    0    0  501    0  0.00000000000E+00 -0.00000000000E+00 -0.43973959776E+03  0.43973959776E+03  0.00000000000E+00 0. -1.
         23    2    1    2    0    0  0.66882089500E+02  0.28187180534E+01 -0.10317566316E+03  0.15142633422E+03  0.88337750487E+02 0.  0.
          5    1    1    2  502    0 -0.14734621715E+02  0.47239385594E+02 -0.21036782154E+03  0.21614985859E+03  0.41800000000E+01 0. -1.
         -5    1    1    2    0  502 -0.52147467785E+02 -0.50058103648E+02 -0.85964752759E+02  0.11239476524E+03  0.41800000000E+01 0. -1.
        -11    1    3    3    0    0  0.19881730475E+02  0.42214697288E+02 -0.28038076971E+02  0.54438016441E+02  0.00000000000E+00 0.  1.
         11    1    3    3    0    0  0.47000359025E+02 -0.39395979235E+02 -0.75137586185E+02  0.96988317782E+02  0.00000000000E+00 0. -1.
</event>
<event>
 7    1  0.6988825E-006  0.1413372E+03  0.7561462E-02  0.1211541E+00
          3   -1    0    0  501    0  0.00000000000E+00  0.00000000000E+00  0.24020533852E+03  0.24020533852E+03  0.00000000000E+00 0. -1.
         -3   -1    0    0    0  501 -0.00000000000E+00 -0.00000000000E+00 -0.12003922281E+03  0.12003922281E+03  0.00000000000E+00 0.  1.
         23    2    1    2    0    0 -0.10586716061E+03  0.68632666366E+02  0.23734981796E+02  0.15809472492E+03  0.92262094593E+02 0.  0.
          5    1    1    2  502    0  0.10251440012E+03 -0.88750126366E+02  0.11218983963E+03  0.17603925607E+03  0.41800000000E+01 0. -1.
         -5    1    1    2    0  502  0.33527604928E+01  0.20117460000E+02 -0.15758705720E+02  0.26110580341E+02  0.41800000000E+01 0. -1.
        -11    1    3    3    0    0 -0.37944169206E+02  0.23054000330E+02  0.54859714768E+02  0.70575032500E+02  0.00000000000E+00 0. -1.
         11    1    3    3    0    0 -0.67922991406E+02  0.45578666036E+02 -0.31124732971E+02  0.87519692423E+02  0.00000000000E+00 0.  1.
</event>
<event>
 7    1  0.6988825E-006  0.1292557E+03  0.7561462E-02  0.1228564E+00
          2   -1    0    0  501    0  0.00000000000E+00  0.00000000000E+00  0.13384393250E+04  0.13384393250E+04  0.00000000000E+00 0. -1.
         -2   -1    0    0    0  501 -0.00000000000E+00 -0.00000000000E+00 -0.18597470645E+02  0.18597470645E+02  0.00000000000E+00 0.  1.
         23    2    1    2    0    0 -0.24716591003E+02  0.10655895428E+03  0.32054449124E+03  0.34401858148E+03  0.60285097078E+02 0.  0.
          5    1    1    2  502    0  0.15569350017E+02  0.14166034300E+02  0.45042219301E+03  0.45093314975E+03  0.41800000000E+01 0. -1.
         -5    1    1    2    0  502  0.91472409869E+01 -0.12072498858E+03  0.54887517008E+03  0.56208506439E+03  0.41800000000E+01 0. -1.
        -11    1    3    3    0    0  0.10423851416E+02  0.22382136923E+02  0.26812497084E+02  0.36448960636E+02  0.00000000000E+00 0.  1.
         11    1    3    3    0    0 -0.35140442420E+02  0.84176817353E+02  0.29373199416E+03  0.30756962084E+03  0.00000000000E+00 0. -1.
</event>
<event>
 7    1  0.6988825E-006  0.6509465E+02  0.7561462E-02  0.1377616E+00
          3   -1    0    0  501    0  0.00000000000E+00  0.00000000000E+00  0.14156663122E+03  0.14156663122E+03  0.00000000000E+00 0. -1.
         -3   -1    0    0    0  501 -0.00000000000E+00 -0.00000000000E+00 -0.93690311204E+02  0.93690311204E+02  0.00000000000E+00 0.  1.
         23    2    1    2    0    0  0.33017809355E+02  0.19107393620E+02  0.56048556174E+01  0.97811630949E+02  0.89891226028E+02 0.  0.
          5    1    1    2  502    0 -0.12409879630E+02  0.17774913707E+02 -0.39533002454E+02  0.45280054690E+02  0.41800000000E+01 0.  1.
         -5    1    1    2    0  502 -0.20607929725E+02 -0.36882307326E+02  0.81804466857E+02  0.92165256789E+02  0.41800000000E+01 0.  1.
        -11    1    3    3    0    0  0.26954734762E+00 -0.16947033485E+02 -0.32043873405E+02  0.36250302378E+02  0.00000000000E+00 0.  1.
         11    1    3    3    0    0  0.32748262007E+02  0.36054427105E+02  0.37648729022E+02  0.61561328571E+02  0.00000000000E+00 0. -1.
</event>
<event>
 7    1  0.6988825E-006  0.3237186E+03  0.7561462E-02  0.1073951E+00
          2   -1    0    0  501    0  0.00000000000E+00  0.00000000000E+00  0.24801615418E+04  0.24801615418E+04  0.00000000000E+00 0.  1.
         -2   -1    0    0    0  501 -0.00000000000E+00 -0.00000000000E+00 -0.55025040774E+02  0.55025040774E+02  0.00000000000E+00 0. -1.
         23    2    1    2    0    0 -0.22981299796E+03 -0.20955694096E+03  0.62598580292E+03  0.70506987293E+03  0.92396832853E+02 0.  0.
          5    1    1    2  502    0  0.15275052884E+03  0.79663054115E+02  0.11949046986E+04  0.12072670116E+04  0.41800000000E+01 0. -1.
         -5    1    1    2    0  502  0.77062469122E+02  0.12989388685E+03  0.60424599958E+03  0.62284969808E+03  0.41800000000E+01 0. -1.
        -11    1    3    3    0    0 -0.95271401018E+02 -0.30470486400E+02  0.21025665689E+03  0.23283675002E+03  0.00000000000E+00 0.  1.
         11    1    3    3    0    0 -0.13454159694E+03 -0.17908645456E+03  0.41572914602E+03  0.47223312290E+03  0.00000000000E+00 0. -1.
</event>
<event>
 7    1  0.6988825E-006  0.1106402E+03  0.7561462E-02  0.1259389E+00
          2   -1    0    0  501    0  0.00000000000E+00  0.00000000000E+00  0.53037429796E+02  0.53037429796E+02  0.00000000000E+00 0. -1.
         -2   -1    0    0    0  501 -0.00000000000E+00 -0.00000000000E+00 -0.27204980220E+03  0.27204980220E+03  0.00000000000E+00 0.  1.
         23    2    1    2    0    0 -0.41722678933E+02  0.21054477916E+02 -0.11630369968E+03  0.15662445785E+03  0.93918034793E+02 0.  0.
          5    1    1    2  502    0 -0.34586925127E+01 -0.62970614560E+02 -0.81533211030E+02  0.10316199762E+03  0.41800000000E+01 0.  1.
         -5    1    1    2    0  502  0.45181371445E+02  0.41916136644E+02 -0.21175461689E+02  0.65300776524E+02  0.41800000000E+01 0.  1.
        -11    1    3    3    0    0 -0.36374289648E+02 -0.28656585707E+02 -0.87305361639E+02  0.98825679976E+02  0.00000000000E+00 0.  1.
         11    1    3    3    0    0 -0.53483892848E+01  0.49711063623E+02 -0.28998338042E+02  0.57798777873E+02  0.00000000000E+00 0. -1.
</event>
<event>
 7    1  0.6988825E-006  0.1372961E+03  0.7561462E-02  0.1217014E+00
         -1   -1    0    0    0  501 -0.00000000000E+00  0.00000000000E+00  0.63344541695E+02  0.63344541695E+02  0.00000000000E+00 0.  1.
          1   -1    0    0  501    0  0.00000000000E+00 -0.00000000000E+00 -0.37503688035E+03  0.37503688035E+03  0.00000000000E+00 0. -1.
         23    2    1    2    0    0 -0.29667441652E+01 -0.92319345101E+02 -0.60201982944E+02  0.14270145324E+03  0.90596704996E+02 0.  0.
          5    1    1    2  502    0 -0.57277335576E+01  0.11785896330E+03 -0.23697403328E+03  0.26475971562E+03  0.41800000000E+01 0.  1.
         -5    1    1    2    0  502  0.86944777227E+01 -0.25539618197E+02 -0.14516322428E+02  0.30920253190E+02  0.41800000000E+01 0.  1.
        -11    1    3    3    0    0  0.10724754792E+02  0.16425048321E+02 -0.11753147369E+02  0.22867860651E+02  0.00000000000E+00 0.  1.
         11    1    3    3    0    0 -0.13691498957E+02 -0.10874439342E+03 -0.48448835576E+02  0.11983359259E+03  0.00000000000E+00 0. -1.
</event>
<event>
 7    1  0.6988825E-006  0.1107343E+03  0.7561462E-02  0.1259216E+00
          2   -1    0    0  501    0  0.00000000000E+00  0.00000000000E+00  0.11551160728E+04  0.11551160728E+04  0.00000000000E+00 0. -1.
         -2   -1    0    0    0  501 -0.00000000000E+00 -0.00000000000E+00 -0.26102292839E+02  0.26102292839E+02  0.00000000000E+00 0.  1.
         23    2    1    2    0    0  0.81374385675E+01  0.86337811239E+02  0.17750996593E+03  0.21761821446E+03  0.91254937985E+02 0.  0.
          5    1    1    2  502    0  0.10380142093E+02 -0.74426719228E+02  0.23525798896E+03  0.24700380089E+03  0.41800000000E+01 0.  1.
         -5    1    1    2    0  502 -0.18517580661E+02 -0.11911092011E+02  0.71624582511E+03  0.71659635033E+03  0.41800000000E+01 0.  1.
        -11    1    3    3    0    0 -0.21035587819E+02 -0.98880325560E+01  0.50755232035E+02  0.55824391817E+02  0.00000000000E+00 0. -1.
         11    1    3    3    0    0  0.29173026386E+02  0.96225843795E+02  0.12675473389E+03  0.16179382265E+03  0.00000000000E+00 0.  1.
</event>
<event>
 7    1  0.6988825E-006  0.1185868E+03  0.7561462E-02  0.1245447E+00
         -2   -1    0    0    0  501 -0.00000000000E+00  0.00000000000E+00  0.38702153242E+02  0.38702153242E+02  0.00000000000E+00 0.  1.
          2   -1    0    0  501    0  0.00000000000E+00 -0.00000000000E+00 -0.51670038607E+03  0.51670038607E+03  0.00000000000E+00 0. -1.
         23    2    1    2    0    0 -0.38362474203E+02  0.42757959745E+02 -0.82905748430E+02  0.13702628948E+03  0.92751918236E+02 0.  0.
          5    1    1    2  502    0 -0.38577649623E+02  0.22707142299E+01 -0.20133818901E+03  0.20505591908E+03  0.41800000000E+01 0.  1.
         -5    1    1    2    0  502  0.76940123825E+02 -0.45028673974E+02 -0.19375429538E+03  0.21332033075E+03  0.41800000000E+01 0.  1.
        -11    1    3    3    0    0 -0.65243985847E+02  0.89341395714E+01 -0.51922227939E+02  0.83860087606E+02  0.00000000000E+00 0.  1.
         11    1    3    3    0    0  0.26881511644E+02  0.33823820173E+02 -0.30983520491E+02  0.53166201871E+02  0.00000000000E+00 0. -1.
</event>
<event>
 6    1  0.6988825E-006  0.1509687E+03  0.7561462E-02  0.1199288E+00
          1   -1    0    0  501    0  0.00000000000E+00  0.00000000000E+00  0.99052740258E+03  0.99052740258E+03  0.00000000000E+00 0. -1.
         -1   -1    0    0    0  501 -0.00000000000E+00 -0.00000000000E+00 -0.23433817660E+02  0.23433817660E+02  0.00000000000E+00 0.  1.
          5    1    1    2  502    0  0.49011169025E+02 -0.28631756717E+01  0.19299522702E+03  0.19918564837E+03  0.41800000000E+01 0.  1.
         -5    1    1    2    0  502 -0.72046108844E+02  0.43045389292E+02  0.30153409951E+03  0.31302369384E+03  0.41800000000E+01 0.  1.
        -11    1    1    2    0    0  0.88994899676E+02 -0.49794857511E+02  0.28627656410E+03  0.30389783013E+03  0.00000000000E+00 0.  1.
         11    1    1    2    0    0 -0.65959959857E+02  0.96126438907E+01  0.18628769429E+03  0.19785404790E+03  0.00000000000E+00 0. -1.
</event>
<event>
 7    1  0.6988825E-006  0.6757977E+02  0.7561462E-02  0.1368522E+00
         -2   -1    0    0    0  501 -0.00000000000E+00  0.00000000000E+00  0.11867907140E+03  0.11867907140E+03  0.00000000000E+00 0.  1.
          2   -1    0    0  501    0  0.00000000000E+00 -0.00000000000E+00 -0.52190895365E+03  0.52190895365E+03  0.00000000000E+00 0. -1.
         23    2    1    2    0    0 -0.25871486249E+01  0.37529971506E+02  0.86604053031E+02  0.13363686746E+03  0.94569330352E+02 0.  0.
          5    1    1    2  502    0  0.21967712592E+01 -0.49934105342E+01  0.65442953599E+01  0.94900028706E+01  0.41800000000E+01 0. -1.
         -5    1    1    2    0  502  0.39037736576E+00 -0.32536560972E+02 -0.49637823064E+03  0.49746115472E+03  0.41800000000E+01 0. -1.
        -11    1    3    3    0    0 -0.95760603806E+01 -0.27993205207E+02  0.71951209864E+01  0.30448156532E+02  0.00000000000E+00 0.  1.
         11    1    3    3    0    0  0.69889117556E+01  0.65523176713E+02  0.79408932045E+02  0.10318871093E+03  0.00000000000E+00 0. -1.
</event>
<event>
 7    1  0.6988825E-006  0.7236952E+02  0.7561462E-02  0.1352216E+00
         -1   -1    0    0    0  501 -0.00000000000E+00  0.00000000000E+00  0.12883296356E+03  0.12883296356E+03  0.00000000000E+00 0.  1.
          1   -1    0    0  501    0  0.00000000000E+00 -0.00000000000E+00 -0.19470796899E+03  0.19470796899E+03  0.00000000000E+00 0. -1.
         23    2    1    2    0    0  0.17599987966E+02  0.36941243701E+02  0.85524118894E+02  0.13129053825E+03  0.90820787596E+02 0.  0.
          5    1    1    2  502    0  0.12841739693E+01  0.15524802745E+02 -0.13212271766E+03  0.13310354437E+03  0.41800000000E+01 0. -1.
         -5    1    1    2    0  502 -0.18884161935E+02 -0.52466046446E+02 -0.19276406674E+02  0.59146849925E+02  0.41800000000E+01 0.  1.
        -11    1    3    3    0    0  0.30252504609E+02  0.47430787110E+02  0.14096678801E+02  0.57996637438E+02  0.00000000000E+00 0.  1.
         11    1    3    3    0    0 -0.12652516643E+02 -0.10489543409E+02  0.71427440093E+02  0.73293900814E+02  0.00000000000E+00 0. -1.
</event>
<event>
 7    1  0.6988825E-006  0.1238469E+03  0.7561462E-02  0.1236883E+00
         -1   -1    0    0    0  501 -0.00000000000E+00  0.00000000000E+00  0.12460439695E+03  0.12460439695E+03  0.00000000000E+00 0.  1.
          1   -1    0    0  501    0  0.00000000000E+00 -0.00000000000E+00 -0.22291716298E+03  0.22291716298E+03  0.00000000000E+00 0. -1.
         23    2    1    2    0    0  0.29440181666E+02 -0.71823504545E+02  0.58532264664E+02  0.13240991828E+03  0.89894495664E+02 0.  0.
          5    1    1    2  502    0  0.15688959149E+02  0.94143391386E+02 -0.89365279971E+02  0.13081569954E+03  0.41800000000E+01 0. -1.
         -5    1    1    2    0  502 -0.45129140816E+02 -0.22319886841E+02 -0.67479750721E+02  0.84295942113E+02  0.41800000000E+01 0. -1.
        -11    1    3    3    0    0 -0.21154897976E+02 -0.18081083135E+02  0.51149959622E+02  0.58230349862E+02  0.00000000000E+00 0. -1.
         11    1    3    3    0    0  0.50595079642E+02 -0.53742421411E+02  0.73823050412E+01  0.74179568419E+02  0.00000000000E+00 0.  1.
</event>
<event>
 7    1  0.6988825E-006  0.1090448E+03  0.7561462E-02  0.1262349E+00
         -3   -1    0    0    0  501 -0.00000000000E+00  0.00000000000E+00  0.49104886793E+02  0.49104886793E+02  0.00000000000E+00 0.  1.
          3   -1    0    0  501    0  0.00000000000E+00 -0.00000000000E+00 -0.36222177034E+03  0.36222177034E+03  0.00000000000E+00 0. -1.
         23    2    1    2    0    0  0.33695315717E+02  0.66453638368E+02 -0.11672563215E+03  0.16685128591E+03  0.93075335373E+02 0.  0.
          5    1    1    2  502    0  0.20989885696E+02 -0.19719193664E+02 -0.16207193905E+03  0.16466392358E+03  0.41800000000E+01 0. -1.
         -5    1    1    2    0  502 -0.54685201412E+02 -0.46734444704E+02 -0.34319312342E+02  0.79811447643E+02  0.41800000000E+01 0. -1.
        -11    1    3    3    0    0  0.29585232611E+02 -0.16501079117E+02 -0.19920222453E+02  0.39298687805E+02  0.00000000000E+00 0.  1.
         11    1    3    3    0    0  0.41100831062E+01  0.82954717485E+02 -0.96805409699E+02  0.12755259810E+03  0.00000000000E+00 0. -1.
</event>
<event>
 7    1  0.6988825E-006  0.1052343E+03  0.7561462E-02  0.1269659E+00
         -1   -1    0    0    0  501 -0.00000000000E+00  0.00000000000E+00  0.19174023000E+02  0.19174023000E+02  0.00000000000E+00 0.  1.
          1   -1    0    0  501    0  0.00000000000E+00 -0.00000000000E+00 -0.10671699883E+04  0.10671699883E+04  0.00000000000E+00 0. -1.
         23    2    1    2    0    0 -0.55590919952E+02  0.37382179535E+02 -0.23708501582E+03  0.26311156626E+03  0.92361322231E+02 0.  0.
          5    1    1    2  502    0  0.89415956773E+02 -0.95856742390E+01 -0.65774565743E+03  0.66387794115E+03  0.41800000000E+01 0.  1.
         -5    1    1    2    0  502 -0.33825036821E+02 -0.27796505296E+02 -0.15316529208E+03  0.15935450392E+03  0.41800000000E+01 0.  1.
        -11    1    3    3    0    0 -0.24212008608E+02 -0.39886417384E+01 -0.46851672107E+01  0.24981621556E+02  0.00000000000E+00 0.  1.
         11    1    3    3    0    0 -0.31378911343E+02  0.41370821273E+02 -0.23239984861E+03  0.23812994470E+03  0.00000000000E+00 0. -1.
</event>
<event>
 7    1  0.6988825E-006  0.1169149E+03  0.7561462E-02  0.1248275E+00
         -1   -1    0    0    0  501 -0.00000000000E+00  0.00000000000E+00  0.47655579547E+02  0.47655579547E+02  0.00000000000E+00 0.  1.
          1   -1    0    0  501    0  0.00000000000E+00 -0.00000000000E+00 -0.39662965401E+03  0.39662965401E+03  0.00000000000E+00 0. -1.
         23    2    1    2    0    0 -0.55971426552E+02  0.27205584367E+01 -0.55592851764E+02  0.12046463589E+03  0.90999787391E+02 0.  0.
          5    1    1    2  502    0  0.86013446742E+02  0.20784075457E+02 -0.13969260774E+03  0.16541398934E+03  0.41800000000E+01 0.  1.
         -5    1    1    2    0  502 -0.30042020190E+02 -0.23504633893E+02 -0.15368861496E+03  0.15840660833E+03  0.41800000000E+01 0.  1.
        -11    1    3    3    0    0 -0.42953259193E+02 -0.42131309317E+02 -0.31171533081E+02  0.67762040810E+02  0.00000000000E+00 0. -1.
         11    1    3    3    0    0 -0.13018167359E+02  0.44851867754E+02 -0.24421318683E+02  0.52702595084E+02  0.00000000000E+00 0.  1.
</event>
<event>
 7    1  0.6988825E-006  0.1793981E+03  0.7561462E-02  0.1168387E+00
          2   -1    0    0  501    0  0.00000000000E+00  0.00000000000E+00  0.21082804514E+03  0.21082804514E+03  0.00000000000E+00 0. -1.
         -2   -1    0    0    0  501 -0.00000000000E+00 -0.00000000000E+00 -0.18470107450E+03  0.18470107450E+03  0.00000000000E+00 0.  1.
         23    2    1    2    0    0 -0.16019685112E+03 -0.40051011761E+02  0.19158630024E+02  0.18825186742E+03  0.88343634931E+02 0.  0.
          5    1    1    2  502    0  0.13735369223E+03 -0.10294386338E+02 -0.29488059143E+02  0.14092206779E+03  0.41800000000E+01 0.  1.
         -5    1    1    2    0  502  0.22843158891E+02  0.50345398099E+02  0.36456399756E+02  0.66355184432E+02  0.41800000000E+01 0.  1.
        -11    1    3    3    0    0 -0.32151017695E+02 -0.12993140230E+02  0.42983342776E+02  0.55227505720E+02  0.00000000000E+00 0. -1.
         11    1    3    3    0    0 -0.12804583342E+03 -0.27057871531E+02 -0.23824712752E+02  0.13302436170E+03  0.00000000000E+00 0.  1.
</event>
<event>
 7    1  0.6988825E-006  0.2655052E+03  0.7561462E-02  0.1103880E+00
         -2   -1    0    0    0  501 -0.00000000000E+00  0.00000000000E+00  0.51260858332E+03  0.51260858332E+03  0.00000000000E+00 0.  1.
          2   -1    0    0  501    0  0.00000000000E+00 -0.00000000000E+00 -0.19327614784E+03  0.19327614784E+03  0.00000000000E+00 0. -1.
         23    2    1    2    0    0 -0.23233604548E+03 -0.10875708359E+03  0.32007678961E+03  0.42048626683E+03  0.92473823785E+02 0.  0.
          5    1    1    2  502    0  0.10199627432E+03  0.98367285932E+02  0.41862263853E+02  0.14781503459E+03  0.41800000000E+01 0.  1.
         -5    1    1    2    0  502  0.13033977117E+03  0.10389797661E+02 -0.42606617974E+02  0.13758342974E+03  0.41800000000E+01 0.  1.
        -11    1    3    3    0    0 -0.67877373686E+02 -0.16481286535E+02  0.15441176093E+03  0.16947555156E+03  0.00000000000E+00 0. -1.
         11    1    3    3    0    0 -0.16445867180E+03 -0.92275797058E+02  0.16566502868E+03  0.25101071527E+03  0.00000000000E+00 0.  1.
</event>
<event>
 7    1  0.6988825E-006  0.2158707E+03  0.7561462E-02  0.1137000E+00
          2   -1    0    0  501    0  0.00000000000E+00  0.00000000000E+00  0.13593564676E+04  0.13593564676E+04  0.00000000000E+00 0. -1.
         -2   -1    0    0    0  501 -0.00000000000E+00 -0.00000000000E+00 -0.65736257123E+02  0.65736257123E+02  0.00000000000E+00 0.  1.
         23    2    1    2    0    0 -0.11348168916E+03  0.16992396800E+03  0.18502611527E+03  0.29091576956E+03  0.92978884530E+02 0.  0.
          5    1    1    2  502    0 -0.44202902799E+01 -0.23089393184E+02  0.40818504465E+03  0.40888282199E+03  0.41800000000E+01 0. -1.
         -5    1    1    2    0  502  0.11790197944E+03 -0.14683457482E+03  0.70040905055E+03  0.72529413317E+03  0.41800000000E+01 0. -1.
        -11    1    3    3    0    0  0.89025809443E+01  0.40155550287E+02  0.13082273132E+02  0.43160978170E+02  0.00000000000E+00 0.  1.
         11    1    3    3    0    0 -0.12238427010E+03  0.12976841771E+03  0.17194384214E+03  0.24775479139E+03  0.00000000000E+00 0. -1.
</event>
<event>
 7    1  0.6988825E-006  0.1113670E+03  0.7561462E-02  0.1258059E+00
         -1   -1    0    0    0  501 -0.00000000000E+00  0.00000000000E+00  0.21336152751E+02  0.21336152751E+02  0.00000000000E+00 0.  1.
          1   -1    0    0  501    0  0.00000000000E+00 -0.00000000000E+00 -0.11003085223E+04  0.11003085223E+04  0.00000000000E+00 0. -1.
         23    2    1    2    0    0 -0.33698221391E+02 -0.92364043970E+02 -0.33183495308E+03  0.35775435510E+03  0.90592801926E+02 0.  0.
          5    1    1    2  502    0  0.31648092837E+02  0.73197750911E+01 -0.52443602454E+03  0.52545770250E+03  0.41800000000E+01 0.  1.
         -5    1    1    2    0  502  0.20501285544E+01  0.85044268879E+02 -0.22270139192E+03  0.23843261744E+03  0.41800000000E+01 0.  1.
        -11    1    3    3    0    0  0.69376164942E+01 -0.26731150346E+02 -0.14552593480E+02  0.31216388299E+02  0.00000000000E+00 0.  1.
         11    1    3    3    0    0 -0.40635837885E+02 -0.65632893624E+02 -0.31728235960E+03  0.32653796680E+03  0.00000000000E+00 0. -1.
</event>
<event>
 7    1  0.6988825E-006  0.1114496E+03  0.7561462E-02  0.1257909E+00
         -2   -1    0    0    0  501 -0.00000000000E+00  0.00000000000E+00  0.10645045714E+03  0.10645045714E+03  0.00000000000E+00 0.  1.
          2   -1    0    0  501    0  0.00000000000E+00 -0.00000000000E+00 -0.19042997356E+03  0.19042997356E+03  0.00000000000E+00 0. -1.
         23    2    1    2    0    0 -0.52024311244E+02  0.49295604223E+02  0.20597983786E+02  0.11878175046E+03  0.92456702023E+02 0.  0.
          5    1    1    2  502    0  0.67743577648E+02 -0.13546099916E+02 -0.11782502295E+03  0.13664881108E+03  0.41800000000E+01 0.  1.
         -5    1    1    2    0  502 -0.15719266404E+02 -0.35749504307E+02  0.13247522751E+02  0.41449869162E+02  0.41800000000E+01 0.  1.
        -11    1    3    3    0    0 -0.62160450294E+02 -0.19329833227E+01  0.23492799112E+02  0.66479843678E+02  0.00000000000E+00 0.  1.
         11    1    3    3    0    0  0.10136139050E+02  0.51228587546E+02 -0.28948153266E+01  0.52301906777E+02  0.00000000000E+00 0. -1.
</event>
<event>
 7    1  0.6988825E-006  0.1929282E+03  0.7561462E-02  0.1155846E+00
         -1   -1    0    0    0  501 -0.00000000000E+00  0.00000000000E+00  0.10002697894E+03  0.10002697894E+03  0.00000000000E+00 0.  1.
          1   -1    0    0  501    0  0.00000000000E+00 -0.00000000000E+00 -0.60426862890E+03  0.60426862890E+03  0.00000000000E+00 0. -1.
         23    2    1    2    0    0  0.11560697640E+03 -0.14847144363E+03 -0.77554255415E+02  0.22147341146E+03  0.87333080146E+02 0.  0.
          5    1    1    2  502    0 -0.95426310202E+02  0.78981342726E+02 -0.37176785383E+03  0.39188396589E+03  0.41800000000E+01 0. -1.
         -5    1    1    2    0  502 -0.20180666193E+02  0.69490100900E+02 -0.54919540717E+02  0.90938230485E+02  0.41800000000E+01 0. -1.
        -11    1    3    3    0    0  0.10051791108E+03 -0.11513227477E+03 -0.21229933154E+02  0.15430489689E+03  0.00000000000E+00 0.  1.
         11    1    3    3    0    0  0.15089065316E+02 -0.33339168856E+02 -0.56324322260E+02  0.67168514575E+02  0.00000000000E+00 0. -1.
</event>
<event>
 7    1  0.6988825E-006  0.1203592E+03  0.7561462E-02  0.1242506E+00
          1   -1    0    0  501    0  0.00000000000E+00  0.00000000000E+00  0.21845169048E+03  0.21845169048E+03  0.00000000000E+00 0. -1.
         -1   -1    0    0    0  501 -0.00000000000E+00 -0.00000000000E+00 -0.82957789415E+02  0.82957789415E+02  0.00000000000E+00 0.  1.
         23    2    1    2    0    0 -0.16306055661E+02  0.71939118212E+02  0.29473975293E+02  0.12161339798E+03  0.92086802357E+02 0.  0.
          5    1    1    2  502    0 -0.30286645211E+02 -0.69831296242E+02  0.15369069780E+02  0.77764847578E+02  0.41800000000E+01 0. -1.
         -5    1    1    2    0  502  0.46592700872E+02 -0.21078219705E+01  0.90650855988E+02  0.10203123433E+03  0.41800000000E+01 0. -1.
        -11    1    3    3    0    0  0.16694133499E+02  0.81587863504E+02  0.16706363190E+02  0.84937483689E+02  0.00000000000E+00 0.  1.
         11    1    3    3    0    0 -0.33000189160E+02 -0.96487452912E+01  0.12767612103E+02  0.36675914292E+02  0.00000000000E+00 0. -1.
</event>
<event>
 7    1  0.6988825E-006  0.1061118E+03  0.7561462E-02  0.1267945E+00
          1   -1    0    0  501    0  0.00000000000E+00  0.00000000000E+00  0.72152515689E+03  0.72152515689E+03  0.00000000000E+00 0. -1.
         -1   -1    0    0    0  501 -0.00000000000E+00 -0.00000000000E+00 -0.42861924973E+02  0.42861924973E+02  0.00000000000E+00 0.  1.
         23    2    1    2    0    0  0.61348680091E+01 -0.18646264926E+02  0.16419165224E+02  0.90147074385E+02  0.86438337747E+02 0.  0.
          5    1    1    2  502    0 -0.49025089602E+02 -0.33064383020E+02  0.30336542758E+03  0.30910316706E+03  0.41800000000E+01 0. -1.
         -5    1    1    2    0  502  0.42890221593E+02  0.51710647945E+02  0.35887863911E+03  0.36513684042E+03  0.41800000000E+01 0. -1.
        -11    1    3    3    0    0 -0.70793035043E+01  0.32264620353E+02 -0.48986155521E+01  0.33393393044E+02  0.00000000000E+00 0. -1.
         11    1    3    3    0    0  0.13214171513E+02 -0.50910885279E+02  0.21317780776E+02  0.56753681342E+02  0.00000000000E+00 0.  1.
</event>
<event>
 7    1  0.6988825E-006  0.3417275E+03  0.7561462E-02  0.1066063E+00
          1   -1    0    0  501    0  0.00000000000E+00  0.00000000000E+00  0.50815771877E+03  0.50815771877E+03  0.00000000000E+00 0. -1.
         -1   -1    0    0    0  501 -0.00000000000E+00 -0.00000000000E+00 -0.25422211419E+03  0.25422211419E+03  0.00000000000E+00 0.  1.
         23    2    1    2    0    0 -0.21893363491E+03 -0.24835686909E+03  0.32483827249E+02  0.34488484626E+03  0.90979597882E+02 0.  0.
          5    1    1    2  502    0  0.15473002313E+03  0.88569132089E+02  0.14118632554E+03  0.22745751721E+03  0.41800000000E+01 0. -1.
         -5    1    1    2    0  502  0.64203611778E+02  0.15978773700E+03  0.80265451794E+02  0.19003746949E+03  0.41800000000E+01 0. -1.
        -11    1    3    3    0    0 -0.15529798680E+02 -0.33910601364E+02 -0.23469823154E+02  0.44067404403E+02  0.00000000000E+00 0.  1.
         11    1    3    3    0    0 -0.20340383623E+03 -0.21444626772E+03  0.55953650403E+02  0.30081744186E+03  0.00000000000E+00 0. -1.
</event>
<event>
 7    1  0.6988825E-006  0.1512912E+03  0.7561462E-02  0.1198895E+00
          1   -1    0    0  501    0  0.00000000000E+00  0.00000000000E+00  0.62201578173E+02  0.62201578173E+02  0.00000000000E+00 0. -1.
         -1   -1    0    0    0  501 -0.00000000000E+00 -0.00000000000E+00 -0.44588077247E+03  0.44588077247E+03  0.00000000000E+00 0.  1.
         23    2    1    2    0    0  0.69754919889E+02 -0.10472366787E+03 -0.17857336020E+03  0.23688608226E+03  0.91617550374E+02 0.  0.
          5    1    1    2  502    0 -0.11936488197E+02 -0.28373221980E+02 -0.25052477983E+02  0.39907624949E+02  0.41800000000E+01 0. -1.
         -5    1    1    2    0  502 -0.57818431692E+02  0.13309688985E+03 -0.18005335612E+03  0.23128864343E+03  0.41800000000E+01 0. -1.
        -11    1    3    3    0    0  0.30144468364E+02 -0.55549191327E+02 -0.20138946898E+02  0.66332336098E+02  0.00000000000E+00 0. -1.
         11    1    3    3    0    0  0.39610451525E+02 -0.49174476546E+02 -0.15843441330E+03  0.17055374617E+03  0.00000000000E+00 0.  1.
</event>
