<event>
 7    1  0.2601031E-009  0.9406454E+02  0.7561462E-02  0.1293297E+00
         -1   -1    0    0    0  501 -0.00000000000E+00  0.00000000000E+00  0.25215882001E+02  0.25215882001E+02  0.00000000000E+00 0. -1.
          1   -1    0    0  501    0  0.00000000000E+00 -0.00000000000E+00 -0.57549292740E+03  0.57549292740E+03  0.00000000000E+00 0.  1.
         25    2    1    2    0    0 -0.34492329516E+02 -0.41129653863E+02 -0.30063334173E+03  0.33001531433E+03  0.12509329443E+03 0.  0.
          5    1    3    3  502    0  0.24959034312E+02 -0.20545251417E+02 -0.24111503238E+03  0.24330842976E+03  0.41800000000E+01 0.  1.
         -5    1    3    3    0  502 -0.59451363829E+02 -0.20584402446E+02 -0.59518309343E+02  0.86706884572E+02  0.41800000000E+01 0.  1.
        -11    1    1    2    0    0  0.25847002541E+02 -0.18780165282E+02 -0.33746218904E+02  0.46471167821E+02  0.00000000000E+00 0. -1.
         11    1    1    2    0    0  0.86453269755E+01  0.59909819145E+02 -0.21589748477E+03  0.22422232725E+03  0.00000000000E+00 0.  1.
</event>
<event>
 7    1  0.2601031E-009  0.1587532E+03  0.7561462E-02  0.1190112E+00
         -2   -1    0    0    0  501 -0.00000000000E+00  0.00000000000E+00  0.21773327202E+03  0.21773327202E+03  0.00000000000E+00 0.  1.
          2   -1    0    0  501    0  0.00000000000E+00 -0.00000000000E+00 -0.12763525022E+03  0.12763525022E+03  0.00000000000E+00 0. -1.
         25    2    1    2    0    0 -0.10361283816E+03 -0.64815743585E+02  0.77968786806E+02  0.19147848463E+03  0.12509267570E+03 0.  0.
          5    1    3    3  502    0 -0.11747068699E+03 -0.15140992054E+02  0.73698331327E+02  0.13956191595E+03  0.41800000000E+01 0.  1.
         -5    1    3    3    0  502  0.13857848837E+02 -0.49674751530E+02  0.42704554793E+01  0.51916568684E+02  0.41800000000E+01 0.  1.
        -11    1    1    2    0    0  0.80388142294E+00  0.41912780550E+02  0.23316250920E+02  0.47968478773E+02  0.00000000000E+00 0.  1.
         11    1    1    2    0    0  0.10280895673E+03  0.22902963034E+02 -0.11187015933E+02  0.10592155883E+03  0.00000000000E+00 0. -1.
</event>
<event>
 7    1  0.2601031E-009  0.1102729E+03  0.7561462E-02  0.1260065E+00
          1   -1    0    0  501    0  0.00000000000E+00  0.00000000000E+00  0.31347844216E+03  0.31347844216E+03  0.00000000000E+00 0. -1.
         -1   -1    0    0    0  501 -0.00000000000E+00 -0.00000000000E+00 -0.61948658285E+02  0.61948658285E+02  0.00000000000E+00 0.  1.
         25    2    1    2    0    0  0.11366069612E+02  0.64389275431E+02  0.21392098209E+03  0.25628799832E+03  0.12508471201E+03 0.  0.
          5    1    3    3  502    0  0.47439463824E+01 -0.37528343228E+02  0.71274334493E+02  0.80798420344E+02  0.41800000000E+01 0. -1.
         -5    1    3    3    0  502  0.66221232299E+01  0.10191761866E+03  0.14264664760E+03  0.17548957798E+03  0.41800000000E+01 0. -1.
        -11    1    1    2    0    0 -0.24527792265E+02 -0.14109101570E+02  0.57022629929E+02  0.63657361433E+02  0.00000000000E+00 0. -1.
         11    1    1    2    0    0  0.13161722653E+02 -0.50280173861E+02 -0.19413828143E+02  0.55481740688E+02  0.00000000000E+00 0.  1.
</event>
<event>
 7    1  0.2601031E-009  0.1888291E+03  0.7561462E-02  0.1159522E+00
          1   -1    0    0  501    0  0.00000000000E+00  0.00000000000E+00  0.37726363051E+03  0.37726363051E+03  0.00000000000E+00 0. -1.
         -1   -1    0    0    0  501 -0.00000000000E+00 -0.00000000000E+00 -0.27699376092E+03  0.27699376092E+03  0.00000000000E+00 0.  1.
         25    2    1    2    0    0  0.16808462405E+03  0.46118427180E+02  0.30290530800E+03  0.37118563086E+03  0.12509115387E+03 0.  0.
          5    1    3    3  502    0  0.14119177802E+03  0.72465825344E+02  0.16834663993E+03  0.23139679686E+03  0.41800000000E+01 0. -1.
         -5    1    3    3    0  502  0.26892846030E+02 -0.26347398165E+02  0.13455866808E+03  0.13978883400E+03  0.41800000000E+01 0. -1.
        -11    1    1    2    0    0 -0.10618351518E+03 -0.53112484163E+02 -0.18227912300E+03  0.21753517774E+03  0.00000000000E+00 0.  1.
         11    1    1    2    0    0 -0.61901108865E+02  0.69940569826E+01 -0.20356315415E+02  0.65536582830E+02  0.00000000000E+00 0. -1.
</event>
<event>
 7    1  0.2601031E-009  0.1166716E+03  0.7561462E-02  0.1248691E+00
          1   -1    0    0  501    0  0.00000000000E+00  0.00000000000E+00  0.56064481459E+03  0.56064481459E+03  0.00000000000E+00 0. -1.
         -1   -1    0    0    0  501 -0.00000000000E+00 -0.00000000000E+00 -0.29429399835E+02  0.29429399835E+02  0.00000000000E+00 0.  1.
         25    2    1    2    0    0  0.68562828988E+02  0.22577108772E+02  0.29730347819E+03  0.33052711206E+03  0.12509287070E+03 0.  0.
          5    1    3    3  502    0 -0.10505915261E+02 -0.31030708748E+02  0.23573240252E+02  0.40576461118E+02  0.41800000000E+01 0. -1.
         -5    1    3    3    0  502  0.79068744250E+02  0.53607817520E+02  0.27373023794E+03  0.28995065094E+03  0.41800000000E+01 0. -1.
        -11    1    1    2    0    0  0.16449598179E+02 -0.85366093866E+01  0.89372669541E+02  0.91273966940E+02  0.00000000000E+00 0. -1.
         11    1    1    2    0    0 -0.85012427168E+02 -0.14040499386E+02  0.14453926702E+03  0.16827313543E+03  0.00000000000E+00 0.  1.
</event>
<event>
 7    1  0.2601031E-009  0.6095563E+02  0.7561462E-02  0.1393865E+00
         -2   -1    0    0    0  501 -0.00000000000E+00  0.00000000000E+00  0.11314555534E+02  0.11314555534E+02  0.00000000000E+00 0.  1.
          2   -1    0    0  501    0  0.00000000000E+00 -0.00000000000E+00 -0.11026248041E+04  0.11026248041E+04  0.00000000000E+00 0. -1.
         25    2    1    2    0    0 -0.67664127372E+01 -0.12937653203E+02 -0.73285847437E+03  0.74360116592E+03  0.12509189937E+03 0.  0.
          5    1    3    3  502    0 -0.11139910256E+01 -0.21069993803E+02 -0.73253068823E+03  0.73284641447E+03  0.41800000000E+01 0.  1.
         -5    1    3    3    0  502 -0.56524217117E+01  0.81323405998E+01 -0.32778614196E+00  0.10754751443E+02  0.41800000000E+01 0.  1.
        -11    1    1    2    0    0  0.41898800591E+02 -0.15272414762E+02 -0.12862533016E+03  0.13613681244E+03  0.00000000000E+00 0.  1.
         11    1    1    2    0    0 -0.35132387853E+02  0.28210067966E+02 -0.22982644400E+03  0.23420138123E+03  0.00000000000E+00 0. -1.
</event>
<event>
 7    1  0.2601031E-009  0.9376216E+02  0.7561462E-02  0.1293989E+00
          1   -1    0    0  501    0  0.00000000000E+00  0.00000000000E+00  0.52994774502E+03  0.52994774502E+03  0.00000000000E+00 0. -1.
         -1   -1    0    0    0  501 -0.00000000000E+00 -0.00000000000E+00 -0.25755040681E+02  0.25755040681E+02  0.00000000000E+00 0.  1.
         25    2    1    2    0    0 -0.81271704059E+01 -0.12069796944E+02  0.19020009021E+03  0.22811392529E+03  0.12509259649E+03 0.  0.
          5    1    3    3  502    0 -0.29795946073E+02 -0.53441659764E+02  0.46521023864E+02  0.76977187933E+02  0.41800000000E+01 0.  1.
         -5    1    3    3    0  502  0.21668775667E+02  0.41371862820E+02  0.14367906635E+03  0.15113673736E+03  0.41800000000E+01 0.  1.
        -11    1    1    2    0    0  0.33790660124E+02  0.32209815706E+02  0.26259582136E+03  0.26671304118E+03  0.00000000000E+00 0. -1.
         11    1    1    2    0    0 -0.25663489718E+02 -0.20140018763E+02  0.51396792758E+02  0.60875819223E+02  0.00000000000E+00 0.  1.
</event>
<event>
 7    1  0.2601031E-009  0.1316265E+03  0.7561462E-02  0.1225062E+00
          1   -1    0    0  501    0  0.00000000000E+00  0.00000000000E+00  0.28737202407E+03  0.28737202407E+03  0.00000000000E+00 0. -1.
         -1   -1    0    0    0  501 -0.00000000000E+00 -0.00000000000E+00 -0.63185118665E+02  0.63185118665E+02  0.00000000000E+00 0.  1.
         25    2    1    2    0    0  0.75651727192E+02 -0.13635595208E+02  0.88717590064E+02  0.17154052243E+03  0.12508487825E+03 0.  0.
          5    1    3    3  502    0  0.68291681906E+02 -0.65042437587E+02  0.51723902373E+02  0.10764342517E+03  0.41800000000E+01 0. -1.
         -5    1    3    3    0  502  0.73600452864E+01  0.51406842379E+02  0.36993687692E+02  0.63897097266E+02  0.41800000000E+01 0. -1.
        -11    1    1    2    0    0 -0.53153142016E+02 -0.34672189429E+02  0.67513092363E+02  0.92657621739E+02  0.00000000000E+00 0.  1.
         11    1    1    2    0    0 -0.22498585176E+02  0.48307784637E+02  0.67956222981E+02  0.86358998566E+02  0.00000000000E+00 0. -1.
</event>
<event>
 7    1  0.2601031E-009  0.8938336E+02  0.7561462E-02  0.1304352E+00
         -1   -1    0    0    0  501 -0.00000000000E+00  0.00000000000E+00  0.21203460600E+03  0.21203460600E+03  0.00000000000E+00 0. -1.
          1   -1    0    0  501    0  0.00000000000E+00 -0.00000000000E+00 -0.62714774812E+02  0.62714774812E+02  0.00000000000E+00 0.  1.
         25    2    1    2    0    0  0.76638016255E+01 -0.26711600711E+02  0.55115730960E+02  0.13948875357E+03  0.12508846911E+03 0.  0.
          5    1    3    3  502    0  0.17545936648E+02 -0.69926276429E+02  0.49090031991E+01  0.72381729328E+02  0.41800000000E+01 0.  1.
         -5    1    3    3    0  502 -0.98821350224E+01  0.43214675718E+02  0.50206727761E+02  0.67107024241E+02  0.41800000000E+01 0.  1.
        -11    1    1    2    0    0 -0.29571739664E+02  0.27103455499E+02  0.10384404771E+03  0.11132237570E+03  0.00000000000E+00 0. -1.
         11    1    1    2    0    0  0.21907938038E+02 -0.39185478833E+00 -0.96399474847E+01  0.23938251540E+02  0.00000000000E+00 0.  1.
</event>
<event>
 7    1  0.2601031E-009  0.1643517E+03  0.7561462E-02  0.1183870E+00
         -2   -1    0    0    0  501 -0.00000000000E+00  0.00000000000E+00  0.32190451284E+03  0.32190451284E+03  0.00000000000E+00 0.  1.
          2   -1    0    0  501    0  0.00000000000E+00 -0.00000000000E+00 -0.16055414509E+03  0.16055414509E+03  0.00000000000E+00 0. -1.
         25    2    1    2    0    0  0.55445460255E+02 -0.11906535243E+03  0.24245002762E+03  0.30278629085E+03  0.12508702900E+03 0.  0.
          5    1    3    3  502    0 -0.27357098673E+02 -0.88720367221E+02  0.13055522776E+03  0.16025559055E+03  0.41800000000E+01 0.  1.
         -5    1    3    3    0  502  0.82802558928E+02 -0.30344985209E+02  0.11189479986E+03  0.14253070030E+03  0.41800000000E+01 0.  1.
        -11    1    1    2    0    0 -0.33547260295E+02  0.12093549281E+03 -0.37728617620E+02  0.13105060352E+03  0.00000000000E+00 0.  1.
         11    1    1    2    0    0 -0.21898199961E+02 -0.18701403831E+01 -0.43371042241E+02  0.48621763559E+02  0.00000000000E+00 0. -1.
</event>
<event>
 7    1  0.2601031E-009  0.1377588E+03  0.7561462E-02  0.1216377E+00
         -2   -1    0    0    0  501 -0.00000000000E+00  0.00000000000E+00  0.11604438262E+03  0.11604438262E+03  0.00000000000E+00 0.  1.
          2   -1    0    0  501    0  0.00000000000E+00 -0.00000000000E+00 -0.17484787789E+03  0.17484787789E+03  0.00000000000E+00 0. -1.
         25    2    1    2    0    0  0.21742148774E+02  0.84190831684E+02 -0.58563316429E+02  0.16321026431E+03  0.12508841342E+03 0.  0.
          5    1    3    3  502    0 -0.14005093960E+02 -0.29409822650E+02 -0.17179230894E+02  0.37063171737E+02  0.41800000000E+01 0.  1.
         -5    1    3    3    0  502  0.35747242734E+02  0.11360065433E+03 -0.41384085535E+02  0.12614709257E+03  0.41800000000E+01 0.  1.
        -11    1    1    2    0    0  0.34308998787E+02 -0.32860155241E+02  0.15682303306E+02  0.50028310357E+02  0.00000000000E+00 0.  1.
         11    1    1    2    0    0 -0.56051147561E+02 -0.51330676442E+02 -0.15922482149E+02  0.77653685841E+02  0.00000000000E+00 0. -1.
</event>
<event>
 7    1  0.2601031E-009  0.8796556E+02  0.7561462E-02  0.1307855E+00
         -1   -1    0    0    0  501 -0.00000000000E+00  0.00000000000E+00  0.42182997572E+02  0.42182997572E+02  0.00000000000E+00 0.  1.
          1   -1    0    0  501    0  0.00000000000E+00 -0.00000000000E+00 -0.32853191922E+03  0.32853191922E+03  0.00000000000E+00 0. -1.
         25    2    1    2    0    0  0.32870493430E+02  0.20523660967E+02 -0.21353829299E+03  0.25049354323E+03  0.12508686035E+03 0.  0.
          5    1    3    3  502    0  0.27044990458E+02  0.72936242485E+02 -0.13301224297E+03  0.15414556808E+03  0.41800000000E+01 0.  1.
         -5    1    3    3    0  502  0.58255029724E+01 -0.52412581518E+02 -0.80526050014E+02  0.96347975158E+02  0.41800000000E+01 0.  1.
        -11    1    1    2    0    0 -0.75597173023E+01 -0.18205250704E+02  0.17526220227E+02  0.26377052040E+02  0.00000000000E+00 0.  1.
         11    1    1    2    0    0 -0.25310776128E+02 -0.23184102631E+01 -0.90336848886E+02  0.93844321517E+02  0.00000000000E+00 0. -1.
</event>
<event>
 7    1  0.2601031E-009  0.1043363E+03  0.7561462E-02  0.1271433E+00
         -2   -1    0    0    0  501 -0.00000000000E+00  0.00000000000E+00  0.53573647898E+02  0.53573647898E+02  0.00000000000E+00 0.  1.
          2   -1    0    0  501    0  0.00000000000E+00 -0.00000000000E+00 -0.23041948543E+03  0.23041948543E+03  0.00000000000E+00 0. -1.
         25    2    1    2    0    0  0.17946798136E+02  0.54492673850E+01 -0.94100527605E+02  0.15765406542E+03  0.12509241772E+03 0.  0.
          5    1    3    3  502    0  0.32057434979E+02  0.54277499243E+02 -0.17367417014E+02  0.65519658388E+02  0.41800000000E+01 0.  1.
         -5    1    3    3    0  502 -0.14110636844E+02 -0.48828231858E+02 -0.76733110592E+02  0.92134407035E+02  0.41800000000E+01 0.  1.
        -11    1    1    2    0    0 -0.49099941932E+02  0.21220340885E+02 -0.37809860284E+02  0.65503379299E+02  0.00000000000E+00 0.  1.
         11    1    1    2    0    0  0.31153143796E+02 -0.26669608270E+02 -0.44935449646E+02  0.60835688609E+02  0.00000000000E+00 0. -1.
</event>
<event>
 7    1  0.2601031E-009  0.1083520E+03  0.7561462E-02  0.1263653E+00
          3   -1    0    0  501    0  0.00000000000E+00  0.00000000000E+00  0.34309741399E+02  0.34309741399E+02  0.00000000000E+00 0. -1.
         -3   -1    0    0    0  501 -0.00000000000E+00 -0.00000000000E+00 -0.55170354445E+03  0.55170354445E+03  0.00000000000E+00 0.  1.
         25    2    1    2    0    0 -0.71479394838E+02 -0.39943579270E+02 -0.23267116227E+03  0.27656434050E+03  0.12508865366E+03 0.  0.
          5    1    3    3  502    0 -0.54618033102E+02  0.18060665564E+02 -0.29944002936E+02  0.64987944208E+02  0.41800000000E+01 0. -1.
         -5    1    3    3    0  502 -0.16861361736E+02 -0.58004244833E+02 -0.20272715933E+03  0.21157639629E+03  0.41800000000E+01 0. -1.
        -11    1    1    2    0    0  0.39245632848E+02 -0.86268891044E+01 -0.21427706732E+03  0.21801216593E+03  0.00000000000E+00 0.  1.
         11    1    1    2    0    0  0.32233761990E+02  0.48570468374E+02 -0.70445573468E+02  0.91436779423E+02  0.00000000000E+00 0. -1.
</event>
<event>
 7    1  0.2601031E-009  0.2209444E+03  0.7561462E-02  0.1133181E+00
         -1   -1    0    0    0  501 -0.00000000000E+00  0.00000000000E+00  0.38693938562E+02  0.38693938562E+02  0.00000000000E+00 0.  1.
          1   -1    0    0  501    0  0.00000000000E+00 -0.00000000000E+00 -0.18710252063E+04  0.18710252063E+04  0.00000000000E+00 0. -1.
         25    2    1    2    0    0 -0.17625126906E+03 -0.99535820489E+02 -0.14351141331E+04  0.14547069020E+04  0.12509079231E+03 0.  0.
          5    1    3    3  502    0 -0.16033139718E+03 -0.35703855455E+02 -0.83735367285E+03  0.85332266351E+03  0.41800000000E+01 0. -1.
         -5    1    3    3    0  502 -0.15919871875E+02 -0.63831965033E+02 -0.59776046022E+03  0.60138423847E+03  0.41800000000E+01 0. -1.
        -11    1    1    2    0    0  0.16373179153E+03  0.67206367863E+02 -0.26756536783E+03  0.32080527038E+03  0.00000000000E+00 0.  1.
         11    1    1    2    0    0  0.12519477525E+02  0.32329452626E+02 -0.12965176679E+03  0.13420697246E+03  0.00000000000E+00 0. -1.
</event>
<event>
 7    1  0.2601031E-009  0.1318345E+03  0.7561462E-02  0.1224759E+00
          2   -1    0    0  501    0  0.00000000000E+00  0.00000000000E+00  0.95236341244E+03  0.95236341244E+03  0.00000000000E+00 0. -1.
         -2   -1    0    0    0  501 -0.00000000000E+00 -0.00000000000E+00 -0.29433422251E+02  0.29433422251E+02  0.00000000000E+00 0.  1.
         25    2    1    2    0    0  0.10543384819E+03 -0.16303596186E+02  0.69174332764E+03  0.71101246917E+03  0.12509115231E+03 0.  0.
          5    1    3    3  502    0  0.79863892596E+02  0.34216467096E+02  0.23190122559E+03  0.24767853923E+03  0.41800000000E+01 0.  1.
         -5    1    3    3    0  502  0.25569955597E+02 -0.50520063281E+02  0.45984210205E+03  0.46333392995E+03  0.41800000000E+01 0.  1.
        -11    1    1    2    0    0 -0.66709985427E+01  0.19991698992E+02  0.19682062998E+01  0.21167051901E+02  0.00000000000E+00 0. -1.
         11    1    1    2    0    0 -0.98762849651E+02 -0.36881028068E+01  0.22921845625E+03  0.24961731362E+03  0.00000000000E+00 0.  1.
</event>
<event>
 7    1  0.2601031E-009  0.1227244E+03  0.7561462E-02  0.1238669E+00
          2   -1    0    0  501    0  0.00000000000E+00  0.00000000000E+00  0.12996900498E+03  0.12996900498E+03  0.00000000000E+00 0. -1.
         -2   -1    0    0    0  501 -0.00000000000E+00 -0.00000000000E+00 -0.13618190374E+03  0.13618190374E+03  0.00000000000E+00 0.  1.
         25    2    1    2    0    0 -0.17769270354E+01  0.69769441946E+02  0.36134938507E+02  0.14773240494E+03  0.12509275434E+03 0.  0.
          5    1    3    3  502    0  0.44423521223E+02 -0.13507654961E+02  0.26439605116E+01  0.46694420518E+02  0.41800000000E+01 0.  1.
         -5    1    3    3    0  502 -0.46200448258E+02  0.83277096908E+02  0.33490977995E+02  0.10103798442E+03  0.41800000000E+01 0.  1.
        -11    1    1    2    0    0  0.21460500198E+02  0.82857633012E+01  0.69407641791E+01  0.24028756722E+02  0.00000000000E+00 0.  1.
         11    1    1    2    0    0 -0.19683573163E+02 -0.78055205248E+02 -0.49288601443E+02  0.94389747065E+02  0.00000000000E+00 0. -1.
</event>
<event>
 7    1  0.2601031E-009  0.1095360E+03  0.7561462E-02  0.1261432E+00
          1   -1    0    0  501    0  0.00000000000E+00  0.00000000000E+00  0.89847488762E+03  0.89847488762E+03  0.00000000000E+00 0. -1.
         -1   -1    0    0    0  501 -0.00000000000E+00 -0.00000000000E+00 -0.15218241603E+02  0.15218241603E+02  0.00000000000E+00 0.  1.
         25    2    1    2    0    0  0.39905386876E+02  0.97722245347E+01  0.57395039084E+03  0.58885944996E+03  0.12509382234E+03 0.  0.
          5    1    3    3  502    0 -0.33992791455E+02 -0.29003487891E+02  0.26669679157E+03  0.27044659956E+03  0.41800000000E+01 0.  1.
         -5    1    3    3    0  502  0.73898178330E+02  0.38775712426E+02  0.30725359927E+03  0.31841285040E+03  0.41800000000E+01 0.  1.
        -11    1    1    2    0    0 -0.72236817012E+01  0.34700441332E+02  0.19134536376E+03  0.19460048930E+03  0.00000000000E+00 0. -1.
         11    1    1    2    0    0 -0.32681705175E+02 -0.44472665866E+02  0.11796089142E+03  0.13023318996E+03  0.00000000000E+00 0.  1.
</event>
<event>
 7    1  0.2601031E-009  0.1454380E+03  0.7561462E-02  0.1206194E+00
         -2   -1    0    0    0  501 -0.00000000000E+00  0.00000000000E+00  0.18560668284E+03  0.18560668284E+03  0.00000000000E+00 0.  1.
          2   -1    0    0  501    0  0.00000000000E+00 -0.00000000000E+00 -0.19225750305E+03  0.19225750305E+03  0.00000000000E+00 0. -1.
         25    2    1    2    0    0  0.96890536479E+02  0.48859728959E+02  0.10624030491E+03  0.19674769867E+03  0.12509038881E+03 0.  0.
          5    1    3    3  502    0  0.33293142105E+02 -0.33010567116E+02  0.74722715766E+02  0.88312442521E+02  0.41800000000E+01 0. -1.
         -5    1    3    3    0  502  0.63597394373E+02  0.81870296076E+02  0.31517589142E+02  0.10843525615E+03  0.41800000000E+01 0. -1.
        -11    1    1    2    0    0  0.16876997699E+02 -0.19369080915E+01 -0.57106433831E+01  0.17921944988E+02  0.00000000000E+00 0.  1.
         11    1    1    2    0    0 -0.11376753418E+03 -0.46922820868E+02 -0.10718048173E+03  0.16319454224E+03  0.00000000000E+00 0. -1.
</event>
<event>
 7    1  0.2601031E-009  0.2703500E+03  0.7561462E-02  0.1101079E+00
          1   -1    0    0  501    0  0.00000000000E+00  0.00000000000E+00  0.15061726885E+04  0.15061726885E+04  0.00000000000E+00 0. -1.
         -1   -1    0    0    0  501 -0.00000000000E+00 -0.00000000000E+00 -0.56963967330E+02  0.56963967330E+02  0.00000000000E+00 0.  1.
         25    2    1    2    0    0 -0.21651251032E+03 -0.14679926785E+03  0.54688144300E+03  0.61899414631E+03  0.12508696294E+03 0.  0.
          5    1    3    3  502    0 -0.13671862973E+03 -0.14441670981E+03  0.30397264358E+03  0.36326988622E+03  0.41800000000E+01 0. -1.
         -5    1    3    3    0  502 -0.79793880586E+02 -0.23825580423E+01  0.24290879942E+03  0.25572426009E+03  0.41800000000E+01 0. -1.
        -11    1    1    2    0    0  0.92207074566E+02  0.69558887572E+02  0.56095169369E+03  0.57271929083E+03  0.00000000000E+00 0. -1.
         11    1    1    2    0    0  0.12430543575E+03  0.77240380281E+02  0.34137558448E+03  0.37142321869E+03  0.00000000000E+00 0.  1.
</event>
<event>
 7    1  0.2601031E-009  0.7204405E+02  0.7561462E-02  0.1353277E+00
         -2   -1    0    0    0  501 -0.00000000000E+00  0.00000000000E+00  0.77716537152E+02  0.77716537152E+02  0.00000000000E+00 0. -1.
          2   -1    0    0  501    0  0.00000000000E+00 -0.00000000000E+00 -0.15166654892E+03  0.15166654892E+03  0.00000000000E+00 0.  1.
         25    2    1    2    0    0  0.19855273300E+01  0.12095192751E+01 -0.27540766213E+02  0.12811289750E+03  0.12509602491E+03 0.  0.
          5    1    3    3  502    0 -0.45401794995E+02 -0.32721123508E+02 -0.39295790739E+02  0.68510046578E+02  0.41800000000E+01 0. -1.
         -5    1    3    3    0  502  0.47387322325E+02  0.33930642783E+02  0.11755024526E+02  0.59602850925E+02  0.41800000000E+01 0. -1.
        -11    1    1    2    0    0 -0.15159155601E+02 -0.47657244228E+01 -0.71211096714E+02  0.72962541232E+02  0.00000000000E+00 0.  1.
         11    1    1    2    0    0  0.13173628271E+02  0.35562051477E+01  0.24801851158E+02  0.28307647337E+02  0.00000000000E+00 0. -1.
</event>
<event>
 7    1  0.2601031E-009  0.9985549E+02  0.7561462E-02  0.1280600E+00
          3   -1    0    0  501    0  0.00000000000E+00  0.00000000000E+00  0.28402821056E+02  0.28402821056E+02  0.00000000000E+00 0. -1.
         -3   -1    0    0    0  501 -0.00000000000E+00 -0.00000000000E+00 -0.81592180120E+03  0.81592180120E+03  0.00000000000E+00 0.  1.
         25    2    1    2    0    0  0.78922469974E+02 -0.13401207004E+01 -0.23314098731E+03  0.27610436891E+03  0.12509336665E+03 0.  0.
          5    1    3    3  502    0  0.35177982815E+02  0.52351348110E+01 -0.22865880054E+03  0.23144592581E+03  0.41800000000E+01 0. -1.
         -5    1    3    3    0  502  0.43744487159E+02 -0.65752555114E+01 -0.44821867656E+01  0.44658443099E+02  0.41800000000E+01 0. -1.
        -11    1    1    2    0    0 -0.83764074178E+02 -0.29077385029E+02 -0.47235457085E+03  0.48060457243E+03  0.00000000000E+00 0.  1.
         11    1    1    2    0    0  0.48416042031E+01  0.30417505729E+02 -0.82023421990E+02  0.87615680908E+02  0.00000000000E+00 0. -1.
</event>
<event>
 7    1  0.2601031E-009  0.1088314E+03  0.7561462E-02  0.1262749E+00
         -2   -1    0    0    0  501 -0.00000000000E+00  0.00000000000E+00  0.10973189310E+03  0.10973189310E+03  0.00000000000E+00 0.  1.
          2   -1    0    0  501    0  0.00000000000E+00 -0.00000000000E+00 -0.15022663881E+03  0.15022663881E+03  0.00000000000E+00 0. -1.
         25    2    1    2    0    0  0.55045841062E+02  0.38785292952E+02 -0.66141721286E+01  0.14221917467E+03  0.12509277678E+03 0.  0.
          5    1    3    3  502    0 -0.19079740049E+02 -0.20485653522E+02 -0.33142282235E+02  0.43584191541E+02  0.41800000000E+01 0. -1.
         -5    1    3    3    0  502  0.74125581111E+02  0.59270946474E+02  0.26528110106E+02  0.98634983129E+02  0.41800000000E+01 0. -1.
        -11    1    1    2    0    0 -0.23903603552E+02 -0.54472914859E+02  0.11419123563E+02  0.60572907301E+02  0.00000000000E+00 0.  1.
         11    1    1    2    0    0 -0.31142237511E+02  0.15687621907E+02 -0.45299697144E+02  0.57166449947E+02  0.00000000000E+00 0. -1.
</event>
<event>
 7    1  0.2601031E-009  0.7792712E+02  0.7561462E-02  0.1335039E+00
          1   -1    0    0  501    0  0.00000000000E+00  0.00000000000E+00  0.64510867413E+03  0.64510867413E+03  0.00000000000E+00 0. -1.
         -1   -1    0    0    0  501 -0.00000000000E+00 -0.00000000000E+00 -0.21851921567E+02  0.21851921567E+02  0.00000000000E+00 0.  1.
         25    2    1    2    0    0 -0.12537436187E+02 -0.31931351204E+02  0.25214485485E+03  0.28354423547E+03  0.12507400668E+03 0.  0.
          5    1    3    3  502    0 -0.87104654170E+01  0.13786753783E+02  0.23307987710E+03  0.23368707344E+03  0.41800000000E+01 0. -1.
         -5    1    3    3    0  502 -0.38269707695E+01 -0.45718104987E+02  0.19064977758E+02  0.49857162031E+02  0.41800000000E+01 0. -1.
        -11    1    1    2    0    0 -0.19514647312E+02 -0.22500066917E+02  0.76167877084E+02  0.81783983581E+02  0.00000000000E+00 0.  1.
         11    1    1    2    0    0  0.32052083499E+02  0.54431418121E+02  0.29494402063E+03  0.30163237664E+03  0.00000000000E+00 0. -1.
</event>
<event>
 7    1  0.2601031E-009  0.1054480E+03  0.7561462E-02  0.1269239E+00
         -1   -1    0    0    0  501 -0.00000000000E+00  0.00000000000E+00  0.53861264056E+02  0.53861264056E+02  0.00000000000E+00 0.  1.
          1   -1    0    0  501    0  0.00000000000E+00 -0.00000000000E+00 -0.22138248418E+03  0.22138248418E+03  0.00000000000E+00 0. -1.
         25    2    1    2    0    0 -0.20698904848E+01 -0.15455359111E+02 -0.74232904877E+02  0.14629161483E+03  0.12509020677E+03 0.  0.
          5    1    3    3  502    0  0.19412940294E+02 -0.67059065554E+02 -0.43589706437E+02  0.82409437755E+02  0.41800000000E+01 0.  1.
         -5    1    3    3    0  502 -0.21482830779E+02  0.51603706443E+02 -0.30643198440E+02  0.63882177073E+02  0.41800000000E+01 0.  1.
        -11    1    1    2    0    0 -0.61382211945E+01  0.49503258569E+02 -0.34948761068E+02  0.60907029714E+02  0.00000000000E+00 0. -1.
         11    1    1    2    0    0  0.82081116793E+01 -0.34047899458E+02 -0.58339554181E+02  0.68045103695E+02  0.00000000000E+00 0.  1.
</event>
<event>
 7    1  0.2601031E-009  0.8413223E+02  0.7561462E-02  0.1317718E+00
          2   -1    0    0  501    0  0.00000000000E+00  0.00000000000E+00  0.29694242387E+02  0.29694242387E+02  0.00000000000E+00 0. -1.
         -2   -1    0    0    0  501 -0.00000000000E+00 -0.00000000000E+00 -0.53935691678E+03  0.53935691678E+03  0.00000000000E+00 0.  1.
         25    2    1    2    0    0  0.32259888455E+02 -0.19350567849E+02 -0.38194443920E+03  0.40366327584E+03  0.12508933108E+03 0.  0.
          5    1    3    3  502    0  0.71791629637E+01  0.18053307759E+02 -0.84654489964E+00  0.19890986405E+02  0.41800000000E+01 0.  1.
         -5    1    3    3    0  502  0.25080725491E+02 -0.37403875608E+02 -0.38109789430E+03  0.38377228943E+03  0.41800000000E+01 0.  1.
        -11    1    1    2    0    0  0.20078700532E+02  0.41677331581E+02 -0.73139577205E+02  0.86542197433E+02  0.00000000000E+00 0.  1.
         11    1    1    2    0    0 -0.52338588987E+02 -0.22326763731E+02 -0.54578657992E+02  0.78845685894E+02  0.00000000000E+00 0. -1.
</event>
<event>
 7    1  0.2601031E-009  0.8777750E+02  0.7561462E-02  0.1308325E+00
          1   -1    0    0  501    0  0.00000000000E+00  0.00000000000E+00  0.64437091536E+03  0.64437091536E+03  0.00000000000E+00 0. -1.
         -1   -1    0    0    0  501 -0.00000000000E+00 -0.00000000000E+00 -0.26469559929E+02  0.26469559929E+02  0.00000000000E+00 0.  1.
         25    2    1    2    0    0 -0.43823893440E+02 -0.63069059627E+02  0.34705273341E+03  0.37681634048E+03  0.12508682894E+03 0.  0.
          5    1    3    3  502    0 -0.17129299152E+02 -0.42255552356E+02  0.33859467367E+03  0.34167641129E+03  0.41800000000E+01 0.  1.
         -5    1    3    3    0  502 -0.26694594288E+02 -0.20813507272E+02  0.84580597325E+01  0.35139929191E+02  0.41800000000E+01 0.  1.
        -11    1    1    2    0    0  0.53355157806E+02  0.29924872078E+02  0.24026079455E+03  0.24792644117E+03  0.00000000000E+00 0. -1.
         11    1    1    2    0    0 -0.95312643659E+01  0.33144187550E+02  0.30587827474E+02  0.46097693633E+02  0.00000000000E+00 0.  1.
</event>
<event>
 7    1  0.2601031E-009  0.1377022E+03  0.7561462E-02  0.1216455E+00
         -1   -1    0    0    0  501 -0.00000000000E+00  0.00000000000E+00  0.26102933662E+02  0.26102933662E+02  0.00000000000E+00 0.  1.
          1   -1    0    0  501    0  0.00000000000E+00 -0.00000000000E+00 -0.77277606370E+03  0.77277606370E+03  0.00000000000E+00 0. -1.
         25    2    1    2    0    0 -0.47724321953E+02  0.73011195524E+02 -0.48448255630E+03  0.50791617592E+03  0.12508896362E+03 0.  0.
          5    1    3    3  502    0 -0.85444784428E+02  0.73997055806E+02 -0.39061889064E+03  0.40666566806E+03  0.41800000000E+01 0.  1.
         -5    1    3    3    0  502  0.37720462475E+02 -0.98586028186E+00 -0.93863665659E+02  0.10125050785E+03  0.41800000000E+01 0.  1.
        -11    1    1    2    0    0 -0.19867103939E+02  0.56145235232E+01 -0.27486187073E+02  0.34376084319E+02  0.00000000000E+00 0.  1.
         11    1    1    2    0    0  0.67591425893E+02 -0.78625719047E+02 -0.23470438666E+03  0.25658673713E+03  0.00000000000E+00 0. -1.
</event>
<event>
 7    1  0.2601031E-009  0.5079987E+03  0.7561462E-02  0.1011712E+00
          1   -1    0    0  501    0  0.00000000000E+00  0.00000000000E+00  0.25489739460E+04  0.25489739460E+04  0.00000000000E+00 0. -1.
         -1   -1    0    0    0  501 -0.00000000000E+00 -0.00000000000E+00 -0.13332569046E+03  0.13332569046E+03  0.00000000000E+00 0.  1.
         25    2    1    2    0    0 -0.12127455969E+03  0.48352930859E+03  0.18504729842E+04  0.19205222743E+04  0.12508968662E+03 0.  0.
          5    1    3    3  502    0 -0.74563272944E+02  0.42471956695E+03  0.16747081441E+04  0.17293383800E+04  0.41800000000E+01 0. -1.
         -5    1    3    3    0  502 -0.46711286742E+02  0.58809741639E+02  0.17576484009E+03  0.19118389428E+03  0.41800000000E+01 0. -1.
        -11    1    1    2    0    0  0.46792682304E+02 -0.45643321275E+02  0.91181521893E+02  0.11219152298E+03  0.00000000000E+00 0. -1.
         11    1    1    2    0    0  0.74481877382E+02 -0.43788598732E+03  0.47399374938E+03  0.64958583913E+03  0.00000000000E+00 0.  1.
</event>
<event>
 7    1  0.2601031E-009  0.9381436E+02  0.7561462E-02  0.1293869E+00
         -1   -1    0    0    0  501 -0.00000000000E+00  0.00000000000E+00  0.37681313245E+02  0.37681313245E+02  0.00000000000E+00 0.  1.
          1   -1    0    0  501    0  0.00000000000E+00 -0.00000000000E+00 -0.45102605986E+03  0.45102605986E+03  0.00000000000E+00 0. -1.
         25    2    1    2    0    0  0.46611594392E+02 -0.21720768463E+02 -0.31766869737E+03  0.34526336466E+03  0.12509579197E+03 0.  0.
          5    1    3    3  502    0 -0.53368679332E+01 -0.65631839682E+02 -0.17850605033E+03  0.19031001798E+03  0.41800000000E+01 0.  1.
         -5    1    3    3    0  502  0.51948462325E+02  0.43911071219E+02 -0.13916264704E+03  0.15495334667E+03  0.41800000000E+01 0.  1.
        -11    1    1    2    0    0 -0.19593561660E+02  0.17266519421E+02  0.14530840878E+02  0.29886212341E+02  0.00000000000E+00 0.  1.
         11    1    1    2    0    0 -0.27018032732E+02  0.44542490418E+01 -0.11020689012E+03  0.11355779611E+03  0.00000000000E+00 0. -1.
</event>
<event>
 7    1  0.2601031E-009  0.9976492E+02  0.7561462E-02  0.1280791E+00
          2   -1    0    0  501    0  0.00000000000E+00  0.00000000000E+00  0.24099691605E+03  0.24099691605E+03  0.00000000000E+00 0. -1.
         -2   -1    0    0    0  501 -0.00000000000E+00 -0.00000000000E+00 -0.62873882480E+02  0.62873882480E+02  0.00000000000E+00 0.  1.
         25    2    1    2    0    0 -0.22298826421E+02 -0.55552830646E+02  0.11507430730E+03  0.18020221860E+03  0.12508952289E+03 0.  0.
          5    1    3    3  502    0 -0.56321877050E+01  0.19646466630E+02  0.99301082732E+02  0.10146862875E+03  0.41800000000E+01 0. -1.
         -5    1    3    3    0  502 -0.16666638716E+02 -0.75199297276E+02  0.15773224566E+02  0.78733589846E+02  0.41800000000E+01 0. -1.
        -11    1    1    2    0    0  0.41504820857E+02 -0.12969671418E+01  0.81068721166E+01  0.42309025676E+02  0.00000000000E+00 0.  1.
         11    1    1    2    0    0 -0.19205994437E+02  0.56849797787E+02  0.54941854159E+02  0.81359554259E+02  0.00000000000E+00 0. -1.
</event>
<event>
 7    1  0.2601031E-009  0.1679008E+03  0.7561462E-02  0.1180055E+00
          2   -1    0    0  501    0  0.00000000000E+00  0.00000000000E+00  0.22195867503E+03  0.22195867503E+03  0.00000000000E+00 0.  1.
         -2   -1    0    0    0  501 -0.00000000000E+00 -0.00000000000E+00 -0.16256951531E+03  0.16256951531E+03  0.00000000000E+00 0. -1.
         25    2    1    2    0    0  0.12916196762E+03 -0.68474703423E+02 -0.17011275233E+02  0.19315538980E+03  0.12509205505E+03 0.  0.
          5    1    3    3  502    0 -0.64298464037E+01 -0.46419325257E+02  0.19533311591E+02  0.50942313883E+02  0.41800000000E+01 0. -1.
         -5    1    3    3    0  502  0.13559181402E+03 -0.22055378166E+02 -0.36544586825E+02  0.14221307592E+03  0.41800000000E+01 0. -1.
        -11    1    1    2    0    0 -0.39934804558E+02  0.18840496074E+01  0.69056585301E+02  0.79794424814E+02  0.00000000000E+00 0.  1.
         11    1    1    2    0    0 -0.89227163057E+02  0.66590653816E+02  0.73438496557E+01  0.11157837573E+03  0.00000000000E+00 0. -1.
</event>
<event>
 7    1  0.2601031E-009  0.1403015E+03  0.7561462E-02  0.1212924E+00
          1   -1    0    0  501    0  0.00000000000E+00  0.00000000000E+00  0.34570156321E+02  0.34570156321E+02  0.00000000000E+00 0. -1.
         -1   -1    0    0    0  501 -0.00000000000E+00 -0.00000000000E+00 -0.87175680814E+03  0.87175680814E+03  0.00000000000E+00 0.  1.
         25    2    1    2    0    0  0.85616686330E+02  0.75012740266E+02 -0.60190373032E+03  0.62521434047E+03  0.12509093801E+03 0.  0.
          5    1    3    3  502    0  0.10616309653E+03  0.47426585731E+02 -0.55403865639E+03  0.56612382857E+03  0.41800000000E+01 0.  1.
         -5    1    3    3    0  502 -0.20546410199E+02  0.27586154534E+02 -0.47865073934E+02  0.59090511902E+02  0.41800000000E+01 0.  1.
        -11    1    1    2    0    0 -0.50334390363E+02 -0.79439905372E+02 -0.22535956574E+03  0.24419496983E+03  0.00000000000E+00 0.  1.
         11    1    1    2    0    0 -0.35282295967E+02  0.44271651068E+01 -0.99233557591E+01  0.36917654166E+02  0.00000000000E+00 0. -1.
</event>
<event>
 7    1  0.2601031E-009  0.1493349E+03  0.7561462E-02  0.1201293E+00
          2   -1    0    0  501    0  0.00000000000E+00  0.00000000000E+00  0.51486346977E+03  0.51486346977E+03  0.00000000000E+00 0. -1.
         -2   -1    0    0    0  501 -0.00000000000E+00 -0.00000000000E+00 -0.57022359296E+02  0.57022359296E+02  0.00000000000E+00 0.  1.
         25    2    1    2    0    0  0.99959984382E+02 -0.84516214899E+02  0.27162553278E+03  0.32643690268E+03  0.12508250204E+03 0.  0.
          5    1    3    3  502    0  0.10409614644E+03 -0.80098959886E+02  0.13077785875E+03  0.18539733498E+03  0.41800000000E+01 0.  1.
         -5    1    3    3    0  502 -0.41361620584E+01 -0.44172550126E+01  0.14084767402E+03  0.14103956770E+03  0.41800000000E+01 0.  1.
        -11    1    1    2    0    0 -0.83566299368E+02  0.10654003525E+02  0.97783365070E+02  0.12906750430E+03  0.00000000000E+00 0.  1.
         11    1    1    2    0    0 -0.16393685014E+02  0.73862211374E+02  0.88432212627E+02  0.11638142209E+03  0.00000000000E+00 0. -1.
</event>
<event>
 7    1  0.2601031E-009  0.8081845E+02  0.7561462E-02  0.1326745E+00
         -1   -1    0    0    0  501 -0.00000000000E+00  0.00000000000E+00  0.17853038891E+02  0.17853038891E+02  0.00000000000E+00 0.  1.
          1   -1    0    0  501    0  0.00000000000E+00 -0.00000000000E+00 -0.17473429002E+04  0.17473429002E+04  0.00000000000E+00 0. -1.
         25    2    1    2    0    0  0.18240194194E+02 -0.39324785892E+02 -0.15720412858E+04  0.15776059315E+04  0.12509007718E+03 0.  0.
          5    1    3    3  502    0 -0.13199439550E+02 -0.35632981336E+02 -0.14740084503E+04  0.14745040924E+04  0.41800000000E+01 0. -1.
         -5    1    3    3    0  502  0.31439633744E+02 -0.36918045561E+01 -0.98032835508E+02  0.10310183911E+03  0.41800000000E+01 0. -1.
        -11    1    1    2    0    0 -0.47135172667E+02  0.62313916861E+01 -0.39795066483E+02  0.62001629504E+02  0.00000000000E+00 0.  1.
         11    1    1    2    0    0  0.28894978472E+02  0.33093394206E+02 -0.11765350897E+03  0.12558837802E+03  0.00000000000E+00 0. -1.
</event>
<event>
 7    1  0.2601031E-009  0.1857237E+03  0.7561462E-02  0.1162376E+00
         -1   -1    0    0    0  501 -0.00000000000E+00  0.00000000000E+00  0.67713023953E+02  0.67713023953E+02  0.00000000000E+00 0.  1.
          1   -1    0    0  501    0  0.00000000000E+00 -0.00000000000E+00 -0.62476273497E+03  0.62476273497E+03  0.00000000000E+00 0. -1.
         25    2    1    2    0    0 -0.12961577565E+03  0.11570463715E+03 -0.30579945015E+03  0.37329219191E+03  0.12508374986E+03 0.  0.
          5    1    3    3  502    0 -0.10384299607E+03  0.12223892444E+03 -0.30694811205E+03  0.34635291015E+03  0.41800000000E+01 0.  1.
         -5    1    3    3    0  502 -0.25772779577E+02 -0.65342872998E+01  0.11486618992E+01  0.26939281761E+02  0.41800000000E+01 0.  1.
        -11    1    1    2    0    0  0.79935112913E+02 -0.10713808293E+03 -0.12407697031E+03  0.18238225147E+03  0.00000000000E+00 0.  1.
         11    1    1    2    0    0  0.49680662732E+02 -0.85665542130E+01 -0.12717329057E+03  0.13680131554E+03  0.00000000000E+00 0. -1.
</event>
<event>
 7    1  0.2601031E-009  0.1706553E+03  0.7561462E-02  0.1177166E+00
         -3   -1    0    0    0  501 -0.00000000000E+00  0.00000000000E+00  0.17084194497E+03  0.17084194497E+03  0.00000000000E+00 0.  1.
          3   -1    0    0  501    0  0.00000000000E+00 -0.00000000000E+00 -0.29859543788E+03  0.29859543788E+03  0.00000000000E+00 0. -1.
         25    2    1    2    0    0  0.42835620390E+02  0.13783592681E+03  0.73561542433E+02  0.20468333620E+03  0.12510129696E+03 0.  0.
          5    1    3    3  502    0  0.20525927693E+02 -0.18004321229E+02 -0.59649934197E+01  0.28258146385E+02  0.41800000000E+01 0. -1.
         -5    1    3    3    0  502  0.22309692697E+02  0.15584024804E+03  0.79526535853E+02  0.17642518982E+03  0.41800000000E+01 0. -1.
        -11    1    1    2    0    0 -0.40199668146E+02 -0.34901446624E+02 -0.21237239634E+02  0.57316181334E+02  0.00000000000E+00 0.  1.
         11    1    1    2    0    0 -0.26359522443E+01 -0.10293448019E+03 -0.18007779571E+03  0.20743786531E+03  0.00000000000E+00 0. -1.
</event>
<event>
 7    1  0.2601031E-009  0.1887769E+03  0.7561462E-02  0.1159569E+00
         -1   -1    0    0    0  501 -0.00000000000E+00  0.00000000000E+00  0.19437419114E+03  0.19437419114E+03  0.00000000000E+00 0.  1.
          1   -1    0    0  501    0  0.00000000000E+00 -0.00000000000E+00 -0.22655415597E+03  0.22655415597E+03  0.00000000000E+00 0. -1.
         25    2    1    2    0    0 -0.11543752501E+03 -0.11451270725E+03  0.57344017468E+02  0.21301302144E+03  0.12508888304E+03 0.  0.
          5    1    3    3  502    0 -0.12534920034E+03 -0.58512017012E+02  0.69255957086E+02  0.15475767559E+03  0.41800000000E+01 0. -1.
         -5    1    3    3    0  502  0.99116753288E+01 -0.56000690242E+02 -0.11911939617E+02  0.58255345856E+02  0.41800000000E+01 0. -1.
        -11    1    1    2    0    0  0.38928198480E+02  0.95743745988E+02 -0.75269076998E+02  0.12785813813E+03  0.00000000000E+00 0. -1.
         11    1    1    2    0    0  0.76509326532E+02  0.18768961266E+02 -0.14254905301E+02  0.80057187551E+02  0.00000000000E+00 0.  1.
</event>
<event>
 7    1  0.2601031E-009  0.1740713E+03  0.7561462E-02  0.1173667E+00
          2   -1    0    0  501    0  0.00000000000E+00  0.00000000000E+00  0.14316909181E+03  0.14316909181E+03  0.00000000000E+00 0.  1.
         -2   -1    0    0    0  501 -0.00000000000E+00 -0.00000000000E+00 -0.24620518604E+03  0.24620518604E+03  0.00000000000E+00 0. -1.
         25    2    1    2    0    0  0.47242866545E+02  0.14357219685E+03 -0.30579838178E+02  0.19856626698E+03  0.12509425140E+03 0.  0.
          5    1    3    3  502    0 -0.24603226012E+02  0.23469949501E+02  0.30444971165E+02  0.45831494946E+02  0.41800000000E+01 0. -1.
         -5    1    3    3    0  502  0.71846092556E+02  0.12010224735E+03 -0.61024809343E+02  0.15273477203E+03  0.41800000000E+01 0. -1.
        -11    1    1    2    0    0 -0.66157600397E+02 -0.63880841213E+02 -0.21833991222E+02  0.94521495635E+02  0.00000000000E+00 0.  1.
         11    1    1    2    0    0  0.18914733853E+02 -0.79691355633E+02 -0.50622264827E+02  0.96286515232E+02  0.00000000000E+00 0. -1.
</event>
<event>
 7    1  0.2601031E-009  0.1304565E+03  0.7561462E-02  0.1226780E+00
         -1   -1    0    0    0  501 -0.00000000000E+00  0.00000000000E+00  0.11172174766E+03  0.11172174766E+03  0.00000000000E+00 0.  1.
          1   -1    0    0  501    0  0.00000000000E+00 -0.00000000000E+00 -0.31915251227E+03  0.31915251227E+03  0.00000000000E+00 0. -1.
         25    2    1    2    0    0 -0.72525926810E+02  0.62291951788E+02  0.28656249543E+02  0.16002934440E+03  0.12509161888E+03 0.  0.
          5    1    3    3  502    0  0.34040253324E+02  0.31004729770E+02  0.10546909929E+02  0.47420900704E+02  0.41800000000E+01 0.  1.
         -5    1    3    3    0  502 -0.10656618013E+03  0.31287222018E+02  0.18109339614E+02  0.11260844369E+03  0.41800000000E+01 0.  1.
        -11    1    1    2    0    0  0.36769693615E+02 -0.66040071816E+01 -0.18077526995E+03  0.18459502026E+03  0.00000000000E+00 0.  1.
         11    1    1    2    0    0  0.35756233195E+02 -0.55687944606E+02 -0.55311744207E+02  0.86249895269E+02  0.00000000000E+00 0. -1.
</event>
<event>
 7    1  0.2601031E-009  0.1731550E+03  0.7561462E-02  0.1174597E+00
         -1   -1    0    0    0  501 -0.00000000000E+00  0.00000000000E+00  0.20308206188E+03  0.20308206188E+03  0.00000000000E+00 0.  1.
          1   -1    0    0  501    0  0.00000000000E+00 -0.00000000000E+00 -0.17785303676E+03  0.17785303676E+03  0.00000000000E+00 0. -1.
         25    2    1    2    0    0 -0.17699838201E+02 -0.14156478631E+03 -0.49251668106E+02  0.19602908486E+03  0.12509117596E+03 0.  0.
          5    1    3    3  502    0 -0.68650232407E+02 -0.87427101333E+02 -0.95526341908E+01  0.11164711227E+03  0.41800000000E+01 0.  1.
         -5    1    3    3    0  502  0.50950394206E+02 -0.54137684982E+02 -0.39699033915E+02  0.84381972593E+02  0.41800000000E+01 0.  1.
        -11    1    1    2    0    0  0.42863940624E+02  0.51021379373E+02  0.60294365299E+02  0.89866061701E+02  0.00000000000E+00 0.  1.
         11    1    1    2    0    0 -0.25164102422E+02  0.90543406942E+02  0.14186327934E+02  0.95039952081E+02  0.00000000000E+00 0. -1.
</event>
<event>
 7    1  0.2601031E-009  0.1292975E+03  0.7561462E-02  0.1228502E+00
          2   -1    0    0  501    0  0.00000000000E+00  0.00000000000E+00  0.68574263368E+02  0.68574263368E+02  0.00000000000E+00 0. -1.
         -2   -1    0    0    0  501 -0.00000000000E+00 -0.00000000000E+00 -0.34803044878E+03  0.34803044878E+03  0.00000000000E+00 0.  1.
         25    2    1    2    0    0 -0.82963463241E+02 -0.71319921247E+02 -0.14837706855E+03  0.22277979147E+03  0.12508242729E+03 0.  0.
          5    1    3    3  502    0 -0.53270639635E+02 -0.92144068979E+02 -0.15252603786E+03  0.18603750998E+03  0.41800000000E+01 0.  1.
         -5    1    3    3    0  502 -0.29692823606E+02  0.20824147732E+02  0.41489693134E+01  0.36742281486E+02  0.41800000000E+01 0.  1.
        -11    1    1    2    0    0  0.19395145824E+02  0.40545045317E+02 -0.17521882327E-01  0.44945218748E+02  0.00000000000E+00 0. -1.
         11    1    1    2    0    0  0.63568317417E+02  0.30774875931E+02 -0.13106159499E+03  0.14887970193E+03  0.00000000000E+00 0.  1.
</event>
<event>
 7    1  0.2601031E-009  0.1558165E+03  0.7561462E-02  0.1193503E+00
         -2   -1    0    0    0  501 -0.00000000000E+00  0.00000000000E+00  0.34446308844E+02  0.34446308844E+02  0.00000000000E+00 0.  1.
          2   -1    0    0  501    0  0.00000000000E+00 -0.00000000000E+00 -0.73585700360E+03  0.73585700360E+03  0.00000000000E+00 0. -1.
         25    2    1    2    0    0  0.78821573465E+02  0.83915032937E+02 -0.34567038584E+03  0.38521559982E+03  0.12509384278E+03 0.  0.
          5    1    3    3  502    0  0.11115410440E+01  0.91513348920E+02 -0.19579953619E+03  0.21617321602E+03  0.41800000000E+01 0.  1.
         -5    1    3    3    0  502  0.77710032421E+02 -0.75983159835E+01 -0.14987084965E+03  0.16904238380E+03  0.41800000000E+01 0.  1.
        -11    1    1    2    0    0  0.17627825688E+02 -0.96470253835E+01 -0.21782524077E+02  0.29635851471E+02  0.00000000000E+00 0.  1.
         11    1    1    2    0    0 -0.96449399153E+02 -0.74268007553E+02 -0.33395778484E+03  0.35545186116E+03  0.00000000000E+00 0. -1.
</event>
<event>
 7    1  0.2601031E-009  0.8809263E+02  0.7561462E-02  0.1307538E+00
          2   -1    0    0  501    0  0.00000000000E+00  0.00000000000E+00  0.81049322181E+03  0.81049322181E+03  0.00000000000E+00 0. -1.
         -2   -1    0    0    0  501 -0.00000000000E+00 -0.00000000000E+00 -0.23071895768E+02  0.23071895768E+02  0.00000000000E+00 0.  1.
         25    2    1    2    0    0  0.14751130768E+02  0.61267155753E+02  0.59798457690E+03  0.61416986729E+03  0.12509121248E+03 0.  0.
          5    1    3    3  502    0 -0.33286170563E+01  0.10704196988E+01 -0.53021928794E+01  0.76033636746E+01  0.41800000000E+01 0.  1.
         -5    1    3    3    0  502  0.18079747824E+02  0.60196736054E+02  0.60328676978E+03  0.60656650362E+03  0.41800000000E+01 0.  1.
        -11    1    1    2    0    0  0.37574714070E+01  0.22064051436E+02  0.21633669902E+02  0.31128068212E+02  0.00000000000E+00 0. -1.
         11    1    1    2    0    0 -0.18508602175E+02 -0.83331207190E+02  0.16780307924E+03  0.18826718208E+03  0.00000000000E+00 0.  1.
</event>
<event>
 7    1  0.2601031E-009  0.2257057E+03  0.7561462E-02  0.1129699E+00
         -1   -1    0    0    0  501 -0.00000000000E+00  0.00000000000E+00  0.74570569628E+02  0.74570569628E+02  0.00000000000E+00 0.  1.
          1   -1    0    0  501    0  0.00000000000E+00 -0.00000000000E+00 -0.91834540369E+03  0.91834540369E+03  0.00000000000E+00 0. -1.
         25    2    1    2    0    0 -0.19560233475E+03 -0.91963778389E+02 -0.60686506660E+03  0.65623919772E+03  0.12508823157E+03 0.  0.
          5    1    3    3  502    0 -0.18744772123E+03 -0.65457438311E+02 -0.59215708894E+03  0.62457090454E+03  0.41800000000E+01 0.  1.
         -5    1    3    3    0  502 -0.81546135185E+01 -0.26506340078E+02 -0.14707977658E+02  0.31668293177E+02  0.41800000000E+01 0.  1.
        -11    1    1    2    0    0  0.16032699313E+03  0.45925866404E+02 -0.11775809851E+03  0.20415900592E+03  0.00000000000E+00 0.  1.
         11    1    1    2    0    0  0.35275341614E+02  0.46037911985E+02 -0.11915166895E+03  0.13251776968E+03  0.00000000000E+00 0. -1.
</event>
<event>
 7    1  0.2601031E-009  0.1073776E+03  0.7561462E-02  0.1265505E+00
         -1   -1    0    0    0  501 -0.00000000000E+00  0.00000000000E+00  0.24987301529E+02  0.24987301529E+02  0.00000000000E+00 0.  1.
          1   -1    0    0  501    0  0.00000000000E+00 -0.00000000000E+00 -0.88136523995E+03  0.88136523995E+03  0.00000000000E+00 0. -1.
         25    2    1    2    0    0 -0.60790390802E+02  0.63156490595E+02 -0.31324306609E+03  0.34850088715E+03  0.12508971169E+03 0.  0.
          5    1    3    3  502    0 -0.27371174690E+02  0.29269608676E+02 -0.99949545900E+01  0.41512199571E+02  0.41800000000E+01 0. -1.
         -5    1    3    3    0  502 -0.33419216113E+02  0.33886881919E+02 -0.30324811150E+03  0.30698868758E+03  0.41800000000E+01 0. -1.
        -11    1    1    2    0    0  0.75076187398E+02 -0.76466802261E+02 -0.47732627012E+03  0.48920749576E+03  0.00000000000E+00 0. -1.
         11    1    1    2    0    0 -0.14285796595E+02  0.13310311665E+02 -0.65808602216E+02  0.68644158576E+02  0.00000000000E+00 0.  1.
</event>
<event>
 7    1  0.2601031E-009  0.1082248E+03  0.7561462E-02  0.1263893E+00
         -2   -1    0    0    0  501 -0.00000000000E+00  0.00000000000E+00  0.90344571312E+02  0.90344571312E+02  0.00000000000E+00 0.  1.
          2   -1    0    0  501    0  0.00000000000E+00 -0.00000000000E+00 -0.17943375189E+03  0.17943375189E+03  0.00000000000E+00 0. -1.
         25    2    1    2    0    0  0.23814897272E+02  0.66530116970E+02 -0.58579095918E+02  0.15516398566E+03  0.12510374164E+03 0.  0.
          5    1    3    3  502    0  0.24925643000E+02 -0.14683657949E+02 -0.67295568544E+02  0.73369363057E+02  0.41800000000E+01 0.  1.
         -5    1    3    3    0  502 -0.11107457281E+01  0.81213774918E+02  0.87164726257E+01  0.81794622608E+02  0.41800000000E+01 0.  1.
        -11    1    1    2    0    0 -0.47269509424E+02 -0.15528340564E+02 -0.30725884362E+02  0.58477481578E+02  0.00000000000E+00 0. -1.
         11    1    1    2    0    0  0.23454612153E+02 -0.51001776406E+02  0.21579969932E+00  0.56136855962E+02  0.00000000000E+00 0.  1.
</event>
<event>
 7    1  0.2601031E-009  0.1282228E+03  0.7561462E-02  0.1230117E+00
          1   -1    0    0  501    0  0.00000000000E+00  0.00000000000E+00  0.14581575748E+03  0.14581575748E+03  0.00000000000E+00 0. -1.
         -1   -1    0    0    0  501 -0.00000000000E+00 -0.00000000000E+00 -0.14812822976E+03  0.14812822976E+03  0.00000000000E+00 0.  1.
         25    2    1    2    0    0 -0.53849844870E+02  0.48840141134E+02 -0.69202614588E+02  0.16037661847E+03  0.12508594129E+03 0.  0.
          5    1    3    3  502    0  0.53387009169E+01 -0.37244258887E+02 -0.63482456649E+01  0.38385012316E+02  0.41800000000E+01 0.  1.
         -5    1    3    3    0  502 -0.59188545787E+02  0.86084400021E+02 -0.62854368923E+02  0.12199160615E+03  0.41800000000E+01 0.  1.
        -11    1    1    2    0    0 -0.13181318402E+02 -0.45005036270E+02  0.16852574040E+02  0.49831814098E+02  0.00000000000E+00 0.  1.
         11    1    1    2    0    0  0.67031163273E+02 -0.38351048644E+01  0.50037568265E+02  0.83735554676E+02  0.00000000000E+00 0. -1.
</event>
<event>
 7    1  0.2601031E-009  0.1963951E+03  0.7561462E-02  0.1152817E+00
          2   -1    0    0  501    0  0.00000000000E+00  0.00000000000E+00  0.15155576380E+03  0.15155576380E+03  0.00000000000E+00 0. -1.
         -2   -1    0    0    0  501 -0.00000000000E+00 -0.00000000000E+00 -0.36521232092E+03  0.36521232092E+03  0.00000000000E+00 0.  1.
         25    2    1    2    0    0 -0.14227240859E+03 -0.11154906559E+03 -0.22180780158E+03  0.31230029088E+03  0.12509252001E+03 0.  0.
          5    1    3    3  502    0 -0.14596815081E+03 -0.76418285880E+02 -0.11837022670E+03  0.20291731921E+03  0.41800000000E+01 0. -1.
         -5    1    3    3    0  502  0.36957422222E+01 -0.35130779713E+02 -0.10343757488E+03  0.10938297167E+03  0.41800000000E+01 0. -1.
        -11    1    1    2    0    0  0.18054716785E+02  0.51224932911E+02  0.33861009723E+02  0.64004175875E+02  0.00000000000E+00 0. -1.
         11    1    1    2    0    0  0.12421769180E+03  0.60324132682E+02 -0.25709765262E+02  0.14046361796E+03  0.00000000000E+00 0.  1.
</event>
<event>
 7    1  0.2601031E-009  0.6414423E+02  0.7561462E-02  0.1381220E+00
         -2   -1    0    0    0  501 -0.00000000000E+00  0.00000000000E+00  0.11197026044E+03  0.11197026044E+03  0.00000000000E+00 0. -1.
          2   -1    0    0  501    0  0.00000000000E+00 -0.00000000000E+00 -0.12660060475E+03  0.12660060475E+03  0.00000000000E+00 0.  1.
         25    2    1    2    0    0 -0.37158334618E+02  0.30126332642E+02 -0.25858039705E+02  0.13639800955E+03  0.12508973196E+03 0.  0.
          5    1    3    3  502    0  0.10332908612E+02  0.22085871843E+02  0.44567723472E+02  0.50973611908E+02  0.41800000000E+01 0.  1.
         -5    1    3    3    0  502 -0.47491243229E+02  0.80404607984E+01 -0.70425763177E+02  0.85424397641E+02  0.41800000000E+01 0.  1.
        -11    1    1    2    0    0  0.30139176169E+02 -0.68748629066E+01  0.48601864326E+02  0.57600129306E+02  0.00000000000E+00 0. -1.
         11    1    1    2    0    0  0.70191584484E+01 -0.23251469735E+02 -0.37374168928E+02  0.44572726339E+02  0.00000000000E+00 0.  1.
</event>
<event>
 7    1  0.2601031E-009  0.9814260E+02  0.7561462E-02  0.1284251E+00
          3   -1    0    0  501    0  0.00000000000E+00  0.00000000000E+00  0.61623119164E+03  0.61623119164E+03  0.00000000000E+00 0. -1.
         -3   -1    0    0    0  501 -0.00000000000E+00 -0.00000000000E+00 -0.31780211740E+02  0.31780211740E+02  0.00000000000E+00 0.  1.
         25    2    1    2    0    0 -0.72585727010E+02 -0.15644451749E+02  0.42495234815E+03  0.44916131864E+03  0.12509178759E+03 0.  0.
          5    1    3    3  502    0 -0.85794528483E+02 -0.30091300521E+02  0.16498304511E+03  0.18842257046E+03  0.41800000000E+01 0.  1.
         -5    1    3    3    0  502  0.13208801472E+02  0.14446848772E+02  0.25996930304E+03  0.26073874818E+03  0.41800000000E+01 0.  1.
        -11    1    1    2    0    0  0.14832696777E+02  0.22653414559E+02  0.13155057825E+03  0.13430837919E+03  0.00000000000E+00 0. -1.
         11    1    1    2    0    0  0.57753030234E+02 -0.70089628107E+01  0.27948053502E+02  0.64541705551E+02  0.00000000000E+00 0.  1.
</event>
<event>
 7    1  0.2630380E-009  0.1180017E+03  0.7561462E-02  0.1246431E+00
         -1   -1    0    0    0  501 -0.00000000000E+00  0.00000000000E+00  0.21425568189E+02  0.21425568189E+02  0.00000000000E+00 0.  1.
          1   -1    0    0  501    0  0.00000000000E+00 -0.00000000000E+00 -0.96608475908E+03  0.96608475908E+03  0.00000000000E+00 0. -1.
         25    2    1    2    0    0 -0.17026453993E+02  0.93074742973E+02 -0.51327644743E+03  0.53670352970E+03  0.12508061158E+03 0.  0.
          5    1    3    3  502    0  0.74627254827E+01  0.10851542506E+03 -0.26174495970E+03  0.28347695863E+03  0.41800000000E+01 0.  1.
         -5    1    3    3    0  502 -0.24489179476E+02 -0.15440682090E+02 -0.25153148773E+03  0.25322657107E+03  0.41800000000E+01 0.  1.
        -11    1    1    2    0    0  0.29120729222E+01 -0.74572837642E+02 -0.41661275324E+03  0.42324434367E+03  0.00000000000E+00 0. -1.
         11    1    1    2    0    0  0.14114381071E+02 -0.18501905330E+02 -0.14769990216E+02  0.27562453897E+02  0.00000000000E+00 0.  1.
</event>
<event>
 7    1  0.2601031E-009  0.1484767E+03  0.7561462E-02  0.1202357E+00
         -3   -1    0    0    0  501 -0.00000000000E+00  0.00000000000E+00  0.19860087816E+03  0.19860087816E+03  0.00000000000E+00 0.  1.
          3   -1    0    0  501    0  0.00000000000E+00 -0.00000000000E+00 -0.15579034477E+03  0.15579034477E+03  0.00000000000E+00 0. -1.
         25    2    1    2    0    0  0.71287503911E+02 -0.10296047059E+03 -0.35804975494E+02  0.18058738123E+03  0.12508812602E+03 0.  0.
          5    1    3    3  502    0  0.82184381624E+02 -0.22313409400E+02  0.12015759038E+02  0.86104655433E+02  0.41800000000E+01 0. -1.
         -5    1    3    3    0  502 -0.10896877714E+02 -0.80647061188E+02 -0.47820734532E+02  0.94482725793E+02  0.41800000000E+01 0. -1.
        -11    1    1    2    0    0 -0.60280881049E+02  0.10283035693E+03  0.28584497885E+02  0.12257626379E+03  0.00000000000E+00 0. -1.
         11    1    1    2    0    0 -0.11006622862E+02  0.13011365809E+00  0.50031011005E+02  0.51227577910E+02  0.00000000000E+00 0.  1.
</event>
<event>
 7    1  0.2601031E-009  0.1157480E+03  0.7561462E-02  0.1250281E+00
          2   -1    0    0  501    0  0.00000000000E+00  0.00000000000E+00  0.83278956066E+02  0.83278956066E+02  0.00000000000E+00 0. -1.
         -2   -1    0    0    0  501 -0.00000000000E+00 -0.00000000000E+00 -0.32970346941E+03  0.32970346941E+03  0.00000000000E+00 0.  1.
         25    2    1    2    0    0  0.23070732471E+02 -0.83375175789E+02 -0.24172205189E+03  0.28558854207E+03  0.12509031279E+03 0.  0.
          5    1    3    3  502    0  0.43231668424E+02 -0.10037729047E+03 -0.23317594209E+03  0.25755207234E+03  0.41800000000E+01 0.  1.
         -5    1    3    3    0  502 -0.20160935953E+02  0.17002114677E+02 -0.85461097985E+01  0.28036469726E+02  0.41800000000E+01 0.  1.
        -11    1    1    2    0    0 -0.25441595053E+02  0.20963063303E+02 -0.42960249159E+02  0.54150787526E+02  0.00000000000E+00 0.  1.
         11    1    1    2    0    0  0.23708625818E+01  0.62412112486E+02  0.38257787706E+02  0.73243095883E+02  0.00000000000E+00 0. -1.
</event>
<event>
 7    1  0.2601031E-009  0.1231778E+03  0.7561462E-02  0.1237945E+00
          1   -1    0    0  501    0  0.00000000000E+00  0.00000000000E+00  0.10417764588E+03  0.10417764588E+03  0.00000000000E+00 0. -1.
         -1   -1    0    0    0  501 -0.00000000000E+00 -0.00000000000E+00 -0.15786236956E+03  0.15786236956E+03  0.00000000000E+00 0.  1.
         25    2    1    2    0    0  0.64945605234E+02  0.18914964186E+02 -0.34315215806E+02  0.14629822521E+03  0.12509967687E+03 0.  0.
          5    1    3    3  502    0  0.53175370070E+02 -0.44164415135E+02 -0.42842214105E+02  0.81431217943E+02  0.41800000000E+01 0. -1.
         -5    1    3    3    0  502  0.11770235164E+02  0.63079379321E+02  0.85269982987E+01  0.64867007263E+02  0.41800000000E+01 0. -1.
        -11    1    1    2    0    0  0.60294839432E+01  0.27397266108E+02  0.26551371140E+01  0.28178265027E+02  0.00000000000E+00 0.  1.
         11    1    1    2    0    0 -0.70975089177E+02 -0.46312230294E+02 -0.22024644987E+02  0.87563525199E+02  0.00000000000E+00 0. -1.
</event>
<event>
 7    1  0.2601031E-009  0.2310915E+03  0.7561462E-02  0.1125874E+00
          1   -1    0    0  501    0  0.00000000000E+00  0.00000000000E+00  0.24682277422E+03  0.24682277422E+03  0.00000000000E+00 0. -1.
         -1   -1    0    0    0  501 -0.00000000000E+00 -0.00000000000E+00 -0.23863509713E+03  0.23863509713E+03  0.00000000000E+00 0.  1.
         25    2    1    2    0    0 -0.14222845201E+03  0.16343106420E+03  0.78359177283E+01  0.25029576430E+03  0.12509165724E+03 0.  0.
          5    1    3    3  502    0  0.14972631966E+02 -0.28034477309E+01  0.14394615300E+02  0.21370923630E+02  0.41800000000E+01 0. -1.
         -5    1    3    3    0  502 -0.15720108398E+03  0.16623451193E+03 -0.65586975721E+01  0.22892484067E+03  0.41800000000E+01 0. -1.
        -11    1    1    2    0    0  0.56743165670E+02 -0.80211351101E+02  0.44620714723E+02  0.10791040672E+03  0.00000000000E+00 0. -1.
         11    1    1    2    0    0  0.85485286344E+02 -0.83219713097E+02 -0.44268955363E+02  0.12725170033E+03  0.00000000000E+00 0.  1.
</event>
<event>
 7    1  0.2601031E-009  0.1160581E+03  0.7561462E-02  0.1249745E+00
         -1   -1    0    0    0  501 -0.00000000000E+00  0.00000000000E+00  0.13553988356E+03  0.13553988356E+03  0.00000000000E+00 0.  1.
          1   -1    0    0  501    0  0.00000000000E+00 -0.00000000000E+00 -0.12155345514E+03  0.12155345514E+03  0.00000000000E+00 0. -1.
         25    2    1    2    0    0 -0.46600038149E+02  0.50317583363E+02  0.29033589134E+01  0.14269214124E+03  0.12509674227E+03 0.  0.
          5    1    3    3  502    0  0.31191270295E+02  0.49004007715E+01  0.34675663249E+02  0.47082728172E+02  0.41800000000E+01 0.  1.
         -5    1    3    3    0  502 -0.77791308445E+02  0.45417182591E+02 -0.31772304335E+02  0.95609413066E+02  0.41800000000E+01 0.  1.
        -11    1    1    2    0    0  0.64010393028E+02 -0.82209779590E+01  0.20831556273E+02  0.67814958755E+02  0.00000000000E+00 0.  1.
         11    1    1    2    0    0 -0.17410354878E+02 -0.42096605404E+02 -0.97484867674E+01  0.46586238716E+02  0.00000000000E+00 0. -1.
</event>
<event>
 7    1  0.2601031E-009  0.9173693E+02  0.7561462E-02  0.1298699E+00
          3   -1    0    0  501    0  0.00000000000E+00  0.00000000000E+00  0.79869367078E+02  0.79869367078E+02  0.00000000000E+00 0. -1.
         -3   -1    0    0    0  501 -0.00000000000E+00 -0.00000000000E+00 -0.17417251576E+03  0.17417251576E+03  0.00000000000E+00 0.  1.
         25    2    1    2    0    0  0.29796141932E+02  0.22435224927E+02 -0.85308950536E+02  0.15594019001E+03  0.12509427017E+03 0.  0.
          5    1    3    3  502    0 -0.30832567931E+02  0.16418278599E+02 -0.88040534580E+02  0.94809362652E+02  0.41800000000E+01 0.  1.
         -5    1    3    3    0  502  0.60628709863E+02  0.60169463283E+01  0.27315840438E+01  0.61130827363E+02  0.41800000000E+01 0.  1.
        -11    1    1    2    0    0  0.31499803752E+01  0.27346309390E+02 -0.24030880803E+02  0.36540747745E+02  0.00000000000E+00 0.  1.
         11    1    1    2    0    0 -0.32946122307E+02 -0.49781534316E+02  0.15036682654E+02  0.61560945081E+02  0.00000000000E+00 0. -1.
</event>
<event>
 7    1  0.2601031E-009  0.1040955E+03  0.7561462E-02  0.1271912E+00
         -2   -1    0    0    0  501 -0.00000000000E+00  0.00000000000E+00  0.84197233165E+01  0.84197233165E+01  0.00000000000E+00 0.  1.
          2   -1    0    0  501    0  0.00000000000E+00 -0.00000000000E+00 -0.18448740278E+04  0.18448740278E+04  0.00000000000E+00 0. -1.
         25    2    1    2    0    0 -0.43304846537E+02  0.11290361047E+02 -0.14769174693E+04  0.14828809729E+04  0.12509191321E+03 0.  0.
          5    1    3    3  502    0 -0.65574516185E+01  0.59916752185E+02 -0.10348111386E+04  0.10365734814E+04  0.41800000000E+01 0.  1.
         -5    1    3    3    0  502 -0.36747394918E+02 -0.48626391138E+02 -0.44210633072E+03  0.44630749154E+03  0.41800000000E+01 0.  1.
        -11    1    1    2    0    0  0.14485159526E+00 -0.36629684610E+02 -0.19582938731E+03  0.19922576066E+03  0.00000000000E+00 0. -1.
         11    1    1    2    0    0  0.43159994941E+02  0.25339323563E+02 -0.16370744785E+03  0.17118701751E+03  0.00000000000E+00 0.  1.
</event>
<event>
 7    1  0.2601031E-009  0.1118732E+03  0.7561462E-02  0.1257140E+00
         -2   -1    0    0    0  501 -0.00000000000E+00  0.00000000000E+00  0.43846661390E+02  0.43846661390E+02  0.00000000000E+00 0.  1.
          2   -1    0    0  501    0  0.00000000000E+00 -0.00000000000E+00 -0.33377282669E+03  0.33377282669E+03  0.00000000000E+00 0. -1.
         25    2    1    2    0    0 -0.47376871890E+02 -0.24201212370E+02 -0.14916955128E+03  0.20180409696E+03  0.12507226651E+03 0.  0.
          5    1    3    3  502    0  0.31257288191E+02  0.25711200252E+02 -0.30282163646E+02  0.50720466466E+02  0.41800000000E+01 0.  1.
         -5    1    3    3    0  502 -0.78634160081E+02 -0.49912412621E+02 -0.11888738764E+03  0.15108363050E+03  0.41800000000E+01 0.  1.
        -11    1    1    2    0    0  0.48480500729E+02  0.46691868699E+02 -0.13746390142E+03  0.15305820379E+03  0.00000000000E+00 0. -1.
         11    1    1    2    0    0 -0.11036288381E+01 -0.22490656329E+02 -0.32927125953E+01  0.22757187326E+02  0.00000000000E+00 0.  1.
</event>
<event>
 7    1  0.2601031E-009  0.1088141E+03  0.7561462E-02  0.1262782E+00
          1   -1    0    0  501    0  0.00000000000E+00  0.00000000000E+00  0.41230152746E+02  0.41230152746E+02  0.00000000000E+00 0. -1.
         -1   -1    0    0    0  501 -0.00000000000E+00 -0.00000000000E+00 -0.38313556236E+03  0.38313556236E+03  0.00000000000E+00 0.  1.
         25    2    1    2    0    0  0.61451740035E+02 -0.22197108095E+02 -0.19455928587E+03  0.24035364126E+03  0.12509008429E+03 0.  0.
          5    1    3    3  502    0  0.47033521093E+02  0.32105045500E+02 -0.16919151400E+03  0.17856686944E+03  0.41800000000E+01 0. -1.
         -5    1    3    3    0  502  0.14418218942E+02 -0.54302153595E+02 -0.25367771877E+02  0.61786771824E+02  0.41800000000E+01 0. -1.
        -11    1    1    2    0    0  0.44970597992E+01 -0.23518931387E+02 -0.63918569249E+02  0.68256480830E+02  0.00000000000E+00 0.  1.
         11    1    1    2    0    0 -0.65948799834E+02  0.45716039482E+02 -0.83427554494E+02  0.11575559302E+03  0.00000000000E+00 0. -1.
</event>
<event>
 7    1  0.2601031E-009  0.2265188E+03  0.7561462E-02  0.1129114E+00
         -2   -1    0    0    0  501 -0.00000000000E+00  0.00000000000E+00  0.65137239067E+02  0.65137239067E+02  0.00000000000E+00 0.  1.
          2   -1    0    0  501    0  0.00000000000E+00 -0.00000000000E+00 -0.99118014366E+03  0.99118014366E+03  0.00000000000E+00 0. -1.
         25    2    1    2    0    0  0.21539584828E+03  0.10158138527E+02 -0.64894926813E+03  0.69518421099E+03  0.12508946942E+03 0.  0.
          5    1    3    3  502    0  0.58239648511E+02  0.46010605763E+02 -0.32409993550E+03  0.33251627493E+03  0.41800000000E+01 0. -1.
         -5    1    3    3    0  502  0.15715619977E+03 -0.35852467235E+02 -0.32484933264E+03  0.36266793606E+03  0.41800000000E+01 0. -1.
        -11    1    1    2    0    0 -0.17014612386E+03  0.35072508252E+01 -0.15492308187E+03  0.23013727549E+03  0.00000000000E+00 0.  1.
         11    1    1    2    0    0 -0.45249724421E+02 -0.13665389352E+02 -0.12217055459E+03  0.13099589626E+03  0.00000000000E+00 0. -1.
</event>
<event>
 7    1  0.2601031E-009  0.7525706E+02  0.7561462E-02  0.1343077E+00
         -2   -1    0    0    0  501 -0.00000000000E+00  0.00000000000E+00  0.21399638532E+03  0.21399638532E+03  0.00000000000E+00 0.  1.
          2   -1    0    0  501    0  0.00000000000E+00 -0.00000000000E+00 -0.64367027394E+02  0.64367027394E+02  0.00000000000E+00 0. -1.
         25    2    1    2    0    0 -0.11630579514E+02 -0.14249737770E+02  0.14045821771E+03  0.18898132597E+03  0.12508838970E+03 0.  0.
          5    1    3    3  502    0  0.16043598207E+02  0.22239645792E+02 -0.11640327455E+02  0.30082694554E+02  0.41800000000E+01 0. -1.
         -5    1    3    3    0  502 -0.27674177721E+02 -0.36489383562E+02  0.15209854516E+03  0.15889863142E+03  0.41800000000E+01 0. -1.
        -11    1    1    2    0    0 -0.42564818946E+01 -0.29726539246E+02 -0.18285332401E+02  0.35158756443E+02  0.00000000000E+00 0.  1.
         11    1    1    2    0    0  0.15887061408E+02  0.43976277015E+02  0.27456472622E+02  0.54223330303E+02  0.00000000000E+00 0. -1.
</event>
<event>
 7    1  0.3327383E-009  0.1374738E+03  0.7561462E-02  0.1216769E+00
          2   -1    0    0  501    0  0.00000000000E+00  0.00000000000E+00  0.96246337512E+03  0.96246337512E+03  0.00000000000E+00 0. -1.
         -2   -1    0    0    0  501 -0.00000000000E+00 -0.00000000000E+00 -0.22680915465E+02  0.22680915465E+02  0.00000000000E+00 0.  1.
         25    2    1    2    0    0  0.32368781775E+02  0.87931581318E+02  0.39119368440E+03  0.42125992863E+03  0.12509087788E+03 0.  0.
          5    1    3    3  502    0  0.17300681754E+02 -0.25543733831E+02  0.16280909940E+03  0.16575907569E+03  0.41800000000E+01 0. -1.
         -5    1    3    3    0  502  0.15068100021E+02  0.11347531515E+03  0.22838458500E+03  0.25550085294E+03  0.41800000000E+01 0. -1.
        -11    1    1    2    0    0 -0.60469374250E+02 -0.36423033098E+02  0.26147364256E+03  0.27083509433E+03  0.00000000000E+00 0.  1.
         11    1    1    2    0    0  0.28100592475E+02 -0.51508548220E+02  0.28711513269E+03  0.29304926763E+03  0.00000000000E+00 0. -1.
</event>
<event>
 7    1  0.2601031E-009  0.7071323E+02  0.7561462E-02  0.1357684E+00
          1   -1    0    0  501    0  0.00000000000E+00  0.00000000000E+00  0.79647515041E+03  0.79647515041E+03  0.00000000000E+00 0. -1.
         -1   -1    0    0    0  501 -0.00000000000E+00 -0.00000000000E+00 -0.16301790125E+02  0.16301790125E+02  0.00000000000E+00 0.  1.
         25    2    1    2    0    0  0.77601985251E+01  0.17676037998E+02  0.36560025146E+03  0.38688925060E+03  0.12508831027E+03 0.  0.
          5    1    3    3  502    0  0.21169038645E+01  0.30036539312E+02  0.37058096362E+03  0.37182576292E+03  0.41800000000E+01 0.  1.
         -5    1    3    3    0  502  0.56432946606E+01 -0.12360501314E+02 -0.49807121653E+01  0.15063487679E+02  0.41800000000E+01 0.  1.
        -11    1    1    2    0    0 -0.21596754932E+02 -0.53882869060E+02  0.22291954302E+03  0.23035387138E+03  0.00000000000E+00 0. -1.
         11    1    1    2    0    0  0.13836556407E+02  0.36206831062E+02  0.19165356581E+03  0.19553381855E+03  0.00000000000E+00 0.  1.
</event>
<event>
 7    1  0.2601031E-009  0.1261988E+03  0.7561462E-02  0.1233208E+00
          2   -1    0    0  501    0  0.00000000000E+00  0.00000000000E+00  0.11935514644E+04  0.11935514644E+04  0.00000000000E+00 0.  1.
         -2   -1    0    0    0  501 -0.00000000000E+00 -0.00000000000E+00 -0.18487993894E+02  0.18487993894E+02  0.00000000000E+00 0. -1.
         25    2    1    2    0    0 -0.78984556832E+02 -0.44845140199E+02  0.80829469864E+03  0.82294351306E+03  0.12508420769E+03 0.  0.
          5    1    3    3  502    0 -0.10806312176E+02  0.31259432094E+02  0.69244705099E+02  0.76852001027E+02  0.41800000000E+01 0.  1.
         -5    1    3    3    0  502 -0.68178244656E+02 -0.76104572293E+02  0.73904999355E+03  0.74609151203E+03  0.41800000000E+01 0.  1.
        -11    1    1    2    0    0  0.79229805534E+02  0.76466853237E+01  0.31770516127E+03  0.32752466072E+03  0.00000000000E+00 0.  1.
         11    1    1    2    0    0 -0.24524870192E+00  0.37198454876E+02  0.49063610578E+02  0.61571284500E+02  0.00000000000E+00 0. -1.
</event>
<event>
 7    1  0.2601031E-009  0.1142233E+03  0.7561462E-02  0.1252943E+00
         -2   -1    0    0    0  501 -0.00000000000E+00  0.00000000000E+00  0.19424772917E+02  0.19424772917E+02  0.00000000000E+00 0.  1.
          2   -1    0    0  501    0  0.00000000000E+00 -0.00000000000E+00 -0.88228590423E+03  0.88228590423E+03  0.00000000000E+00 0. -1.
         25    2    1    2    0    0  0.66003243250E+02  0.10301964402E+02 -0.58086502124E+03  0.59792249693E+03  0.12507829885E+03 0.  0.
          5    1    3    3  502    0  0.21637096492E+02  0.63743407783E+02 -0.20930997920E+03  0.21990799388E+03  0.41800000000E+01 0. -1.
         -5    1    3    3    0  502  0.44366146758E+02 -0.53441443381E+02 -0.37155504204E+03  0.37801450304E+03  0.41800000000E+01 0. -1.
        -11    1    1    2    0    0 -0.29756438984E+02  0.26440143847E+02 -0.40306837555E+02  0.56649519163E+02  0.00000000000E+00 0.  1.
         11    1    1    2    0    0 -0.36246804266E+02 -0.36742108249E+02 -0.24168927252E+03  0.24713866105E+03  0.00000000000E+00 0. -1.
</event>
<event>
 7    1  0.2601031E-009  0.2184645E+03  0.7561462E-02  0.1135033E+00
         -2   -1    0    0    0  501 -0.00000000000E+00  0.00000000000E+00  0.47748820037E+02  0.47748820037E+02  0.00000000000E+00 0.  1.
          2   -1    0    0  501    0  0.00000000000E+00 -0.00000000000E+00 -0.11336900966E+04  0.11336900966E+04  0.00000000000E+00 0. -1.
         25    2    1    2    0    0  0.48433825639E+02 -0.19259019647E+03 -0.42767435876E+03  0.48784408560E+03  0.12509866296E+03 0.  0.
          5    1    3    3  502    0 -0.24126226958E+02 -0.11023740639E+03 -0.13969395591E+03  0.17962804434E+03  0.41800000000E+01 0. -1.
         -5    1    3    3    0  502  0.72560052598E+02 -0.82352790075E+02 -0.28798040285E+03  0.30821604126E+03  0.41800000000E+01 0. -1.
        -11    1    1    2    0    0  0.20428562987E+02  0.76580131098E+02 -0.31372865743E+03  0.32358540319E+03  0.00000000000E+00 0. -1.
         11    1    1    2    0    0 -0.68862388627E+02  0.11601006537E+03 -0.34453826040E+03  0.37000942787E+03  0.00000000000E+00 0.  1.
</event>
<event>
 7    1  0.2601031E-009  0.1124439E+03  0.7561462E-02  0.1256110E+00
          1   -1    0    0  501    0  0.00000000000E+00  0.00000000000E+00  0.43270474714E+03  0.43270474714E+03  0.00000000000E+00 0. -1.
         -1   -1    0    0    0  501 -0.00000000000E+00 -0.00000000000E+00 -0.52947338095E+02  0.52947338095E+02  0.00000000000E+00 0.  1.
         25    2    1    2    0    0 -0.52475886252E+02 -0.79952613659E+02  0.27418653049E+03  0.31618578013E+03  0.12509618293E+03 0.  0.
          5    1    3    3  502    0 -0.76894022267E+01 -0.44882063394E+02  0.11191807082E+02  0.47077122542E+02  0.41800000000E+01 0.  1.
         -5    1    3    3    0  502 -0.44786484025E+02 -0.35070550265E+02  0.26299472341E+03  0.26910865758E+03  0.41800000000E+01 0.  1.
        -11    1    1    2    0    0  0.64509322437E+02  0.30736942329E+02  0.27857463576E+02  0.76695831581E+02  0.00000000000E+00 0.  1.
         11    1    1    2    0    0 -0.12033436185E+02  0.49215671330E+02  0.77713414986E+02  0.92770473534E+02  0.00000000000E+00 0. -1.
</event>
<event>
 7    1  0.2601031E-009  0.9457611E+02  0.7561462E-02  0.1292134E+00
          1   -1    0    0  501    0  0.00000000000E+00  0.00000000000E+00  0.17332399456E+03  0.17332399456E+03  0.00000000000E+00 0. -1.
         -1   -1    0    0    0  501 -0.00000000000E+00 -0.00000000000E+00 -0.74462095909E+02  0.74462095909E+02  0.00000000000E+00 0.  1.
         25    2    1    2    0    0  0.19591433214E+02  0.15179159954E+02  0.79281029092E+02  0.15016429266E+03  0.12509836955E+03 0.  0.
          5    1    3    3  502    0 -0.38433523948E+02  0.84966727507E+01 -0.12310969727E+02  0.41453125172E+02  0.41800000000E+01 0.  1.
         -5    1    3    3    0  502  0.58024957162E+02  0.66824872031E+01  0.91591998819E+02  0.10871116749E+03  0.41800000000E+01 0.  1.
        -11    1    1    2    0    0 -0.48792449218E+02  0.12933296083E+02 -0.41571845053E+01  0.50648350726E+02  0.00000000000E+00 0.  1.
         11    1    1    2    0    0  0.29201016004E+02 -0.28112456037E+02  0.23738054063E+02  0.46973447082E+02  0.00000000000E+00 0. -1.
</event>
<event>
 7    1  0.2601031E-009  0.1090327E+03  0.7561462E-02  0.1262372E+00
         -1   -1    0    0    0  501 -0.00000000000E+00  0.00000000000E+00  0.30156605958E+03  0.30156605958E+03  0.00000000000E+00 0.  1.
          1   -1    0    0  501    0  0.00000000000E+00 -0.00000000000E+00 -0.42982056307E+02  0.42982056307E+02  0.00000000000E+00 0. -1.
         25    2    1    2    0    0 -0.17696297592E+02  0.26421177989E+02  0.16762166617E+03  0.21155608750E+03  0.12509083737E+03 0.  0.
          5    1    3    3  502    0  0.19104855815E+02 -0.43639038715E+02  0.45725585912E+02  0.66163908762E+02  0.41800000000E+01 0. -1.
         -5    1    3    3    0  502 -0.36801153407E+02  0.70060216704E+02  0.12189608025E+03  0.14539217874E+03  0.41800000000E+01 0. -1.
        -11    1    1    2    0    0 -0.33374559592E+01  0.30309242146E+02  0.54217814217E+02  0.62204181131E+02  0.00000000000E+00 0.  1.
         11    1    1    2    0    0  0.21033753551E+02 -0.56730420135E+02  0.36744522896E+02  0.70787847262E+02  0.00000000000E+00 0. -1.
</event>
<event>
 7    1  0.2601031E-009  0.6309775E+02  0.7561462E-02  0.1385273E+00
         -2   -1    0    0    0  501 -0.00000000000E+00  0.00000000000E+00  0.43906707193E+02  0.43906707193E+02  0.00000000000E+00 0.  1.
          2   -1    0    0  501    0  0.00000000000E+00 -0.00000000000E+00 -0.31007357832E+03  0.31007357832E+03  0.00000000000E+00 0. -1.
         25    2    1    2    0    0 -0.29138015613E+02 -0.39917651049E+02 -0.12708877805E+03  0.18504564927E+03  0.12509153444E+03 0.  0.
          5    1    3    3  502    0 -0.69591282991E+01  0.15176224389E+02 -0.12425442407E+03  0.12544074917E+03  0.41800000000E+01 0.  1.
         -5    1    3    3    0  502 -0.22178887314E+02 -0.55093875438E+02 -0.28343539836E+01  0.59604900099E+02  0.41800000000E+01 0.  1.
        -11    1    1    2    0    0  0.12550243671E+02  0.18544514717E+02  0.44914690620E+01  0.22838146524E+02  0.00000000000E+00 0.  1.
         11    1    1    2    0    0  0.16587771942E+02  0.21373136332E+02 -0.14356956214E+03  0.14609648971E+03  0.00000000000E+00 0. -1.
</event>
<event>
 7    1  0.2601031E-009  0.1750712E+03  0.7561462E-02  0.1172660E+00
         -3   -1    0    0    0  501 -0.00000000000E+00  0.00000000000E+00  0.16597969969E+03  0.16597969969E+03  0.00000000000E+00 0.  1.
          3   -1    0    0  501    0  0.00000000000E+00 -0.00000000000E+00 -0.21050711911E+03  0.21050711911E+03  0.00000000000E+00 0. -1.
         25    2    1    2    0    0  0.48276203063E+01  0.14131709521E+03  0.31279164531E+02  0.19135198115E+03  0.12507344739E+03 0.  0.
          5    1    3    3  502    0  0.32509822793E+02  0.14919728494E+03  0.44927005107E+02  0.15922508156E+03  0.41800000000E+01 0.  1.
         -5    1    3    3    0  502 -0.27682202487E+02 -0.78801897308E+01 -0.13647840576E+02  0.32126899588E+02  0.41800000000E+01 0.  1.
        -11    1    1    2    0    0 -0.45209298876E+02 -0.44653852757E+02 -0.21127227447E+02  0.66964221868E+02  0.00000000000E+00 0. -1.
         11    1    1    2    0    0  0.40381678569E+02 -0.96663242452E+02 -0.54679356511E+02  0.11817061578E+03  0.00000000000E+00 0.  1.
</event>
<event>
 7    1  0.2601031E-009  0.1020015E+03  0.7561462E-02  0.1276143E+00
         -2   -1    0    0    0  501 -0.00000000000E+00  0.00000000000E+00  0.26561889078E+02  0.26561889078E+02  0.00000000000E+00 0.  1.
          2   -1    0    0  501    0  0.00000000000E+00 -0.00000000000E+00 -0.49634175700E+03  0.49634175700E+03  0.00000000000E+00 0. -1.
         25    2    1    2    0    0  0.31040553050E+02 -0.21143669637E+02 -0.26294402048E+03  0.29359547511E+03  0.12509266325E+03 0.  0.
          5    1    3    3  502    0 -0.38715969074E+02 -0.10895982878E+02 -0.30476401930E+02  0.50635285906E+02  0.41800000000E+01 0. -1.
         -5    1    3    3    0  502  0.69756522124E+02 -0.10247686759E+02 -0.23246761855E+03  0.24296018920E+03  0.41800000000E+01 0. -1.
        -11    1    1    2    0    0  0.72955773963E+01 -0.28951474112E+02 -0.10805466567E+03  0.11210363097E+03  0.00000000000E+00 0. -1.
         11    1    1    2    0    0 -0.38336130446E+02  0.50095143750E+02 -0.98781181770E+02  0.11720454000E+03  0.00000000000E+00 0.  1.
</event>
<event>
 7    1  0.2601031E-009  0.8430624E+02  0.7561462E-02  0.1317257E+00
         -2   -1    0    0    0  501 -0.00000000000E+00  0.00000000000E+00  0.16060594591E+02  0.16060594591E+02  0.00000000000E+00 0.  1.
          2   -1    0    0  501    0  0.00000000000E+00 -0.00000000000E+00 -0.10972673314E+04  0.10972673314E+04  0.00000000000E+00 0. -1.
         25    2    1    2    0    0 -0.11583899209E+02 -0.48616011440E+01 -0.94530887040E+03  0.95363413367E+03  0.12510546972E+03 0.  0.
          5    1    3    3  502    0 -0.24283599101E+02  0.49447828626E+02 -0.69307821780E+03  0.69527668545E+03  0.41800000000E+01 0. -1.
         -5    1    3    3    0  502  0.12699699892E+02 -0.54309429770E+02 -0.25223065260E+03  0.25835744822E+03  0.41800000000E+01 0. -1.
        -11    1    1    2    0    0  0.32314742601E+02 -0.76669203521E+01 -0.15085974295E+02  0.36477539357E+02  0.00000000000E+00 0.  1.
         11    1    1    2    0    0 -0.20730843392E+02  0.12528521496E+02 -0.12081189209E+03  0.12321625294E+03  0.00000000000E+00 0. -1.
</event>
<event>
 7    1  0.2601031E-009  0.1194185E+03  0.7561462E-02  0.1244059E+00
          1   -1    0    0  501    0  0.00000000000E+00  0.00000000000E+00  0.41150716460E+03  0.41150716460E+03  0.00000000000E+00 0.  1.
         -1   -1    0    0    0  501 -0.00000000000E+00 -0.00000000000E+00 -0.51510786172E+02  0.51510786172E+02  0.00000000000E+00 0. -1.
         25    2    1    2    0    0  0.14033167358E+02 -0.91411684137E+02  0.24169089218E+03  0.28742834628E+03  0.12509013189E+03 0.  0.
          5    1    3    3  502    0  0.47594147265E+02 -0.71471636932E+02  0.68727920839E+02  0.11006542256E+03  0.41800000000E+01 0.  1.
         -5    1    3    3    0  502 -0.33560979907E+02 -0.19940047205E+02  0.17296297134E+03  0.17736292372E+03  0.41800000000E+01 0.  1.
        -11    1    1    2    0    0  0.25816945227E+01 -0.10263000413E+02  0.52017066858E+02  0.53082667308E+02  0.00000000000E+00 0.  1.
         11    1    1    2    0    0 -0.16614861880E+02  0.10167468455E+03  0.66288419385E+02  0.12250693718E+03  0.00000000000E+00 0. -1.
</event>
<event>
 7    1  0.2601031E-009  0.9603649E+02  0.7561462E-02  0.1288859E+00
          3   -1    0    0  501    0  0.00000000000E+00  0.00000000000E+00  0.13001425192E+03  0.13001425192E+03  0.00000000000E+00 0. -1.
         -3   -1    0    0    0  501 -0.00000000000E+00 -0.00000000000E+00 -0.16161053404E+03  0.16161053404E+03  0.00000000000E+00 0.  1.
         25    2    1    2    0    0 -0.24135910951E+02 -0.90375419424E+02 -0.34452292266E+02  0.15995611444E+03  0.12509492185E+03 0.  0.
          5    1    3    3  502    0 -0.23972206526E+02 -0.90823157277E+02 -0.74329456638E+02  0.11985763683E+03  0.41800000000E+01 0. -1.
         -5    1    3    3    0  502 -0.16370442467E+00  0.44773785332E+00  0.39877164372E+02  0.40098477610E+02  0.41800000000E+01 0. -1.
        -11    1    1    2    0    0  0.62167542943E+01  0.12915723432E+02 -0.39190608665E+02  0.41729698696E+02  0.00000000000E+00 0.  1.
         11    1    1    2    0    0  0.17919156657E+02  0.77459695991E+02  0.42046618816E+02  0.89938972822E+02  0.00000000000E+00 0. -1.
</event>
<event>
 7    1  0.2601031E-009  0.1646366E+03  0.7561462E-02  0.1183559E+00
          4   -1    0    0  501    0  0.00000000000E+00  0.00000000000E+00  0.98512706724E+02  0.98512706724E+02  0.00000000000E+00 0. -1.
         -4   -1    0    0    0  501 -0.00000000000E+00 -0.00000000000E+00 -0.33210928105E+03  0.33210928105E+03  0.00000000000E+00 0.  1.
         25    2    1    2    0    0  0.48797387293E+02 -0.12637463558E+03 -0.64030908479E+02  0.19518959306E+03  0.12508911412E+03 0.  0.
          5    1    3    3  502    0 -0.21780625348E+02 -0.79524487487E+00  0.18696961811E+02  0.29018560197E+02  0.41800000000E+01 0.  1.
         -5    1    3    3    0  502  0.70578012641E+02 -0.12557939071E+03 -0.82727870290E+02  0.16617103286E+03  0.41800000000E+01 0.  1.
        -11    1    1    2    0    0  0.15587799743E+02  0.85036205866E+02 -0.97738590266E+02  0.13048742405E+03  0.00000000000E+00 0.  1.
         11    1    1    2    0    0 -0.64385187036E+02  0.41338429718E+02 -0.71827075584E+02  0.10494497067E+03  0.00000000000E+00 0. -1.
</event>
<event>
 7    1  0.2601031E-009  0.1057890E+03  0.7561462E-02  0.1268573E+00
         -1   -1    0    0    0  501 -0.00000000000E+00  0.00000000000E+00  0.12562982104E+03  0.12562982104E+03  0.00000000000E+00 0.  1.
          1   -1    0    0  501    0  0.00000000000E+00 -0.00000000000E+00 -0.14767814755E+03  0.14767814755E+03  0.00000000000E+00 0. -1.
         25    2    1    2    0    0 -0.20213396812E+02  0.47794920979E+02 -0.78541604848E+02  0.15654685460E+03  0.12508076636E+03 0.  0.
          5    1    3    3  502    0 -0.58842041281E+02  0.67577527367E+02 -0.65388808413E+02  0.11100575072E+03  0.41800000000E+01 0.  1.
         -5    1    3    3    0  502  0.38628644469E+02 -0.19782606387E+02 -0.13152796435E+02  0.45541103885E+02  0.41800000000E+01 0.  1.
        -11    1    1    2    0    0 -0.20042070646E+02 -0.24900700835E+02  0.62365601605E+02  0.70079938366E+02  0.00000000000E+00 0.  1.
         11    1    1    2    0    0  0.40255467459E+02 -0.22894220145E+02 -0.58723232647E+01  0.46681175616E+02  0.00000000000E+00 0. -1.
</event>
<event>
 7    1  0.2601031E-009  0.1030977E+03  0.7561462E-02  0.1273914E+00
          4   -1    0    0  501    0  0.00000000000E+00  0.00000000000E+00  0.19241830348E+03  0.19241830348E+03  0.00000000000E+00 0. -1.
         -4   -1    0    0    0  501 -0.00000000000E+00 -0.00000000000E+00 -0.73229192934E+02  0.73229192934E+02  0.00000000000E+00 0.  1.
         25    2    1    2    0    0 -0.10946325520E+02 -0.37767845496E+02  0.41081636956E+02  0.13741731329E+03  0.12509830095E+03 0.  0.
          5    1    3    3  502    0 -0.64601883300E+02 -0.41864309772E+02  0.26288791647E+02  0.81453033859E+02  0.41800000000E+01 0. -1.
         -5    1    3    3    0  502  0.53655557779E+02  0.40964642761E+01  0.14792845309E+02  0.55964279433E+02  0.41800000000E+01 0. -1.
        -11    1    1    2    0    0 -0.25218540300E+02  0.27967261925E+02  0.82320098950E+02  0.90524809890E+02  0.00000000000E+00 0. -1.
         11    1    1    2    0    0  0.36164865821E+02  0.98005835708E+01 -0.42126253599E+01  0.37705373232E+02  0.00000000000E+00 0.  1.
</event>
<event>
 7    1  0.2601031E-009  0.2437834E+03  0.7561462E-02  0.1117298E+00
          2   -1    0    0  501    0  0.00000000000E+00  0.00000000000E+00  0.13235252946E+04  0.13235252946E+04  0.00000000000E+00 0. -1.
         -2   -1    0    0    0  501 -0.00000000000E+00 -0.00000000000E+00 -0.54518969361E+02  0.54518969361E+02  0.00000000000E+00 0.  1.
         25    2    1    2    0    0 -0.10400014358E+03 -0.21895574282E+03  0.55777603837E+03  0.62090219763E+03  0.12509109827E+03 0.  0.
          5    1    3    3  502    0 -0.52205006984E+02 -0.93864656282E+02  0.39384480832E+03  0.40824887250E+03  0.41800000000E+01 0.  1.
         -5    1    3    3    0  502 -0.51795136592E+02 -0.12509108654E+03  0.16393123005E+03  0.21265332513E+03  0.41800000000E+01 0.  1.
        -11    1    1    2    0    0  0.76013806755E+02  0.12228605553E+03  0.28643909288E+03  0.32059215855E+03  0.00000000000E+00 0.  1.
         11    1    1    2    0    0  0.27986336821E+02  0.96669687286E+02  0.42479119394E+03  0.43654990773E+03  0.00000000000E+00 0. -1.
</event>
<event>
 7    1  0.2766896E-009  0.7872436E+02  0.7561462E-02  0.1332711E+00
         -4   -1    0    0    0  501 -0.00000000000E+00  0.00000000000E+00  0.18991124287E+02  0.18991124287E+02  0.00000000000E+00 0.  1.
          4   -1    0    0  501    0  0.00000000000E+00 -0.00000000000E+00 -0.81377634149E+03  0.81377634149E+03  0.00000000000E+00 0. -1.
         25    2    1    2    0    0 -0.10821757384E+02  0.57463191998E+02 -0.50238402473E+03  0.52101502561E+03  0.12509124566E+03 0.  0.
          5    1    3    3  502    0 -0.19601634290E+02  0.49915346333E+01 -0.43295131512E+03  0.43344371394E+03  0.41800000000E+01 0. -1.
         -5    1    3    3    0  502  0.87798769060E+01  0.52471657365E+02 -0.69432709609E+02  0.87571311677E+02  0.41800000000E+01 0. -1.
        -11    1    1    2    0    0 -0.24666895666E+02 -0.19343844630E+02 -0.27252962079E+02  0.41537501236E+02  0.00000000000E+00 0.  1.
         11    1    1    2    0    0  0.35488653049E+02 -0.38119347368E+02 -0.26514823039E+03  0.27021493893E+03  0.00000000000E+00 0. -1.
</event>
<event>
 7    1  0.2601031E-009  0.9927438E+02  0.7561462E-02  0.1281829E+00
          2   -1    0    0  501    0  0.00000000000E+00  0.00000000000E+00  0.31939213078E+03  0.31939213078E+03  0.00000000000E+00 0. -1.
         -2   -1    0    0    0  501 -0.00000000000E+00 -0.00000000000E+00 -0.49287180952E+02  0.49287180952E+02  0.00000000000E+00 0.  1.
         25    2    1    2    0    0  0.38395737046E+02 -0.24476476724E+02  0.84877727120E+02  0.15787822288E+03  0.12509186289E+03 0.  0.
          5    1    3    3  502    0 -0.37369236411E+02 -0.97539066962E+01  0.68678397288E+02  0.78903695603E+02  0.41800000000E+01 0.  1.
         -5    1    3    3    0  502  0.75764973457E+02 -0.14722570028E+02  0.16199329833E+02  0.78974527275E+02  0.41800000000E+01 0.  1.
        -11    1    1    2    0    0 -0.16429938055E+02  0.47694245821E+02  0.47069128881E+02  0.68994107303E+02  0.00000000000E+00 0.  1.
         11    1    1    2    0    0 -0.21965798992E+02 -0.23217769097E+02  0.13815809382E+03  0.14180698155E+03  0.00000000000E+00 0. -1.
</event>
<event>
 7    1  0.2601031E-009  0.1549470E+03  0.7561462E-02  0.1194523E+00
         -3   -1    0    0    0  501 -0.00000000000E+00  0.00000000000E+00  0.15953135070E+03  0.15953135070E+03  0.00000000000E+00 0.  1.
          3   -1    0    0  501    0  0.00000000000E+00 -0.00000000000E+00 -0.20174398771E+03  0.20174398771E+03  0.00000000000E+00 0. -1.
         25    2    1    2    0    0 -0.12731566719E+03  0.57392082823E+02 -0.48833349200E+02  0.19373973116E+03  0.12508899694E+03 0.  0.
          5    1    3    3  502    0 -0.74669532309E+02 -0.17564311550E+02  0.19650837168E+02  0.79294841553E+02  0.41800000000E+01 0.  1.
         -5    1    3    3    0  502 -0.52646134877E+02  0.74956394373E+02 -0.68484186368E+02  0.11444488961E+03  0.41800000000E+01 0.  1.
        -11    1    1    2    0    0  0.26374337881E+02 -0.25361380632E+01  0.39929128306E+02  0.47920486039E+02  0.00000000000E+00 0.  1.
         11    1    1    2    0    0  0.10094132930E+03 -0.54855944760E+02 -0.33308416113E+02  0.11961512121E+03  0.00000000000E+00 0. -1.
</event>
<event>
 7    1  0.2601031E-009  0.1272258E+03  0.7561462E-02  0.1231631E+00
          1   -1    0    0  501    0  0.00000000000E+00  0.00000000000E+00  0.24982811337E+03  0.24982811337E+03  0.00000000000E+00 0. -1.
         -1   -1    0    0    0  501 -0.00000000000E+00 -0.00000000000E+00 -0.75181773850E+02  0.75181773850E+02  0.00000000000E+00 0.  1.
         25    2    1    2    0    0  0.43506356356E+02 -0.66338615585E+02  0.64999759109E+02  0.16176028986E+03  0.12509119766E+03 0.  0.
          5    1    3    3  502    0  0.82536322189E+02 -0.41131882331E+02  0.68542035613E+02  0.11497634222E+03  0.41800000000E+01 0. -1.
         -5    1    3    3    0  502 -0.39029965833E+02 -0.25206733254E+02 -0.35422765036E+01  0.46783947643E+02  0.41800000000E+01 0. -1.
        -11    1    1    2    0    0 -0.48449716806E+01  0.75583299346E+02  0.93542991589E+02  0.12036029315E+03  0.00000000000E+00 0.  1.
         11    1    1    2    0    0 -0.38661384675E+02 -0.92446837615E+01  0.16103588825E+02  0.42889304213E+02  0.00000000000E+00 0. -1.
</event>
<event>
 7    1  0.2601031E-009  0.1438362E+03  0.7561462E-02  0.1208258E+00
         -1   -1    0    0    0  501 -0.00000000000E+00  0.00000000000E+00  0.36724527142E+02  0.36724527142E+02  0.00000000000E+00 0.  1.
          1   -1    0    0  501    0  0.00000000000E+00 -0.00000000000E+00 -0.64346399273E+03  0.64346399273E+03  0.00000000000E+00 0. -1.
         25    2    1    2    0    0 -0.92909029775E+02 -0.52101676186E+02 -0.28140814784E+03  0.32586297198E+03  0.12509779519E+03 0.  0.
          5    1    3    3  502    0  0.20698222221E+02 -0.32614910611E+02 -0.29433311936E+02  0.48743625725E+02  0.41800000000E+01 0. -1.
         -5    1    3    3    0  502 -0.11360725200E+03 -0.19486765575E+02 -0.25197483591E+03  0.27711934626E+03  0.41800000000E+01 0. -1.
        -11    1    1    2    0    0  0.74047480013E+02 -0.41330497244E+01 -0.12446534389E+03  0.14488524158E+03  0.00000000000E+00 0. -1.
         11    1    1    2    0    0  0.18861549762E+02  0.56234725911E+02 -0.20086597385E+03  0.20944030631E+03  0.00000000000E+00 0.  1.
</event>
<event>
 7    1  0.2601031E-009  0.4513586E+03  0.7561462E-02  0.1027318E+00
          1   -1    0    0  501    0  0.00000000000E+00  0.00000000000E+00  0.34368534479E+03  0.34368534479E+03  0.00000000000E+00 0. -1.
         -1   -1    0    0    0  501 -0.00000000000E+00 -0.00000000000E+00 -0.60611716841E+03  0.60611716841E+03  0.00000000000E+00 0.  1.
         25    2    1    2    0    0 -0.49024158743E+02  0.43982320573E+03 -0.15693262913E+03  0.48592667507E+03  0.12509621507E+03 0.  0.
          5    1    3    3  502    0  0.41768350401E+02  0.13227634672E+03 -0.56931895388E+02  0.15000113369E+03  0.41800000000E+01 0. -1.
         -5    1    3    3    0  502 -0.90792509144E+02  0.30754685901E+03 -0.10000073374E+03  0.33592554139E+03  0.41800000000E+01 0. -1.
        -11    1    1    2    0    0  0.46689282764E+02 -0.31901938597E+03 -0.11586726911E+03  0.34260543166E+03  0.00000000000E+00 0. -1.
         11    1    1    2    0    0  0.23348759787E+01 -0.12080381976E+03  0.10368074618E+02  0.12127040647E+03  0.00000000000E+00 0.  1.
</event>
<event>
 7    1  0.2601031E-009  0.1707309E+03  0.7561462E-02  0.1177088E+00
         -2   -1    0    0    0  501 -0.00000000000E+00  0.00000000000E+00  0.15728509954E+03  0.15728509954E+03  0.00000000000E+00 0. -1.
          2   -1    0    0  501    0  0.00000000000E+00 -0.00000000000E+00 -0.20019472727E+03  0.20019472727E+03  0.00000000000E+00 0.  1.
         25    2    1    2    0    0  0.13199867156E+03  0.44003907147E+02 -0.40023151410E+02  0.19133522454E+03  0.12508925759E+03 0.  0.
          5    1    3    3  502    0 -0.12276415351E+01 -0.30864156712E+02  0.58668303016E+01  0.31717430083E+02  0.41800000000E+01 0.  1.
         -5    1    3    3    0  502  0.13322631309E+03  0.74868063858E+02 -0.45889981712E+02  0.15961779446E+03  0.41800000000E+01 0.  1.
        -11    1    1    2    0    0 -0.10094457470E+03 -0.64877538965E+02 -0.25152666569E+02  0.12260325795E+03  0.00000000000E+00 0. -1.
         11    1    1    2    0    0 -0.31054096858E+02  0.20873631818E+02  0.22266190246E+02  0.43541344318E+02  0.00000000000E+00 0.  1.
</event>
<event>
 7    1  0.2601031E-009  0.9866349E+02  0.7561462E-02  0.1283132E+00
          1   -1    0    0  501    0  0.00000000000E+00  0.00000000000E+00  0.47475045418E+03  0.47475045418E+03  0.00000000000E+00 0. -1.
         -1   -1    0    0    0  501 -0.00000000000E+00 -0.00000000000E+00 -0.29645893825E+02  0.29645893825E+02  0.00000000000E+00 0.  1.
         25    2    1    2    0    0  0.34568799413E+02 -0.17096569974E+02  0.19144273222E+03  0.23191702836E+03  0.12509154139E+03 0.  0.
          5    1    3    3  502    0  0.37584100678E+02 -0.53264178188E+02  0.41049861179E+02  0.77150507481E+02  0.41800000000E+01 0. -1.
         -5    1    3    3    0  502 -0.30153012649E+01  0.36167608213E+02  0.15039287104E+03  0.15476652088E+03  0.41800000000E+01 0. -1.
        -11    1    1    2    0    0 -0.55815539042E+02 -0.14246629523E+02  0.18859556177E+03  0.19719692383E+03  0.00000000000E+00 0. -1.
         11    1    1    2    0    0  0.21246739630E+02  0.31343199498E+02  0.65066266369E+02  0.75282395810E+02  0.00000000000E+00 0.  1.
</event>
<event>
 7    1  0.2601031E-009  0.1023593E+03  0.7561462E-02  0.1275412E+00
          2   -1    0    0  501    0  0.00000000000E+00  0.00000000000E+00  0.12911837193E+04  0.12911837193E+04  0.00000000000E+00 0. -1.
         -2   -1    0    0    0  501 -0.00000000000E+00 -0.00000000000E+00 -0.10140055022E+02  0.10140055022E+02  0.00000000000E+00 0.  1.
         25    2    1    2    0    0  0.65191301028E+01 -0.25207210174E+02  0.89293364970E+03  0.90202838387E+03  0.12508716974E+03 0.  0.
          5    1    3    3  502    0  0.43085243694E+02 -0.50644958952E+02  0.73094329283E+03  0.73397331002E+03  0.41800000000E+01 0. -1.
         -5    1    3    3    0  502 -0.36566113591E+02  0.25437748778E+02  0.16199035687E+03  0.16805507384E+03  0.41800000000E+01 0. -1.
        -11    1    1    2    0    0  0.28199419464E+02 -0.21284609504E+02  0.12755039896E+03  0.13235311154E+03  0.00000000000E+00 0.  1.
         11    1    1    2    0    0 -0.34718549567E+02  0.46491819677E+02  0.26055961559E+03  0.26694227889E+03  0.00000000000E+00 0. -1.
</event>
<event>
 7    1  0.2601031E-009  0.1279252E+03  0.7561462E-02  0.1230567E+00
         -2   -1    0    0    0  501 -0.00000000000E+00  0.00000000000E+00  0.89631872762E+02  0.89631872762E+02  0.00000000000E+00 0.  1.
          2   -1    0    0  501    0  0.00000000000E+00 -0.00000000000E+00 -0.31123130011E+03  0.31123130011E+03  0.00000000000E+00 0. -1.
         25    2    1    2    0    0  0.11079138051E+02 -0.12447923018E+03 -0.14774780007E+03  0.23042208783E+03  0.12508836912E+03 0.  0.
          5    1    3    3  502    0 -0.29851861266E+01 -0.35645998579E+01 -0.99048593113E+02  0.99245724875E+02  0.41800000000E+01 0.  1.
         -5    1    3    3    0  502  0.14064324177E+02 -0.12091463032E+03 -0.48699206959E+02  0.13117636296E+03  0.41800000000E+01 0.  1.
        -11    1    1    2    0    0 -0.15563793078E+02  0.36206255245E+02  0.17685552010E+02  0.43196103108E+02  0.00000000000E+00 0.  1.
         11    1    1    2    0    0  0.44846550272E+01  0.88272974934E+02 -0.91537179283E+02  0.12724498193E+03  0.00000000000E+00 0. -1.
</event>
<event>
 7    1  0.2601031E-009  0.1935867E+03  0.7561462E-02  0.1155266E+00
         -2   -1    0    0    0  501 -0.00000000000E+00  0.00000000000E+00  0.31588956069E+02  0.31588956069E+02  0.00000000000E+00 0.  1.
          2   -1    0    0  501    0  0.00000000000E+00 -0.00000000000E+00 -0.12785639142E+04  0.12785639142E+04  0.00000000000E+00 0. -1.
         25    2    1    2    0    0 -0.12177669590E+03  0.10228321535E+03 -0.82380311816E+03  0.84828748024E+03  0.12509457154E+03 0.  0.
          5    1    3    3  502    0  0.22554950081E+02  0.37443090621E+02 -0.16608609357E+03  0.17179282198E+03  0.41800000000E+01 0. -1.
         -5    1    3    3    0  502 -0.14433164598E+03  0.64840124731E+02 -0.65771702460E+03  0.67649465826E+03  0.41800000000E+01 0. -1.
        -11    1    1    2    0    0 -0.86158469297E+00 -0.52684664001E+02 -0.11468831371E+03  0.12621341233E+03  0.00000000000E+00 0.  1.
         11    1    1    2    0    0  0.12263828060E+03 -0.49598551351E+02 -0.30848352624E+03  0.33565197769E+03  0.00000000000E+00 0. -1.
</event>
<event>
 7    1  0.2601031E-009  0.1188375E+03  0.7561462E-02  0.1245027E+00
         -1   -1    0    0    0  501 -0.00000000000E+00  0.00000000000E+00  0.14104158223E+03  0.14104158223E+03  0.00000000000E+00 0.  1.
          1   -1    0    0  501    0  0.00000000000E+00 -0.00000000000E+00 -0.14533983626E+03  0.14533983626E+03  0.00000000000E+00 0. -1.
         25    2    1    2    0    0 -0.60753530247E+02 -0.32338030839E+02 -0.60540173714E+02  0.15507817722E+03  0.12508952290E+03 0.  0.
          5    1    3    3  502    0  0.10921609165E+01  0.40256359142E+02  0.26914527105E+01  0.40576884855E+02  0.41800000000E+01 0.  1.
         -5    1    3    3    0  502 -0.61845691164E+02 -0.72594389981E+02 -0.63231626425E+02  0.11450129236E+03  0.41800000000E+01 0.  1.
        -11    1    1    2    0    0  0.24283136113E+02  0.54071539461E+02 -0.19075674304E+01  0.59304644781E+02  0.00000000000E+00 0. -1.
         11    1    1    2    0    0  0.36470394134E+02 -0.21733508621E+02  0.58149487113E+02  0.71998596492E+02  0.00000000000E+00 0.  1.
</event>
<event>
 7    1  0.2601031E-009  0.1314451E+03  0.7561462E-02  0.1225327E+00
          2   -1    0    0  501    0  0.00000000000E+00  0.00000000000E+00  0.16392211164E+03  0.16392211164E+03  0.00000000000E+00 0.  1.
         -2   -1    0    0    0  501 -0.00000000000E+00 -0.00000000000E+00 -0.30037654859E+03  0.30037654859E+03  0.00000000000E+00 0. -1.
         25    2    1    2    0    0  0.10564045363E+03  0.44537984200E+02  0.91912767764E+02  0.19297407647E+03  0.12508996695E+03 0.  0.
          5    1    3    3  502    0  0.65411030295E+02  0.57639406468E+02 -0.47111018479E+01  0.87410359471E+02  0.41800000000E+01 0. -1.
         -5    1    3    3    0  502  0.40229423332E+02 -0.13101422268E+02  0.96623869612E+02  0.10556371700E+03  0.41800000000E+01 0. -1.
        -11    1    1    2    0    0  0.30623138173E+01 -0.21828565752E+02 -0.61174561974E+01  0.22875474182E+02  0.00000000000E+00 0.  1.
         11    1    1    2    0    0 -0.10870276744E+03 -0.22709418448E+02 -0.22224974851E+03  0.24844910958E+03  0.00000000000E+00 0. -1.
</event>
<event>
 7    1  0.2601031E-009  0.1159624E+03  0.7561462E-02  0.1249910E+00
         -1   -1    0    0    0  501 -0.00000000000E+00  0.00000000000E+00  0.20754008790E+03  0.20754008790E+03  0.00000000000E+00 0.  1.
          1   -1    0    0  501    0  0.00000000000E+00 -0.00000000000E+00 -0.79993901607E+02  0.79993901607E+02  0.00000000000E+00 0. -1.
         25    2    1    2    0    0 -0.26688708455E+02  0.48159965208E+02  0.62922743416E+02  0.15045952974E+03  0.12508848485E+03 0.  0.
          5    1    3    3  502    0 -0.15131124396E+02 -0.32286429282E+02  0.58902192125E+02  0.68980468818E+02  0.41800000000E+01 0.  1.
         -5    1    3    3    0  502 -0.11557584059E+02  0.80446394490E+02  0.40205512916E+01  0.81479060920E+02  0.41800000000E+01 0.  1.
        -11    1    1    2    0    0  0.61961580817E+01  0.31647394943E+02  0.39377281734E+02  0.50897154129E+02  0.00000000000E+00 0.  1.
         11    1    1    2    0    0  0.20492550373E+02 -0.79807360151E+02  0.25246161144E+02  0.86177305641E+02  0.00000000000E+00 0. -1.
</event>
<event>
 7    1  0.2601031E-009  0.2101076E+03  0.7561462E-02  0.1141481E+00
          1   -1    0    0  501    0  0.00000000000E+00  0.00000000000E+00  0.33948815285E+03  0.33948815285E+03  0.00000000000E+00 0. -1.
         -1   -1    0    0    0  501 -0.00000000000E+00 -0.00000000000E+00 -0.15005910212E+03  0.15005910212E+03  0.00000000000E+00 0.  1.
         25    2    1    2    0    0  0.14842194851E+03 -0.12556443552E+03  0.60828191416E+02  0.23904466125E+03  0.12508708540E+03 0.  0.
          5    1    3    3  502    0  0.13001739049E+03 -0.13496575137E+03  0.14340142091E+02  0.18799837220E+03  0.41800000000E+01 0. -1.
         -5    1    3    3    0  502  0.18404558019E+02  0.94013158533E+01  0.46488049326E+02  0.51046289050E+02  0.41800000000E+01 0. -1.
        -11    1    1    2    0    0 -0.13230903237E+03  0.13810941305E+03  0.10135917183E+03  0.21645685883E+03  0.00000000000E+00 0.  1.
         11    1    1    2    0    0 -0.16112916143E+02 -0.12544977536E+02  0.27241687477E+02  0.34045734896E+02  0.00000000000E+00 0. -1.
</event>
<event>
 7    1  0.2601031E-009  0.1100868E+03  0.7561462E-02  0.1260409E+00
         -1   -1    0    0    0  501 -0.00000000000E+00  0.00000000000E+00  0.28204207601E+03  0.28204207601E+03  0.00000000000E+00 0.  1.
          1   -1    0    0  501    0  0.00000000000E+00 -0.00000000000E+00 -0.69010433671E+02  0.69010433671E+02  0.00000000000E+00 0. -1.
         25    2    1    2    0    0  0.36919561131E+02  0.57640788264E+02  0.52516950288E+02  0.15195706752E+03  0.12508959124E+03 0.  0.
          5    1    3    3  502    0 -0.87643482384E+01 -0.14474660180E+02  0.63440928693E+02  0.65791742801E+02  0.41800000000E+01 0.  1.
         -5    1    3    3    0  502  0.45683909369E+02  0.72115448444E+02 -0.10923978405E+02  0.86165324718E+02  0.41800000000E+01 0.  1.
        -11    1    1    2    0    0 -0.63881117751E+02 -0.13103521587E+02  0.79941505479E+02  0.10316561337E+03  0.00000000000E+00 0.  1.
         11    1    1    2    0    0  0.26961556620E+02 -0.44537266676E+02  0.80573186577E+02  0.95929828799E+02  0.00000000000E+00 0. -1.
</event>
<event>
 7    1  0.2601031E-009  0.1137783E+03  0.7561462E-02  0.1253729E+00
          1   -1    0    0  501    0  0.00000000000E+00  0.00000000000E+00  0.50639647138E+03  0.50639647138E+03  0.00000000000E+00 0. -1.
         -1   -1    0    0    0  501 -0.00000000000E+00 -0.00000000000E+00 -0.26373169722E+02  0.26373169722E+02  0.00000000000E+00 0.  1.
         25    2    1    2    0    0  0.10986675986E+02 -0.38721981834E+02  0.28699976958E+03  0.31565238082E+03  0.12508980316E+03 0.  0.
          5    1    3    3  502    0  0.31604794982E+02  0.39198157575E+02  0.11839978336E+03  0.12872971577E+03  0.41800000000E+01 0. -1.
         -5    1    3    3    0  502 -0.20618118996E+02 -0.77920139408E+02  0.16859998622E+03  0.18692266505E+03  0.41800000000E+01 0. -1.
        -11    1    1    2    0    0 -0.21544907300E+02  0.64746016147E+02  0.15883853901E+03  0.17287542079E+03  0.00000000000E+00 0. -1.
         11    1    1    2    0    0  0.10558231314E+02 -0.26024034313E+02  0.34184993063E+02  0.44241839486E+02  0.00000000000E+00 0.  1.
</event>
<event>
 7    1  0.2601031E-009  0.1270928E+03  0.7561462E-02  0.1231834E+00
         -2   -1    0    0    0  501 -0.00000000000E+00  0.00000000000E+00  0.35534464584E+03  0.35534464584E+03  0.00000000000E+00 0.  1.
          2   -1    0    0  501    0  0.00000000000E+00 -0.00000000000E+00 -0.10145556832E+03  0.10145556832E+03  0.00000000000E+00 0. -1.
         25    2    1    2    0    0 -0.88188370048E+02 -0.66949507036E+02  0.26452754136E+03  0.31286400903E+03  0.12509853278E+03 0.  0.
          5    1    3    3  502    0 -0.10179729356E+03 -0.75412106367E+02  0.14669201520E+03  0.19387030326E+03  0.41800000000E+01 0. -1.
         -5    1    3    3    0  502  0.13608923516E+02  0.84625993310E+01  0.11783552616E+03  0.11899370577E+03  0.41800000000E+01 0. -1.
        -11    1    1    2    0    0  0.72885095865E+02  0.57941304424E+02  0.31431559559E+02  0.98271943575E+02  0.00000000000E+00 0.  1.
         11    1    1    2    0    0  0.15303274183E+02  0.90082026119E+01 -0.42070023393E+02  0.45664261554E+02  0.00000000000E+00 0. -1.
</event>
<event>
 7    1  0.2601031E-009  0.1096905E+03  0.7561462E-02  0.1261144E+00
          2   -1    0    0  501    0  0.00000000000E+00  0.00000000000E+00  0.37671337216E+03  0.37671337216E+03  0.00000000000E+00 0. -1.
         -2   -1    0    0    0  501 -0.00000000000E+00 -0.00000000000E+00 -0.49549223987E+02  0.49549223987E+02  0.00000000000E+00 0.  1.
         25    2    1    2    0    0 -0.53454126146E+01  0.75404689765E+02  0.24034822467E+03  0.28130157336E+03  0.12509542516E+03 0.  0.
          5    1    3    3  502    0 -0.43474052665E+02  0.32453692745E+02  0.27823531274E+02  0.61113474132E+02  0.41800000000E+01 0. -1.
         -5    1    3    3    0  502  0.38128640051E+02  0.42950997020E+02  0.21252469340E+03  0.22018809922E+03  0.41800000000E+01 0. -1.
        -11    1    1    2    0    0 -0.34241396094E+02 -0.49075062456E+02  0.20277233991E+02  0.63182285333E+02  0.00000000000E+00 0. -1.
         11    1    1    2    0    0  0.39586808709E+02 -0.26329627309E+02  0.66538689511E+02  0.81778737455E+02  0.00000000000E+00 0.  1.
</event>
<event>
 7    1  0.2601031E-009  0.6466636E+02  0.7561462E-02  0.1379231E+00
         -1   -1    0    0    0  501 -0.00000000000E+00  0.00000000000E+00  0.91455657103E+02  0.91455657103E+02  0.00000000000E+00 0.  1.
          1   -1    0    0  501    0  0.00000000000E+00 -0.00000000000E+00 -0.13923287821E+03  0.13923287821E+03  0.00000000000E+00 0. -1.
         25    2    1    2    0    0  0.10595996552E+02  0.29013258824E+02 -0.33058662997E+02  0.13302128213E+03  0.12509093481E+03 0.  0.
          5    1    3    3  502    0  0.14922867728E+02 -0.32472544979E+02 -0.56466537991E+02  0.66955959192E+02  0.41800000000E+01 0. -1.
         -5    1    3    3    0  502 -0.43268711757E+01  0.61485803804E+02  0.23407874994E+02  0.66065322941E+02  0.41800000000E+01 0. -1.
        -11    1    1    2    0    0 -0.93045832218E+01 -0.16105145431E+02 -0.53570077212E+02  0.56707179006E+02  0.00000000000E+00 0. -1.
         11    1    1    2    0    0 -0.12914133303E+01 -0.12908113393E+02  0.38851519102E+02  0.40960074174E+02  0.00000000000E+00 0.  1.
</event>
<event>
 7    1  0.2601031E-009  0.1074197E+03  0.7561462E-02  0.1265424E+00
         -1   -1    0    0    0  501 -0.00000000000E+00  0.00000000000E+00  0.69486657454E+02  0.69486657454E+02  0.00000000000E+00 0.  1.
          1   -1    0    0  501    0  0.00000000000E+00 -0.00000000000E+00 -0.19582204611E+03  0.19582204611E+03  0.00000000000E+00 0. -1.
         25    2    1    2    0    0 -0.34930558772E+01  0.29333688568E+02 -0.38444687063E+02  0.13415705982E+03  0.12508979180E+03 0.  0.
          5    1    3    3  502    0 -0.31247195539E+02  0.68696353899E+02 -0.40534119278E+02  0.85767496721E+02  0.41800000000E+01 0. -1.
         -5    1    3    3    0  502  0.27754139661E+02 -0.39362665332E+02  0.20894322149E+01  0.48389563103E+02  0.41800000000E+01 0. -1.
        -11    1    1    2    0    0 -0.37727322777E+02 -0.32186109387E+02 -0.70793613039E+02  0.86435132721E+02  0.00000000000E+00 0.  1.
         11    1    1    2    0    0  0.41220378654E+02  0.28524208194E+01 -0.17097088559E+02  0.44716511024E+02  0.00000000000E+00 0. -1.
</event>
<event>
 7    1  0.2601031E-009  0.1080625E+03  0.7561462E-02  0.1264201E+00
          2   -1    0    0  501    0  0.00000000000E+00  0.00000000000E+00  0.84173282239E+03  0.84173282239E+03  0.00000000000E+00 0. -1.
         -2   -1    0    0    0  501 -0.00000000000E+00 -0.00000000000E+00 -0.19204014040E+02  0.19204014040E+02  0.00000000000E+00 0.  1.
         25    2    1    2    0    0 -0.76671054608E+01  0.46173991880E+02  0.62313565319E+03  0.63728798022E+03  0.12508839046E+03 0.  0.
          5    1    3    3  502    0 -0.15244380669E+02  0.88612184822E+02  0.40257101721E+03  0.41251109893E+03  0.41800000000E+01 0. -1.
         -5    1    3    3    0  502  0.75772752079E+01 -0.42438192942E+02  0.22056463598E+03  0.22477688129E+03  0.41800000000E+01 0. -1.
        -11    1    1    2    0    0 -0.15960874619E+02  0.12029039900E+02  0.68650913451E+01  0.21132363775E+02  0.00000000000E+00 0.  1.
         11    1    1    2    0    0  0.23627980080E+02 -0.58203031780E+02  0.19252806382E+03  0.20251649244E+03  0.00000000000E+00 0. -1.
</event>
<event>
 7    1  0.2601031E-009  0.1442815E+03  0.7561462E-02  0.1207681E+00
         -2   -1    0    0    0  501 -0.00000000000E+00  0.00000000000E+00  0.13398609169E+03  0.13398609169E+03  0.00000000000E+00 0. -1.
          2   -1    0    0  501    0  0.00000000000E+00 -0.00000000000E+00 -0.22353967565E+03  0.22353967565E+03  0.00000000000E+00 0.  1.
         25    2    1    2    0    0  0.59723028406E+02 -0.11687930214E+03 -0.61479499541E+02  0.19144940224E+03  0.12508210650E+03 0.  0.
          5    1    3    3  502    0  0.80701420911E+02 -0.10443035787E+03 -0.85217781804E+02  0.15715585168E+03  0.41800000000E+01 0. -1.
         -5    1    3    3    0  502 -0.20978392504E+02 -0.12448944271E+02  0.23738282263E+02  0.34293550565E+02  0.41800000000E+01 0. -1.
        -11    1    1    2    0    0 -0.34557596561E+02  0.54850438784E+02 -0.63151111843E+02  0.90503375859E+02  0.00000000000E+00 0.  1.
         11    1    1    2    0    0 -0.25165431846E+02  0.62028863353E+02  0.35077027427E+02  0.75572989235E+02  0.00000000000E+00 0. -1.
</event>
<event>
 7    1  0.2601031E-009  0.1602250E+03  0.7561462E-02  0.1188443E+00
          2   -1    0    0  501    0  0.00000000000E+00  0.00000000000E+00  0.79572311712E+03  0.79572311712E+03  0.00000000000E+00 0. -1.
         -2   -1    0    0    0  501 -0.00000000000E+00 -0.00000000000E+00 -0.72546466847E+02  0.72546466847E+02  0.00000000000E+00 0.  1.
         25    2    1    2    0    0  0.13606616145E+03 -0.50128857837E+02  0.65678927306E+03  0.68413948278E+03  0.12509108687E+03 0.  0.
          5    1    3    3  502    0 -0.11360675410E+02 -0.49374443816E+01  0.22927815223E+03  0.22965057542E+03  0.41800000000E+01 0.  1.
         -5    1    3    3    0  502  0.14742683686E+03 -0.45191413455E+02  0.42751112083E+03  0.45448890736E+03  0.41800000000E+01 0.  1.
        -11    1    1    2    0    0 -0.51200336766E+02 -0.57343874467E+01  0.64447810099E+02  0.82509865537E+02  0.00000000000E+00 0. -1.
         11    1    1    2    0    0 -0.84865824688E+02  0.55863245284E+02  0.19395671186E+01  0.10162023565E+03  0.00000000000E+00 0.  1.
</event>
<event>
 7    1  0.2601031E-009  0.1410336E+03  0.7561462E-02  0.1211945E+00
          3   -1    0    0  501    0  0.00000000000E+00  0.00000000000E+00  0.10163707613E+04  0.10163707613E+04  0.00000000000E+00 0. -1.
         -3   -1    0    0    0  501 -0.00000000000E+00 -0.00000000000E+00 -0.20536057451E+02  0.20536057451E+02  0.00000000000E+00 0.  1.
         25    2    1    2    0    0  0.62100516522E+02 -0.67818457363E+02  0.44559754604E+03  0.47186892142E+03  0.12508912284E+03 0.  0.
          5    1    3    3  502    0 -0.10007604680E+02  0.30509431240E+02  0.11521677133E+03  0.11968021700E+03  0.41800000000E+01 0.  1.
         -5    1    3    3    0  502  0.72108121203E+02 -0.98327888602E+02  0.33038077471E+03  0.35218870442E+03  0.41800000000E+01 0.  1.
        -11    1    1    2    0    0 -0.50838292339E+02 -0.76207469792E+01  0.19135861791E+03  0.19814320175E+03  0.00000000000E+00 0.  1.
         11    1    1    2    0    0 -0.11262224184E+02  0.75439204342E+02  0.35887853994E+03  0.36689469563E+03  0.00000000000E+00 0. -1.
</event>
<event>
 7    1  0.2601031E-009  0.7551431E+02  0.7561462E-02  0.1342286E+00
          1   -1    0    0  501    0  0.00000000000E+00  0.00000000000E+00  0.35638319005E+03  0.35638319005E+03  0.00000000000E+00 0. -1.
         -1   -1    0    0    0  501 -0.00000000000E+00 -0.00000000000E+00 -0.49546658080E+02  0.49546658080E+02  0.00000000000E+00 0.  1.
         25    2    1    2    0    0  0.42518055765E+02 -0.57816936912E+02  0.13587059798E+03  0.19813803991E+03  0.12508908906E+03 0.  0.
          5    1    3    3  502    0  0.26109473193E+02 -0.10282667591E+02  0.14422678792E+03  0.14699073644E+03  0.41800000000E+01 0. -1.
         -5    1    3    3    0  502  0.16408582573E+02 -0.47534269322E+02 -0.83561899431E+01  0.51147303471E+02  0.41800000000E+01 0. -1.
        -11    1    1    2    0    0 -0.24117288556E+02  0.26155422068E+02  0.16724020392E+03  0.17098255911E+03  0.00000000000E+00 0. -1.
         11    1    1    2    0    0 -0.18400767209E+02  0.31661514844E+02  0.37257300703E+01  0.36809249118E+02  0.00000000000E+00 0.  1.
</event>
<event>
 7    1  0.2601031E-009  0.1382736E+03  0.7561462E-02  0.1215671E+00
         -1   -1    0    0    0  501 -0.00000000000E+00  0.00000000000E+00  0.43655202424E+03  0.43655202424E+03  0.00000000000E+00 0.  1.
          1   -1    0    0  501    0  0.00000000000E+00 -0.00000000000E+00 -0.49347035326E+02  0.49347035326E+02  0.00000000000E+00 0. -1.
         25    2    1    2    0    0 -0.79929150516E+02 -0.18783565704E+02  0.28457742322E+03  0.32151782745E+03  0.12509161490E+03 0.  0.
          5    1    3    3  502    0 -0.98656388102E+02 -0.51719514959E+02  0.20863738156E+03  0.23654813574E+03  0.41800000000E+01 0. -1.
         -5    1    3    3    0  502  0.18727237586E+02  0.32935949255E+02  0.75940041659E+02  0.84969691703E+02  0.41800000000E+01 0. -1.
        -11    1    1    2    0    0  0.10228933157E+03  0.94327953160E+01  0.92067842750E+02  0.13794409248E+03  0.00000000000E+00 0.  1.
         11    1    1    2    0    0 -0.22360181056E+02  0.93507703877E+01  0.10559722948E+02  0.26437139642E+02  0.00000000000E+00 0. -1.
</event>
<event>
 7    1  0.2601031E-009  0.9796545E+02  0.7561462E-02  0.1284633E+00
          2   -1    0    0  501    0  0.00000000000E+00  0.00000000000E+00  0.13802410275E+03  0.13802410275E+03  0.00000000000E+00 0. -1.
         -2   -1    0    0    0  501 -0.00000000000E+00 -0.00000000000E+00 -0.12000404751E+03  0.12000404751E+03  0.00000000000E+00 0.  1.
         25    2    1    2    0    0  0.27290132430E+02  0.68464195398E+01 -0.54373915483E+02  0.13926460383E+03  0.12508590011E+03 0.  0.
          5    1    3    3  502    0 -0.29145332790E+02  0.43158414845E+02  0.85423360626E+00  0.52252285218E+02  0.41800000000E+01 0. -1.
         -5    1    3    3    0  502  0.56435465221E+02 -0.36311995305E+02 -0.55228149089E+02  0.87012318608E+02  0.41800000000E+01 0. -1.
        -11    1    1    2    0    0 -0.76928602624E+01 -0.38476590829E+02  0.71481947429E+02  0.81543221356E+02  0.00000000000E+00 0. -1.
         11    1    1    2    0    0 -0.19597272168E+02  0.31630171289E+02  0.91202329916E+00  0.37220325075E+02  0.00000000000E+00 0.  1.
</event>
<event>
 7    1  0.2601031E-009  0.2896479E+03  0.7561462E-02  0.1090533E+00
         -2   -1    0    0    0  501 -0.00000000000E+00  0.00000000000E+00  0.21463337120E+03  0.21463337120E+03  0.00000000000E+00 0. -1.
          2   -1    0    0  501    0  0.00000000000E+00 -0.00000000000E+00 -0.43743016423E+03  0.43743016423E+03  0.00000000000E+00 0.  1.
         25    2    1    2    0    0 -0.11627552600E+03  0.25087006765E+03 -0.19144788438E+03  0.35882770997E+03  0.12509693931E+03 0.  0.
          5    1    3    3  502    0 -0.12968788920E+03  0.25584387942E+03 -0.17255803780E+03  0.33476676665E+03  0.41800000000E+01 0.  1.
         -5    1    3    3    0  502  0.13412363193E+02 -0.49738117771E+01 -0.18889846575E+02  0.24060943324E+02  0.41800000000E+01 0.  1.
        -11    1    1    2    0    0  0.41427970156E+02 -0.64163754324E+02 -0.49900026150E+02  0.91231993785E+02  0.00000000000E+00 0.  1.
         11    1    1    2    0    0  0.74847555847E+02 -0.18670631332E+03  0.18551117498E+02  0.20200383167E+03  0.00000000000E+00 0. -1.
</event>
<event>
 7    1  0.2601031E-009  0.8496954E+02  0.7561462E-02  0.1315512E+00
         -2   -1    0    0    0  501 -0.00000000000E+00  0.00000000000E+00  0.22241029879E+02  0.22241029879E+02  0.00000000000E+00 0.  1.
          2   -1    0    0  501    0  0.00000000000E+00 -0.00000000000E+00 -0.68784833825E+03  0.68784833825E+03  0.00000000000E+00 0. -1.
         25    2    1    2    0    0 -0.57212743375E+01  0.60779355697E+00 -0.52680717337E+03  0.54148500249E+03  0.12508839919E+03 0.  0.
          5    1    3    3  502    0 -0.31694617486E+02  0.43764820967E+02 -0.12151807865E+03  0.13305646986E+03  0.41800000000E+01 0. -1.
         -5    1    3    3    0  502  0.25973343149E+02 -0.43157027410E+02 -0.40528909472E+03  0.40842853263E+03  0.41800000000E+01 0. -1.
        -11    1    1    2    0    0 -0.12862778797E+02  0.28154987182E+02 -0.12946015050E+03  0.13310929700E+03  0.00000000000E+00 0. -1.
         11    1    1    2    0    0  0.18584053134E+02 -0.28762780739E+02 -0.93399844968E+01  0.35495068632E+02  0.00000000000E+00 0.  1.
</event>
<event>
 7    1  0.2601031E-009  0.1481339E+03  0.7561462E-02  0.1202785E+00
         -1   -1    0    0    0  501 -0.00000000000E+00  0.00000000000E+00  0.14402651852E+03  0.14402651852E+03  0.00000000000E+00 0.  1.
          1   -1    0    0  501    0  0.00000000000E+00 -0.00000000000E+00 -0.18341965580E+03  0.18341965580E+03  0.00000000000E+00 0. -1.
         25    2    1    2    0    0  0.83010904566E+02  0.70618634251E+02 -0.67003116087E+02  0.17892345778E+03  0.12508550835E+03 0.  0.
          5    1    3    3  502    0 -0.10714187191E+01  0.80967709802E+02 -0.33145574370E+02  0.87595773122E+02  0.41800000000E+01 0. -1.
         -5    1    3    3    0  502  0.84082323285E+02 -0.10349075550E+02 -0.33857541717E+02  0.91327684657E+02  0.41800000000E+01 0. -1.
        -11    1    1    2    0    0 -0.11054259518E+02 -0.55818143735E+02  0.45564941002E+02  0.72897363958E+02  0.00000000000E+00 0.  1.
         11    1    1    2    0    0 -0.71956645048E+02 -0.14800490517E+02 -0.17954962199E+02  0.75625352585E+02  0.00000000000E+00 0. -1.
</event>
<event>
 7    1  0.2601031E-009  0.8237126E+02  0.7561462E-02  0.1322454E+00
         -2   -1    0    0    0  501 -0.00000000000E+00  0.00000000000E+00  0.12496384961E+03  0.12496384961E+03  0.00000000000E+00 0.  1.
          2   -1    0    0  501    0  0.00000000000E+00 -0.00000000000E+00 -0.12847308095E+03  0.12847308095E+03  0.00000000000E+00 0. -1.
         25    2    1    2    0    0 -0.10504847482E+01  0.56464032461E+02  0.34167199269E+02  0.14143809878E+03  0.12509215723E+03 0.  0.
          5    1    3    3  502    0 -0.97810444079E+01  0.43515105755E+02 -0.43299674195E+02  0.62302226637E+02  0.41800000000E+01 0. -1.
         -5    1    3    3    0  502  0.87305596597E+01  0.12948926707E+02  0.77466873465E+02  0.79135872139E+02  0.41800000000E+01 0. -1.
        -11    1    1    2    0    0  0.39830248474E+02 -0.62244194170E+01 -0.24516460132E+02  0.47183142202E+02  0.00000000000E+00 0. -1.
         11    1    1    2    0    0 -0.38779763726E+02 -0.50239613044E+02 -0.13159970473E+02  0.64815689585E+02  0.00000000000E+00 0.  1.
</event>
<event>
 7    1  0.2601031E-009  0.2067354E+03  0.7561462E-02  0.1144178E+00
          1   -1    0    0  501    0  0.00000000000E+00  0.00000000000E+00  0.58420282866E+03  0.58420282866E+03  0.00000000000E+00 0. -1.
         -1   -1    0    0    0  501 -0.00000000000E+00 -0.00000000000E+00 -0.78071276053E+02  0.78071276053E+02  0.00000000000E+00 0.  1.
         25    2    1    2    0    0 -0.43255557116E+02  0.17816416655E+03  0.23784502831E+03  0.32531539274E+03  0.12508530610E+03 0.  0.
          5    1    3    3  502    0  0.43169556811E+02  0.70378189464E+02  0.10465184603E+03  0.13336484343E+03  0.41800000000E+01 0.  1.
         -5    1    3    3    0  502 -0.86425113927E+02  0.10778597709E+03  0.13319318228E+03  0.19195054931E+03  0.41800000000E+01 0.  1.
        -11    1    1    2    0    0  0.47777194227E+02 -0.72532432081E+02  0.67363731327E+02  0.10991581456E+03  0.00000000000E+00 0.  1.
         11    1    1    2    0    0 -0.45216371109E+01 -0.10563173447E+03  0.20092279297E+03  0.22704289741E+03  0.00000000000E+00 0. -1.
</event>
<event>
 7    1  0.2601031E-009  0.9843527E+02  0.7561462E-02  0.1283621E+00
          2   -1    0    0  501    0  0.00000000000E+00  0.00000000000E+00  0.53829868688E+03  0.53829868688E+03  0.00000000000E+00 0. -1.
         -2   -1    0    0    0  501 -0.00000000000E+00 -0.00000000000E+00 -0.28610205071E+02  0.28610205071E+02  0.00000000000E+00 0.  1.
         25    2    1    2    0    0 -0.42666035791E+02  0.21895855910E+02  0.19844733693E+03  0.23943345272E+03  0.12508882295E+03 0.  0.
          5    1    3    3  502    0 -0.62888685742E+02  0.47537943951E+02  0.18954455449E+03  0.20532767336E+03  0.41800000000E+01 0. -1.
         -5    1    3    3    0  502  0.20222649951E+02 -0.25642088041E+02  0.89027824403E+01  0.34105779354E+02  0.41800000000E+01 0. -1.
        -11    1    1    2    0    0  0.44988159936E+00 -0.39326540982E+02  0.57545235049E+02  0.69701027940E+02  0.00000000000E+00 0.  1.
         11    1    1    2    0    0  0.42216154192E+02  0.17430685072E+02  0.25369590983E+03  0.25777441130E+03  0.00000000000E+00 0. -1.
</event>
<event>
 7    1  0.2601031E-009  0.1646684E+03  0.7561462E-02  0.1183525E+00
          1   -1    0    0  501    0  0.00000000000E+00  0.00000000000E+00  0.11591852180E+04  0.11591852180E+04  0.00000000000E+00 0. -1.
         -1   -1    0    0    0  501 -0.00000000000E+00 -0.00000000000E+00 -0.27564039890E+02  0.27564039890E+02  0.00000000000E+00 0.  1.
         25    2    1    2    0    0 -0.12302950354E+03  0.39608282600E+02  0.80598391716E+03  0.82581062468E+03  0.12509211933E+03 0.  0.
          5    1    3    3  502    0 -0.98965421664E+02 -0.32092034018E+02  0.46782687502E+03  0.47927394121E+03  0.41800000000E+01 0.  1.
         -5    1    3    3    0  502 -0.24064081880E+02  0.71700316618E+02  0.33815704213E+03  0.34653668346E+03  0.41800000000E+01 0.  1.
        -11    1    1    2    0    0  0.60010358733E+02  0.19467212350E+02  0.18934650534E+03  0.19958034622E+03  0.00000000000E+00 0. -1.
         11    1    1    2    0    0  0.63019144811E+02 -0.59075494950E+02  0.13629075560E+03  0.16135828699E+03  0.00000000000E+00 0.  1.
</event>
<event>
 7    1  0.2601031E-009  0.9727365E+02  0.7561462E-02  0.1286136E+00
          1   -1    0    0  501    0  0.00000000000E+00  0.00000000000E+00  0.21867565307E+03  0.21867565307E+03  0.00000000000E+00 0. -1.
         -1   -1    0    0    0  501 -0.00000000000E+00 -0.00000000000E+00 -0.67255503078E+02  0.67255503078E+02  0.00000000000E+00 0.  1.
         25    2    1    2    0    0 -0.27879246506E+02 -0.16729739052E+02  0.13783671150E+03  0.18895169979E+03  0.12508656708E+03 0.  0.
          5    1    3    3  502    0  0.16811687312E+02  0.42640603713E+02  0.21394486257E+02  0.50754806250E+02  0.41800000000E+01 0. -1.
         -5    1    3    3    0  502 -0.44690933818E+02 -0.59370342764E+02  0.11644222524E+03  0.13819689354E+03  0.41800000000E+01 0. -1.
        -11    1    1    2    0    0 -0.15184852615E+02 -0.14422947108E+02  0.34090682742E+02  0.40009696350E+02  0.00000000000E+00 0. -1.
         11    1    1    2    0    0  0.43064099121E+02  0.31152686159E+02 -0.20507244252E+02  0.56969760003E+02  0.00000000000E+00 0.  1.
</event>
<event>
 7    1  0.3145787E-009  0.1038798E+03  0.7561462E-02  0.1272342E+00
          1   -1    0    0  501    0  0.00000000000E+00  0.00000000000E+00  0.52360993360E+03  0.52360993360E+03  0.00000000000E+00 0. -1.
         -1   -1    0    0    0  501 -0.00000000000E+00 -0.00000000000E+00 -0.40581772243E+02  0.40581772243E+02  0.00000000000E+00 0.  1.
         25    2    1    2    0    0 -0.74170524728E+02 -0.35466854903E+02  0.16377801509E+03  0.22187730607E+03  0.12508851341E+03 0.  0.
          5    1    3    3  502    0 -0.62148832333E+02  0.10531778565E+02  0.14036756009E+02  0.64713975611E+02  0.41800000000E+01 0. -1.
         -5    1    3    3    0  502 -0.12021692394E+02 -0.45998633469E+02  0.14974125909E+03  0.15716333046E+03  0.41800000000E+01 0. -1.
        -11    1    1    2    0    0  0.59758588235E+01  0.27568570338E+02  0.18279758486E+02  0.33613784813E+02  0.00000000000E+00 0.  1.
         11    1    1    2    0    0  0.68194665904E+02  0.78982845658E+01  0.30097038777E+03  0.30870061496E+03  0.00000000000E+00 0. -1.
</event>
<event>
 7    1  0.2621649E-009  0.7705291E+02  0.7561462E-02  0.1337629E+00
         -1   -1    0    0    0  501 -0.00000000000E+00  0.00000000000E+00  0.86860193619E+02  0.86860193619E+02  0.00000000000E+00 0.  1.
          1   -1    0    0  501    0  0.00000000000E+00 -0.00000000000E+00 -0.16571505945E+03  0.16571505945E+03  0.00000000000E+00 0. -1.
         25    2    1    2    0    0 -0.25512385624E+02  0.58970358758E+01  0.89749124160E+00  0.12779960728E+03  0.12508508016E+03 0.  0.
          5    1    3    3  502    0 -0.51472195953E+02 -0.27387353359E+02 -0.38430270168E+02  0.69955787075E+02  0.41800000000E+01 0.  1.
         -5    1    3    3    0  502  0.25959810328E+02  0.33284389234E+02  0.39327761409E+02  0.57843820210E+02  0.41800000000E+01 0.  1.
        -11    1    1    2    0    0 -0.65078405069E+01  0.14067331509E+02 -0.85245977214E+02  0.86643628935E+02  0.00000000000E+00 0. -1.
         11    1    1    2    0    0  0.32020226131E+02 -0.19964367385E+02  0.54936201437E+01  0.38132016847E+02  0.00000000000E+00 0.  1.
</event>
<event>
 7    1  0.2601031E-009  0.1041241E+03  0.7561462E-02  0.1271855E+00
         -1   -1    0    0    0  501 -0.00000000000E+00  0.00000000000E+00  0.63782563256E+02  0.63782563256E+02  0.00000000000E+00 0. -1.
          1   -1    0    0  501    0  0.00000000000E+00 -0.00000000000E+00 -0.51576775866E+03  0.51576775866E+03  0.00000000000E+00 0.  1.
         25    2    1    2    0    0 -0.17798466955E+02  0.82410638447E+02 -0.50219260090E+02  0.15899054197E+03  0.12509084537E+03 0.  0.
          5    1    3    3  502    0  0.45484249702E+01 -0.17023298406E+02  0.25981472144E+02  0.31670019783E+02  0.41800000000E+01 0. -1.
         -5    1    3    3    0  502 -0.22346891925E+02  0.99433936852E+02 -0.76200732233E+02  0.12732052219E+03  0.41800000000E+01 0. -1.
        -11    1    1    2    0    0  0.89951429972E+01 -0.77575287728E+02 -0.40294853554E+03  0.41044653751E+03  0.00000000000E+00 0.  1.
         11    1    1    2    0    0  0.88033239579E+01 -0.48353507187E+01  0.11826002219E+01  0.10113242436E+02  0.00000000000E+00 0. -1.
</event>
<event>
 7    1  0.3218571E-009  0.1406649E+03  0.7561462E-02  0.1212437E+00
         -1   -1    0    0    0  501 -0.00000000000E+00  0.00000000000E+00  0.15754741287E+02  0.15754741287E+02  0.00000000000E+00 0.  1.
          1   -1    0    0  501    0  0.00000000000E+00 -0.00000000000E+00 -0.13722208316E+04  0.13722208316E+04  0.00000000000E+00 0. -1.
         25    2    1    2    0    0  0.27991007007E+02 -0.88559436056E+02 -0.89353761565E+03  0.90701831384E+03  0.12508589393E+03 0.  0.
          5    1    3    3  502    0 -0.45248506784E+02 -0.60109115872E+02 -0.36932640404E+03  0.37693500540E+03  0.41800000000E+01 0.  1.
         -5    1    3    3    0  502  0.73239513791E+02 -0.28450320184E+02 -0.52421121161E+03  0.53008330843E+03  0.41800000000E+01 0.  1.
        -11    1    1    2    0    0  0.19733562565E+02  0.75185114537E+02 -0.33156351534E+03  0.34055334332E+03  0.00000000000E+00 0. -1.
         11    1    1    2    0    0 -0.47724569572E+02  0.13374321518E+02 -0.13136495935E+03  0.14040391576E+03  0.00000000000E+00 0.  1.
</event>
<event>
 7    1  0.2601031E-009  0.1317442E+03  0.7561462E-02  0.1224890E+00
          1   -1    0    0  501    0  0.00000000000E+00  0.00000000000E+00  0.33480454399E+03  0.33480454399E+03  0.00000000000E+00 0. -1.
         -1   -1    0    0    0  501 -0.00000000000E+00 -0.00000000000E+00 -0.72450097017E+02  0.72450097017E+02  0.00000000000E+00 0.  1.
         25    2    1    2    0    0  0.23169939483E+02 -0.83762336524E+02  0.23129179187E+03  0.27694137515E+03  0.12509059582E+03 0.  0.
          5    1    3    3  502    0  0.60436104966E+02 -0.21389068439E+02  0.17019740725E+03  0.18191933615E+03  0.41800000000E+01 0. -1.
         -5    1    3    3    0  502 -0.37266165483E+02 -0.62373268085E+02  0.61094384628E+02  0.95022038994E+02  0.41800000000E+01 0. -1.
        -11    1    1    2    0    0  0.34550476630E+02  0.45835204742E+02  0.11622979268E+02  0.58563598559E+02  0.00000000000E+00 0.  1.
         11    1    1    2    0    0 -0.57720416113E+02  0.37927131782E+02  0.19439675828E+02  0.71749667301E+02  0.00000000000E+00 0. -1.
</event>
<event>
 7    1  0.2601031E-009  0.2138461E+03  0.7561462E-02  0.1138556E+00
          1   -1    0    0  501    0  0.00000000000E+00  0.00000000000E+00  0.34223094965E+03  0.34223094965E+03  0.00000000000E+00 0. -1.
         -1   -1    0    0    0  501 -0.00000000000E+00 -0.00000000000E+00 -0.14325252723E+03  0.14325252723E+03  0.00000000000E+00 0.  1.
         25    2    1    2    0    0  0.17542301211E+03  0.77267915312E+02  0.86053951434E+02  0.24453428674E+03  0.12509264933E+03 0.  0.
          5    1    3    3  502    0  0.46190465871E+02 -0.30400058015E+02  0.44806277811E+02  0.71293741633E+02  0.41800000000E+01 0.  1.
         -5    1    3    3    0  502  0.12923254624E+03  0.10766797333E+03  0.41247673623E+02  0.17324054510E+03  0.41800000000E+01 0.  1.
        -11    1    1    2    0    0 -0.61050292857E+02  0.76512911175E+01  0.67721211572E+02  0.91497775987E+02  0.00000000000E+00 0. -1.
         11    1    1    2    0    0 -0.11437271926E+03 -0.84919206430E+02  0.45203259409E+02  0.14945141415E+03  0.00000000000E+00 0.  1.
</event>
<event>
 7    1  0.2601031E-009  0.8530259E+02  0.7561462E-02  0.1314643E+00
         -2   -1    0    0    0  501 -0.00000000000E+00  0.00000000000E+00  0.84883279328E+01  0.84883279328E+01  0.00000000000E+00 0.  1.
          2   -1    0    0  501    0  0.00000000000E+00 -0.00000000000E+00 -0.25308677244E+04  0.25308677244E+04  0.00000000000E+00 0. -1.
         25    2    1    2    0    0  0.19630148001E+02  0.40139877803E+02 -0.21301338853E+04  0.21342710332E+04  0.12508365717E+03 0.  0.
          5    1    3    3  502    0 -0.19362301936E+02  0.16138258387E+02 -0.18653469413E+04  0.18655219178E+04  0.41800000000E+01 0.  1.
         -5    1    3    3    0  502  0.38992449937E+02  0.24001619415E+02 -0.26478694398E+03  0.26874911533E+03  0.41800000000E+01 0.  1.
        -11    1    1    2    0    0 -0.29370514742E+02 -0.65568909519E+02 -0.24393967434E+03  0.25429996804E+03  0.00000000000E+00 0.  1.
         11    1    1    2    0    0  0.97403667412E+01  0.25429031716E+02 -0.14830583685E+03  0.15078505113E+03  0.00000000000E+00 0. -1.
</event>
<event>
 7    1  0.2601031E-009  0.1376211E+03  0.7561462E-02  0.1216566E+00
         -2   -1    0    0    0  501 -0.00000000000E+00  0.00000000000E+00  0.81377572555E+02  0.81377572555E+02  0.00000000000E+00 0.  1.
          2   -1    0    0  501    0  0.00000000000E+00 -0.00000000000E+00 -0.33048956827E+03  0.33048956827E+03  0.00000000000E+00 0. -1.
         25    2    1    2    0    0  0.80497852852E+02  0.72485902322E+02 -0.62406424335E+02  0.17685230215E+03  0.12509222449E+03 0.  0.
          5    1    3    3  502    0  0.75231887438E+02  0.87931579800E+02 -0.37868814508E+01  0.11586031454E+03  0.41800000000E+01 0.  1.
         -5    1    3    3    0  502  0.52659654140E+01 -0.15445677479E+02 -0.58619542884E+02  0.60991987609E+02  0.41800000000E+01 0.  1.
        -11    1    1    2    0    0 -0.67381767922E+02  0.15597946049E+01 -0.83139579709E+02  0.10702768484E+03  0.00000000000E+00 0. -1.
         11    1    1    2    0    0 -0.13116084930E+02 -0.74045696927E+02 -0.10356599167E+03  0.12798715384E+03  0.00000000000E+00 0.  1.
</event>
<event>
 7    1  0.2601031E-009  0.1230113E+03  0.7561462E-02  0.1238210E+00
         -1   -1    0    0    0  501 -0.00000000000E+00  0.00000000000E+00  0.74745243106E+02  0.74745243106E+02  0.00000000000E+00 0.  1.
          1   -1    0    0  501    0  0.00000000000E+00 -0.00000000000E+00 -0.43075141265E+03  0.43075141265E+03  0.00000000000E+00 0. -1.
         25    2    1    2    0    0  0.88952412322E+02  0.16631760596E+02 -0.32186066048E+02  0.15770672930E+03  0.12508526092E+03 0.  0.
          5    1    3    3  502    0  0.21763300011E+02  0.48452099188E+02 -0.58132491334E+02  0.78854968720E+02  0.41800000000E+01 0.  1.
         -5    1    3    3    0  502  0.67189112311E+02 -0.31820338592E+02  0.25946425286E+02  0.78851760579E+02  0.41800000000E+01 0.  1.
        -11    1    1    2    0    0 -0.18658517147E+02 -0.40055888515E+02 -0.18748158428E+03  0.19261868785E+03  0.00000000000E+00 0.  1.
         11    1    1    2    0    0 -0.70293895175E+02  0.23424127918E+02 -0.13633851922E+03  0.15517123860E+03  0.00000000000E+00 0. -1.
</event>
<event>
 7    1  0.2601031E-009  0.1106817E+03  0.7561462E-02  0.1259313E+00
         -2   -1    0    0    0  501 -0.00000000000E+00  0.00000000000E+00  0.14879951310E+02  0.14879951310E+02  0.00000000000E+00 0.  1.
          2   -1    0    0  501    0  0.00000000000E+00 -0.00000000000E+00 -0.97467808423E+03  0.97467808423E+03  0.00000000000E+00 0. -1.
         25    2    1    2    0    0  0.28993073062E+02  0.40020613358E+02 -0.61732723979E+03  0.63180902304E+03  0.12508985898E+03 0.  0.
          5    1    3    3  502    0 -0.29090249494E+02 -0.19755641273E+02 -0.73157635171E+02  0.81277548939E+02  0.41800000000E+01 0. -1.
         -5    1    3    3    0  502  0.58083322556E+02  0.59776254631E+02 -0.54416960462E+03  0.55053147410E+03  0.41800000000E+01 0. -1.
        -11    1    1    2    0    0 -0.59445351821E+02 -0.11042275621E+02 -0.22504533892E+03  0.23302593476E+03  0.00000000000E+00 0. -1.
         11    1    1    2    0    0  0.30452278759E+02 -0.28978337737E+02 -0.11742555421E+03  0.12472307774E+03  0.00000000000E+00 0.  1.
</event>
<event>
 7    1  0.2601031E-009  0.1134596E+03  0.7561462E-02  0.1254294E+00
          1   -1    0    0  501    0  0.00000000000E+00  0.00000000000E+00  0.20203513646E+03  0.20203513646E+03  0.00000000000E+00 0. -1.
         -1   -1    0    0    0  501 -0.00000000000E+00 -0.00000000000E+00 -0.76826856180E+02  0.76826856180E+02  0.00000000000E+00 0.  1.
         25    2    1    2    0    0  0.49446231642E+02  0.33825046810E+02  0.50694194730E+02  0.14766918344E+03  0.12508885939E+03 0.  0.
          5    1    3    3  502    0  0.15325940986E+02  0.69051183571E+02  0.65271112572E+02  0.96336602369E+02  0.41800000000E+01 0. -1.
         -5    1    3    3    0  502  0.34120290656E+02 -0.35226136761E+02 -0.14576917842E+02  0.51332581070E+02  0.41800000000E+01 0. -1.
        -11    1    1    2    0    0 -0.34919106129E+02 -0.64252094808E+02  0.41889386994E+02  0.84275716566E+02  0.00000000000E+00 0.  1.
         11    1    1    2    0    0 -0.14527125513E+02  0.30427047997E+02  0.32624698558E+02  0.46917092637E+02  0.00000000000E+00 0. -1.
</event>
<event>
 7    1  0.2601031E-009  0.6399834E+02  0.7561462E-02  0.1381779E+00
          1   -1    0    0  501    0  0.00000000000E+00  0.00000000000E+00  0.33563507091E+03  0.33563507091E+03  0.00000000000E+00 0. -1.
         -1   -1    0    0    0  501 -0.00000000000E+00 -0.00000000000E+00 -0.45188598106E+02  0.45188598106E+02  0.00000000000E+00 0.  1.
         25    2    1    2    0    0  0.94230800482E+01 -0.31063485105E+02  0.23944787005E+03  0.27209902844E+03  0.12509542063E+03 0.  0.
          5    1    3    3  502    0 -0.17179363005E+02 -0.32467032864E+02  0.24218931211E+03  0.24499464084E+03  0.41800000000E+01 0.  1.
         -5    1    3    3    0  502  0.26602443053E+02  0.14035477594E+01 -0.27414420660E+01  0.27104387603E+02  0.41800000000E+01 0.  1.
        -11    1    1    2    0    0 -0.29644251299E+02  0.34613298399E+01 -0.15728242029E+02  0.33736331109E+02  0.00000000000E+00 0.  1.
         11    1    1    2    0    0  0.20221171251E+02  0.27602155265E+02  0.66726844787E+02  0.74988309471E+02  0.00000000000E+00 0. -1.
</event>
<event>
 7    1  0.2601031E-009  0.1014623E+03  0.7561462E-02  0.1277251E+00
          1   -1    0    0  501    0  0.00000000000E+00  0.00000000000E+00  0.44385185534E+03  0.44385185534E+03  0.00000000000E+00 0. -1.
         -1   -1    0    0    0  501 -0.00000000000E+00 -0.00000000000E+00 -0.45970500129E+02  0.45970500129E+02  0.00000000000E+00 0.  1.
         25    2    1    2    0    0  0.25707372431E+02  0.73566117537E+02  0.30638477050E+03  0.33998613359E+03  0.12508437469E+03 0.  0.
          5    1    3    3  502    0 -0.24782411634E+02  0.57991130364E+02  0.57254376225E+02  0.85279980794E+02  0.41800000000E+01 0.  1.
         -5    1    3    3    0  502  0.50489784064E+02  0.15574987173E+02  0.24913039428E+03  0.25470615280E+03  0.41800000000E+01 0.  1.
        -11    1    1    2    0    0  0.99090336631E+01 -0.11690551923E+02 -0.15116657656E+02  0.21526060743E+02  0.00000000000E+00 0.  1.
         11    1    1    2    0    0 -0.35616406094E+02 -0.61875565614E+02  0.10661324237E+03  0.12831016114E+03  0.00000000000E+00 0. -1.
</event>
<event>
 7    1  0.2601031E-009  0.9946209E+02  0.7561462E-02  0.1281431E+00
          2   -1    0    0  501    0  0.00000000000E+00  0.00000000000E+00  0.51676111436E+03  0.51676111436E+03  0.00000000000E+00 0. -1.
         -2   -1    0    0    0  501 -0.00000000000E+00 -0.00000000000E+00 -0.33497498362E+02  0.33497498362E+02  0.00000000000E+00 0.  1.
         25    2    1    2    0    0  0.11180395241E+02  0.26761326148E+02  0.12470374066E+03  0.17899781130E+03  0.12509206090E+03 0.  0.
          5    1    3    3  502    0 -0.95136653241E+01  0.70203140681E+02  0.39930607652E+02  0.81430440357E+02  0.41800000000E+01 0. -1.
         -5    1    3    3    0  502  0.20694060565E+02 -0.43441814533E+02  0.84773133004E+02  0.97567370939E+02  0.41800000000E+01 0. -1.
        -11    1    1    2    0    0  0.23123897354E+02  0.13488863033E+02  0.38691056617E+02  0.47049568722E+02  0.00000000000E+00 0.  1.
         11    1    1    2    0    0 -0.34304292595E+02 -0.40250189181E+02  0.31986881872E+03  0.32421123270E+03  0.00000000000E+00 0. -1.
</event>
<event>
 7    1  0.2601031E-009  0.1034903E+03  0.7561462E-02  0.1273123E+00
          2   -1    0    0  501    0  0.00000000000E+00  0.00000000000E+00  0.20291062595E+03  0.20291062595E+03  0.00000000000E+00 0. -1.
         -2   -1    0    0    0  501 -0.00000000000E+00 -0.00000000000E+00 -0.63890057916E+02  0.63890057916E+02  0.00000000000E+00 0.  1.
         25    2    1    2    0    0  0.76702470389E+01 -0.30864792579E+02  0.81986748853E+02  0.15289846642E+03  0.12507855906E+03 0.  0.
          5    1    3    3  502    0 -0.30663498690E+02 -0.60323399694E+02  0.13769570547E+02  0.69182629146E+02  0.41800000000E+01 0. -1.
         -5    1    3    3    0  502  0.38333745729E+02  0.29458607115E+02  0.68217178306E+02  0.83715837276E+02  0.41800000000E+01 0. -1.
        -11    1    1    2    0    0  0.32822909426E+02 -0.87904319636E+01  0.69326934482E+00  0.33986698865E+02  0.00000000000E+00 0.  1.
         11    1    1    2    0    0 -0.40493156465E+02  0.39655224543E+02  0.56340549840E+02  0.79915518583E+02  0.00000000000E+00 0. -1.
</event>
<event>
 7    1  0.2601031E-009  0.2804076E+03  0.7561462E-02  0.1095467E+00
         -2   -1    0    0    0  501 -0.00000000000E+00  0.00000000000E+00  0.33548321307E+03  0.33548321307E+03  0.00000000000E+00 0. -1.
          2   -1    0    0  501    0  0.00000000000E+00 -0.00000000000E+00 -0.27695391704E+03  0.27695391704E+03  0.00000000000E+00 0.  1.
         25    2    1    2    0    0  0.23843088455E+03  0.14547353743E+03 -0.26993952847E+02  0.30722731907E+03  0.12509242698E+03 0.  0.
          5    1    3    3  502    0  0.13034700264E+03  0.76018304786E+02  0.48007563261E+02  0.15840240620E+03  0.41800000000E+01 0. -1.
         -5    1    3    3    0  502  0.10808388191E+03  0.69455232647E+02 -0.75001516108E+02  0.14882491287E+03  0.41800000000E+01 0. -1.
        -11    1    1    2    0    0 -0.14480199599E+03 -0.68869457900E+02  0.60356335267E+01  0.16045887057E+03  0.00000000000E+00 0.  1.
         11    1    1    2    0    0 -0.93628888562E+02 -0.76604079533E+02  0.79487615346E+02  0.14475094047E+03  0.00000000000E+00 0. -1.
</event>
<event>
 7    1  0.2601031E-009  0.1028061E+03  0.7561462E-02  0.1274503E+00
          3   -1    0    0  501    0  0.00000000000E+00  0.00000000000E+00  0.15920175900E+03  0.15920175900E+03  0.00000000000E+00 0. -1.
         -3   -1    0    0    0  501 -0.00000000000E+00 -0.00000000000E+00 -0.11128812270E+03  0.11128812270E+03  0.00000000000E+00 0.  1.
         25    2    1    2    0    0  0.18361031005E+02 -0.73478950652E+02  0.10070032550E+02  0.14657698722E+03  0.12508846461E+03 0.  0.
          5    1    3    3  502    0 -0.25177041298E+02 -0.66252480709E+02 -0.38543152409E+02  0.80785652230E+02  0.41800000000E+01 0.  1.
         -5    1    3    3    0  502  0.43538072303E+02 -0.72264699423E+01  0.48613184958E+02  0.65791334988E+02  0.41800000000E+01 0.  1.
        -11    1    1    2    0    0 -0.29575897202E+02  0.73326974438E+02 -0.53877819072E+01  0.79250281195E+02  0.00000000000E+00 0.  1.
         11    1    1    2    0    0  0.11214866197E+02  0.15197621337E+00  0.43231385658E+02  0.44662613297E+02  0.00000000000E+00 0. -1.
</event>
<event>
 7    1  0.2601031E-009  0.1845369E+03  0.7561462E-02  0.1163483E+00
         -2   -1    0    0    0  501 -0.00000000000E+00  0.00000000000E+00  0.22312874494E+02  0.22312874494E+02  0.00000000000E+00 0.  1.
          2   -1    0    0  501    0  0.00000000000E+00 -0.00000000000E+00 -0.20346199783E+04  0.20346199783E+04  0.00000000000E+00 0. -1.
         25    2    1    2    0    0 -0.71962395326E+02 -0.16341893179E+03 -0.12836631543E+04  0.13020457120E+04  0.12509040288E+03 0.  0.
          5    1    3    3  502    0 -0.29554741831E+01 -0.73717799710E+02 -0.21389804770E+03  0.22630266466E+03  0.41800000000E+01 0. -1.
         -5    1    3    3    0  502 -0.69006921143E+02 -0.89701132076E+02 -0.10697651066E+04  0.10757430474E+04  0.41800000000E+01 0. -1.
        -11    1    1    2    0    0  0.46799982415E+02  0.63460207390E+02 -0.46809262725E+03  0.47468741711E+03  0.00000000000E+00 0.  1.
         11    1    1    2    0    0  0.25162412911E+02  0.99958724397E+02 -0.26055132220E+03  0.28019972360E+03  0.00000000000E+00 0. -1.
</event>
<event>
 7    1  0.2601031E-009  0.4949172E+03  0.7561462E-02  0.1015114E+00
         -1   -1    0    0    0  501 -0.00000000000E+00  0.00000000000E+00  0.13922219980E+04  0.13922219980E+04  0.00000000000E+00 0.  1.
          1   -1    0    0  501    0  0.00000000000E+00 -0.00000000000E+00 -0.24590644802E+03  0.24590644802E+03  0.00000000000E+00 0. -1.
         25    2    1    2    0    0 -0.48451273662E+03 -0.68269762835E+02  0.99722610295E+03  0.11178197375E+04  0.12509081814E+03 0.  0.
          5    1    3    3  502    0 -0.45567001079E+03 -0.42828649190E+02  0.84770120648E+03  0.96337129903E+03  0.41800000000E+01 0. -1.
         -5    1    3    3    0  502 -0.28842725830E+02 -0.25441113644E+02  0.14952489646E+03  0.15444843851E+03  0.41800000000E+01 0. -1.
        -11    1    1    2    0    0  0.40526452995E+03  0.80735155394E+02  0.96378784360E+02  0.42431871821E+03  0.00000000000E+00 0.  1.
         11    1    1    2    0    0  0.79248206665E+02 -0.12465392560E+02  0.52710662681E+02  0.95989990267E+02  0.00000000000E+00 0. -1.
</event>
<event>
 7    1  0.2601031E-009  0.1066753E+03  0.7561462E-02  0.1266854E+00
         -1   -1    0    0    0  501 -0.00000000000E+00  0.00000000000E+00  0.31876170880E+03  0.31876170880E+03  0.00000000000E+00 0.  1.
          1   -1    0    0  501    0  0.00000000000E+00 -0.00000000000E+00 -0.45838363607E+02  0.45838363607E+02  0.00000000000E+00 0. -1.
         25    2    1    2    0    0  0.31822555679E+02  0.32888188752E+02  0.20404632403E+03  0.24367708565E+03  0.12509720905E+03 0.  0.
          5    1    3    3  502    0 -0.47955881282E+02  0.43518587736E+01  0.76934555990E+02  0.90857600286E+02  0.41800000000E+01 0. -1.
         -5    1    3    3    0  502  0.79778436961E+02  0.28536329978E+02  0.12711176804E+03  0.15281948536E+03  0.41800000000E+01 0. -1.
        -11    1    1    2    0    0  0.10804803730E+02  0.13430016605E+02  0.53381902376E+02  0.56095780866E+02  0.00000000000E+00 0.  1.
         11    1    1    2    0    0 -0.42627359409E+02 -0.46318205357E+02  0.15495118789E+02  0.64827205893E+02  0.00000000000E+00 0. -1.
</event>
<event>
 7    1  0.2601031E-009  0.1522189E+03  0.7561462E-02  0.1197773E+00
          1   -1    0    0  501    0  0.00000000000E+00  0.00000000000E+00  0.71149839933E+03  0.71149839933E+03  0.00000000000E+00 0. -1.
         -1   -1    0    0    0  501 -0.00000000000E+00 -0.00000000000E+00 -0.11189931581E+03  0.11189931581E+03  0.00000000000E+00 0.  1.
         25    2    1    2    0    0  0.96083922682E+02 -0.67790701121E+02  0.64533389970E+03  0.66778175268E+03  0.12509567439E+03 0.  0.
          5    1    3    3  502    0  0.56881811456E+02 -0.93461784768E+02  0.30191467753E+03  0.32115508807E+03  0.41800000000E+01 0.  1.
         -5    1    3    3    0  502  0.39202111227E+02  0.25671083648E+02  0.34341922217E+03  0.34662666461E+03  0.41800000000E+01 0.  1.
        -11    1    1    2    0    0 -0.38075775271E+02 -0.19744521460E+02 -0.58609773954E+01  0.43289280962E+02  0.00000000000E+00 0. -1.
         11    1    1    2    0    0 -0.58008147411E+02  0.87535222580E+02 -0.39873838786E+02  0.11232668150E+03  0.00000000000E+00 0.  1.
</event>
<event>
 7    1  0.2601031E-009  0.1339940E+03  0.7561462E-02  0.1221647E+00
          1   -1    0    0  501    0  0.00000000000E+00  0.00000000000E+00  0.55271479382E+03  0.55271479382E+03  0.00000000000E+00 0. -1.
         -1   -1    0    0    0  501 -0.00000000000E+00 -0.00000000000E+00 -0.32890066494E+02  0.32890066494E+02  0.00000000000E+00 0.  1.
         25    2    1    2    0    0 -0.16696857156E+01  0.79215258382E+02  0.30023227959E+03  0.33476317355E+03  0.12509642539E+03 0.  0.
          5    1    3    3  502    0 -0.26490729409E+02  0.10686082764E+03  0.21149961990E+03  0.23847548480E+03  0.41800000000E+01 0. -1.
         -5    1    3    3    0  502  0.24821043694E+02 -0.27645569262E+02  0.88732659690E+02  0.96287688754E+02  0.41800000000E+01 0. -1.
        -11    1    1    2    0    0  0.42516459656E+02 -0.16551706170E+02  0.97696004427E+02  0.10782447589E+03  0.00000000000E+00 0.  1.
         11    1    1    2    0    0 -0.40846773940E+02 -0.62663552212E+02  0.12189644330E+03  0.14301721088E+03  0.00000000000E+00 0. -1.
</event>
<event>
 7    1  0.3744564E-009  0.1526521E+03  0.7561462E-02  0.1197252E+00
         -2   -1    0    0    0  501 -0.00000000000E+00  0.00000000000E+00  0.46521499268E+02  0.46521499268E+02  0.00000000000E+00 0.  1.
          2   -1    0    0  501    0  0.00000000000E+00 -0.00000000000E+00 -0.87393301528E+03  0.87393301528E+03  0.00000000000E+00 0. -1.
         25    2    1    2    0    0  0.12210736598E+03  0.81738495348E+02 -0.23898606650E+03  0.30717103927E+03  0.12509323297E+03 0.  0.
          5    1    3    3  502    0  0.57673322355E+02  0.21589662106E+02 -0.20247050791E+03  0.21166980086E+03  0.41800000000E+01 0.  1.
         -5    1    3    3    0  502  0.64434043628E+02  0.60148833242E+02 -0.36515558583E+02  0.95501238407E+02  0.41800000000E+01 0.  1.
        -11    1    1    2    0    0 -0.84902575168E+02 -0.26888793118E+02 -0.46234329626E+03  0.47084262558E+03  0.00000000000E+00 0. -1.
         11    1    1    2    0    0 -0.37204790815E+02 -0.54849702231E+02 -0.12608215326E+03  0.14244084970E+03  0.00000000000E+00 0.  1.
</event>
<event>
 7    1  0.2601031E-009  0.8053914E+02  0.7561462E-02  0.1327528E+00
         -2   -1    0    0    0  501 -0.00000000000E+00  0.00000000000E+00  0.20267253745E+03  0.20267253745E+03  0.00000000000E+00 0.  1.
          2   -1    0    0  501    0  0.00000000000E+00 -0.00000000000E+00 -0.90160802306E+02  0.90160802306E+02  0.00000000000E+00 0. -1.
         25    2    1    2    0    0 -0.23648617395E+02  0.43306831942E+02  0.13153956798E+03  0.18810716987E+03  0.12508761175E+03 0.  0.
          5    1    3    3  502    0  0.34472174094E+02 -0.56728463161E+01 -0.10714920692E+01  0.35201313432E+02  0.41800000000E+01 0.  1.
         -5    1    3    3    0  502 -0.58120791489E+02  0.48979678258E+02  0.13261106005E+03  0.15290585644E+03  0.41800000000E+01 0.  1.
        -11    1    1    2    0    0  0.10694964641E+02 -0.13147558172E+02 -0.54098691745E+02  0.56691348574E+02  0.00000000000E+00 0. -1.
         11    1    1    2    0    0  0.12953652755E+02 -0.30159273770E+02  0.35070858911E+02  0.48034821315E+02  0.00000000000E+00 0.  1.
</event>
<event>
 7    1  0.2601031E-009  0.1136529E+03  0.7561462E-02  0.1253951E+00
          2   -1    0    0  501    0  0.00000000000E+00  0.00000000000E+00  0.37015684746E+03  0.37015684746E+03  0.00000000000E+00 0. -1.
         -2   -1    0    0    0  501 -0.00000000000E+00 -0.00000000000E+00 -0.49252709836E+02  0.49252709836E+02  0.00000000000E+00 0.  1.
         25    2    1    2    0    0 -0.62957358575E+02  0.22983944720E+02  0.10970902330E+03  0.17937055766E+03  0.12508331802E+03 0.  0.
          5    1    3    3  502    0 -0.77380842062E+02 -0.32385326019E+02  0.72848238519E+02  0.11117977476E+03  0.41800000000E+01 0.  1.
         -5    1    3    3    0  502  0.14423483487E+02  0.55369270739E+02  0.36860784783E+02  0.68190782903E+02  0.41800000000E+01 0.  1.
        -11    1    1    2    0    0  0.39900171151E+02  0.14067857098E+02  0.25748820438E+02  0.49527063461E+02  0.00000000000E+00 0.  1.
         11    1    1    2    0    0  0.23057187424E+02 -0.37051801818E+02  0.18544629388E+03  0.19051193617E+03  0.00000000000E+00 0. -1.
</event>
<event>
 7    1  0.2601031E-009  0.6969951E+02  0.7561462E-02  0.1361118E+00
          2   -1    0    0  501    0  0.00000000000E+00  0.00000000000E+00  0.56762253189E+02  0.56762253189E+02  0.00000000000E+00 0.  1.
         -2   -1    0    0    0  501 -0.00000000000E+00 -0.00000000000E+00 -0.24604274416E+03  0.24604274416E+03  0.00000000000E+00 0. -1.
         25    2    1    2    0    0  0.37992197035E+02 -0.28971125831E+02 -0.11057284366E+03  0.17365611145E+03  0.12508940052E+03 0.  0.
          5    1    3    3  502    0  0.48196879882E+02 -0.40847248788E+02 -0.13222955357E+03  0.14660683545E+03  0.41800000000E+01 0.  1.
         -5    1    3    3    0  502 -0.10204682847E+02  0.11876122957E+02  0.21656709904E+02  0.27049276004E+02  0.41800000000E+01 0.  1.
        -11    1    1    2    0    0 -0.15795278522E+02 -0.72621689460E+01  0.17072704979E+02  0.24366107130E+02  0.00000000000E+00 0.  1.
         11    1    1    2    0    0 -0.22196918513E+02  0.36233294777E+02 -0.95780352288E+02  0.10478277877E+03  0.00000000000E+00 0. -1.
</event>
<event>
 7    1  0.2601031E-009  0.1054923E+03  0.7561462E-02  0.1269153E+00
          1   -1    0    0  501    0  0.00000000000E+00  0.00000000000E+00  0.17641399030E+03  0.17641399030E+03  0.00000000000E+00 0. -1.
         -1   -1    0    0    0  501 -0.00000000000E+00 -0.00000000000E+00 -0.97951366156E+02  0.97951366156E+02  0.00000000000E+00 0.  1.
         25    2    1    2    0    0 -0.14584864432E+02  0.22238424311E+01  0.65930273946E+02  0.14216731019E+03  0.12508828610E+03 0.  0.
          5    1    3    3  502    0  0.32954906468E+02 -0.33367355445E+02  0.67869388765E+02  0.82602255423E+02  0.41800000000E+01 0. -1.
         -5    1    3    3    0  502 -0.47539770900E+02  0.35591197876E+02 -0.19391148189E+01  0.59565054770E+02  0.41800000000E+01 0. -1.
        -11    1    1    2    0    0  0.58924825554E+02  0.61457730059E+01  0.46831631672E+02  0.75518920262E+02  0.00000000000E+00 0. -1.
         11    1    1    2    0    0 -0.44339961122E+02 -0.83696154369E+01 -0.34299281472E+02  0.56679126002E+02  0.00000000000E+00 0.  1.
</event>
<event>
 7    1  0.2601031E-009  0.1089535E+03  0.7561462E-02  0.1262520E+00
         -2   -1    0    0    0  501 -0.00000000000E+00  0.00000000000E+00  0.35344352458E+02  0.35344352458E+02  0.00000000000E+00 0.  1.
          2   -1    0    0  501    0  0.00000000000E+00 -0.00000000000E+00 -0.56673073797E+03  0.56673073797E+03  0.00000000000E+00 0. -1.
         25    2    1    2    0    0 -0.58678675298E+02  0.64548319032E+02 -0.35382746802E+03  0.38529509428E+03  0.12509500439E+03 0.  0.
          5    1    3    3  502    0 -0.18800896212E+02  0.21558824069E+01 -0.27992487170E+03  0.28059495313E+03  0.41800000000E+01 0.  1.
         -5    1    3    3    0  502 -0.39877779086E+02  0.62392436625E+02 -0.73902596327E+02  0.10470014115E+03  0.41800000000E+01 0.  1.
        -11    1    1    2    0    0 -0.22729533747E+02 -0.25219699972E+02 -0.49108826438E+02  0.59702108884E+02  0.00000000000E+00 0.  1.
         11    1    1    2    0    0  0.81408209045E+02 -0.39328619060E+02 -0.12845009105E+03  0.15707788727E+03  0.00000000000E+00 0. -1.
</event>
<event>
 7    1  0.2601031E-009  0.2384377E+03  0.7561462E-02  0.1120838E+00
          1   -1    0    0  501    0  0.00000000000E+00  0.00000000000E+00  0.94517178938E+02  0.94517178938E+02  0.00000000000E+00 0. -1.
         -1   -1    0    0    0  501 -0.00000000000E+00 -0.00000000000E+00 -0.65662184718E+03  0.65662184718E+03  0.00000000000E+00 0.  1.
         25    2    1    2    0    0  0.21628654789E+03  0.59716493884E+02 -0.30086726597E+03  0.39561868655E+03  0.12508838067E+03 0.  0.
          5    1    3    3  502    0  0.22577733640E+03  0.71355409737E+02 -0.25902999333E+03  0.35097152303E+03  0.41800000000E+01 0.  1.
         -5    1    3    3    0  502 -0.94907885156E+01 -0.11638915853E+02 -0.41837272636E+02  0.44647163522E+02  0.41800000000E+01 0.  1.
        -11    1    1    2    0    0 -0.13342670211E+03 -0.39966851750E+02 -0.22120021835E+03  0.26139925530E+03  0.00000000000E+00 0.  1.
         11    1    1    2    0    0 -0.82859845780E+02 -0.19749642135E+02 -0.40037183930E+02  0.94121084270E+02  0.00000000000E+00 0. -1.
</event>
<event>
 7    1  0.2601031E-009  0.2956836E+03  0.7561462E-02  0.1087418E+00
         -2   -1    0    0    0  501 -0.00000000000E+00  0.00000000000E+00  0.32276025795E+03  0.32276025795E+03  0.00000000000E+00 0.  1.
          2   -1    0    0  501    0  0.00000000000E+00 -0.00000000000E+00 -0.39739561538E+03  0.39739561538E+03  0.00000000000E+00 0. -1.
         25    2    1    2    0    0 -0.27200524491E+03 -0.97487016505E+02 -0.21990474623E+03  0.38405288847E+03  0.12509177463E+03 0.  0.
          5    1    3    3  502    0 -0.19678361526E+03 -0.94903725204E+02 -0.21797837362E+03  0.30864632196E+03  0.41800000000E+01 0. -1.
         -5    1    3    3    0  502 -0.75221629648E+02 -0.25832913013E+01 -0.19263726099E+01  0.75406566506E+02  0.41800000000E+01 0. -1.
        -11    1    1    2    0    0  0.24177813940E+02  0.33862154350E+02  0.45013775825E+02  0.61298060313E+02  0.00000000000E+00 0.  1.
         11    1    1    2    0    0  0.24782743097E+03  0.63624862155E+02  0.10025561298E+03  0.27480492455E+03  0.00000000000E+00 0. -1.
</event>
<event>
 7    1  0.2601031E-009  0.9871412E+02  0.7561462E-02  0.1283023E+00
         -1   -1    0    0    0  501 -0.00000000000E+00  0.00000000000E+00  0.15793049343E+03  0.15793049343E+03  0.00000000000E+00 0.  1.
          1   -1    0    0  501    0  0.00000000000E+00 -0.00000000000E+00 -0.79313554561E+02  0.79313554561E+02  0.00000000000E+00 0. -1.
         25    2    1    2    0    0  0.12141138097E+02  0.10695534533E+02  0.69123678138E+02  0.14383114716E+03  0.12509002486E+03 0.  0.
          5    1    3    3  502    0  0.51148946704E+02  0.31395055605E+02 -0.17896625590E+01  0.60187536562E+02  0.41800000000E+01 0.  1.
         -5    1    3    3    0  502 -0.39007808607E+02 -0.20699521072E+02  0.70913340697E+02  0.83643610597E+02  0.41800000000E+01 0.  1.
        -11    1    1    2    0    0 -0.37458330782E+02  0.27931480611E+02  0.57198410159E+01  0.47074523209E+02  0.00000000000E+00 0.  1.
         11    1    1    2    0    0  0.25317192685E+02 -0.38627015144E+02  0.37734197158E+01  0.46338377623E+02  0.00000000000E+00 0. -1.
</event>
<event>
 7    1  0.2601031E-009  0.1888973E+03  0.7561462E-02  0.1159460E+00
         -2   -1    0    0    0  501 -0.00000000000E+00  0.00000000000E+00  0.95383066683E+02  0.95383066683E+02  0.00000000000E+00 0.  1.
          2   -1    0    0  501    0  0.00000000000E+00 -0.00000000000E+00 -0.40952367400E+03  0.40952367400E+03  0.00000000000E+00 0. -1.
         25    2    1    2    0    0 -0.61232998508E+02 -0.14800100881E+03 -0.11378655732E+03  0.23291591802E+03  0.12509462628E+03 0.  0.
          5    1    3    3  502    0 -0.76793487970E+02 -0.43841122210E+02 -0.17669348892E+02  0.90271601744E+02  0.41800000000E+01 0.  1.
         -5    1    3    3    0  502  0.15560489462E+02 -0.10415988660E+03 -0.96117208433E+02  0.14264431628E+03  0.41800000000E+01 0.  1.
        -11    1    1    2    0    0  0.55152322282E+02  0.24718834819E+02 -0.69621651808E+02  0.92195302745E+02  0.00000000000E+00 0.  1.
         11    1    1    2    0    0  0.60806762265E+01  0.12328217399E+03 -0.13073239819E+03  0.17979551992E+03  0.00000000000E+00 0. -1.
</event>
<event>
 7    1  0.3178669E-009  0.1175740E+03  0.7561462E-02  0.1247154E+00
          1   -1    0    0  501    0  0.00000000000E+00  0.00000000000E+00  0.76789878245E+02  0.76789878245E+02  0.00000000000E+00 0. -1.
         -1   -1    0    0    0  501 -0.00000000000E+00 -0.00000000000E+00 -0.27269564938E+03  0.27269564938E+03  0.00000000000E+00 0.  1.
         25    2    1    2    0    0  0.52618245399E+02  0.66931646267E+02 -0.15838124131E+03  0.21904428058E+03  0.12508898527E+03 0.  0.
          5    1    3    3  502    0  0.61684385943E+02 -0.17556554116E+02 -0.85879428545E+02  0.10726576671E+03  0.41800000000E+01 0.  1.
         -5    1    3    3    0  502 -0.90661405437E+01  0.84488200383E+02 -0.72501812767E+02  0.11177851387E+03  0.41800000000E+01 0.  1.
        -11    1    1    2    0    0 -0.39146952167E+02 -0.56627070029E+02 -0.67237200882E+02  0.96228634546E+02  0.00000000000E+00 0.  1.
         11    1    1    2    0    0 -0.13471293232E+02 -0.10304576238E+02  0.29712671055E+02  0.34212612499E+02  0.00000000000E+00 0. -1.
</event>
<event>
 7    1  0.2601031E-009  0.1230464E+03  0.7561462E-02  0.1238154E+00
         -1   -1    0    0    0  501 -0.00000000000E+00  0.00000000000E+00  0.58649669055E+03  0.58649669055E+03  0.00000000000E+00 0.  1.
          1   -1    0    0  501    0  0.00000000000E+00 -0.00000000000E+00 -0.29671189964E+02  0.29671189964E+02  0.00000000000E+00 0. -1.
         25    2    1    2    0    0 -0.69914792685E+02  0.19094734487E+02  0.34131151377E+03  0.37066760177E+03  0.12509290326E+03 0.  0.
          5    1    3    3  502    0 -0.60202267194E+02 -0.37731107653E+02  0.10135574577E+03  0.12384833088E+03  0.41800000000E+01 0. -1.
         -5    1    3    3    0  502 -0.97125254914E+01  0.56825842140E+02  0.23995576800E+03  0.24681927089E+03  0.41800000000E+01 0. -1.
        -11    1    1    2    0    0  0.69363616605E+02  0.24468729304E+02  0.12468766105E+03  0.14476547531E+03  0.00000000000E+00 0.  1.
         11    1    1    2    0    0  0.55117607990E+00 -0.43563463790E+02  0.90826325763E+02  0.10073480344E+03  0.00000000000E+00 0. -1.
</event>
<event>
 7    1  0.2601031E-009  0.6490691E+02  0.7561462E-02  0.1378322E+00
         -2   -1    0    0    0  501 -0.00000000000E+00  0.00000000000E+00  0.14632690164E+03  0.14632690164E+03  0.00000000000E+00 0.  1.
          2   -1    0    0  501    0  0.00000000000E+00 -0.00000000000E+00 -0.83387690525E+02  0.83387690525E+02  0.00000000000E+00 0. -1.
         25    2    1    2    0    0 -0.15873246875E+02 -0.43985730578E+01  0.27986481856E+02  0.12923510307E+03  0.12508861374E+03 0.  0.
          5    1    3    3  502    0 -0.25172567396E+02 -0.44400897344E+01 -0.46943465168E+02  0.53614679595E+02  0.41800000000E+01 0. -1.
         -5    1    3    3    0  502  0.92993205211E+01  0.41516676569E-01  0.74929947024E+02  0.75620423476E+02  0.41800000000E+01 0. -1.
        -11    1    1    2    0    0 -0.38863926502E+02  0.25988711928E+01  0.19585524389E+02  0.43597610946E+02  0.00000000000E+00 0.  1.
         11    1    1    2    0    0  0.54737173377E+02  0.17997018650E+01  0.15367204874E+02  0.56881878149E+02  0.00000000000E+00 0. -1.
</event>
<event>
 7    1  0.2601031E-009  0.1898562E+03  0.7561462E-02  0.1158591E+00
          2   -1    0    0  501    0  0.00000000000E+00  0.00000000000E+00  0.12484449233E+04  0.12484449233E+04  0.00000000000E+00 0. -1.
         -2   -1    0    0    0  501 -0.00000000000E+00 -0.00000000000E+00 -0.37405863114E+02  0.37405863114E+02  0.00000000000E+00 0.  1.
         25    2    1    2    0    0 -0.16402814695E+03  0.77460094196E+00  0.89031587551E+03  0.91390119357E+03  0.12508877020E+03 0.  0.
          5    1    3    3  502    0 -0.17758974854E+03 -0.40133567227E+01  0.87347343204E+03  0.89136274025E+03  0.41800000000E+01 0.  1.
         -5    1    3    3    0  502  0.13561601590E+02  0.47879576647E+01  0.16842443467E+02  0.22538453324E+02  0.41800000000E+01 0.  1.
        -11    1    1    2    0    0  0.12450210012E+03  0.39503000168E+02  0.24326749133E+03  0.27611651942E+03  0.00000000000E+00 0. -1.
         11    1    1    2    0    0  0.39526046825E+02 -0.40277601110E+02  0.77455693298E+02  0.95833073378E+02  0.00000000000E+00 0.  1.
</event>
<event>
 7    1  0.2601031E-009  0.2069462E+03  0.7561462E-02  0.1144007E+00
         -3   -1    0    0    0  501 -0.00000000000E+00  0.00000000000E+00  0.27559757639E+02  0.27559757639E+02  0.00000000000E+00 0.  1.
          3   -1    0    0  501    0  0.00000000000E+00 -0.00000000000E+00 -0.20030713060E+04  0.20030713060E+04  0.00000000000E+00 0. -1.
         25    2    1    2    0    0  0.14549541477E+02  0.18026739610E+03 -0.14696212851E+04  0.14859831167E+04  0.12510426860E+03 0.  0.
          5    1    3    3  502    0 -0.48508195621E+02  0.40363653265E+02 -0.32325318325E+03  0.32938178825E+03  0.41800000000E+01 0. -1.
         -5    1    3    3    0  502  0.63057737098E+02  0.13990374283E+03 -0.11463681019E+04  0.11566013284E+04  0.41800000000E+01 0. -1.
        -11    1    1    2    0    0 -0.43208286417E+02 -0.62849768184E+02 -0.14164844226E+03  0.16087675584E+03  0.00000000000E+00 0.  1.
         11    1    1    2    0    0  0.28658744940E+02 -0.11741762791E+03 -0.36424182099E+03  0.38377119117E+03  0.00000000000E+00 0. -1.
</event>
<event>
 7    1  0.2601031E-009  0.1106749E+03  0.7561462E-02  0.1259325E+00
          1   -1    0    0  501    0  0.00000000000E+00  0.00000000000E+00  0.64250911876E+02  0.64250911876E+02  0.00000000000E+00 0. -1.
         -1   -1    0    0    0  501 -0.00000000000E+00 -0.00000000000E+00 -0.22974814558E+03  0.22974814558E+03  0.00000000000E+00 0.  1.
         25    2    1    2    0    0  0.51724007344E+02  0.12133468122E+02 -0.10995241863E+03  0.17480805977E+03  0.12508289018E+03 0.  0.
          5    1    3    3  502    0  0.54876744448E+02  0.63620012690E+02 -0.69683400549E+02  0.10923466395E+03  0.41800000000E+01 0. -1.
         -5    1    3    3    0  502 -0.31527371039E+01 -0.51486544567E+02 -0.40269018078E+02  0.65573395823E+02  0.41800000000E+01 0. -1.
        -11    1    1    2    0    0 -0.24692718302E+02  0.27845133239E+02  0.92979145673E+01  0.38360565657E+02  0.00000000000E+00 0. -1.
         11    1    1    2    0    0 -0.27031289042E+02 -0.39978601361E+02 -0.64842729641E+02  0.80830432025E+02  0.00000000000E+00 0.  1.
</event>
<event>
 7    1  0.2601031E-009  0.1168284E+03  0.7561462E-02  0.1248423E+00
         -1   -1    0    0    0  501 -0.00000000000E+00  0.00000000000E+00  0.89403785781E+02  0.89403785781E+02  0.00000000000E+00 0.  1.
          1   -1    0    0  501    0  0.00000000000E+00 -0.00000000000E+00 -0.19601423194E+03  0.19601423194E+03  0.00000000000E+00 0. -1.
         25    2    1    2    0    0 -0.57947259996E+02  0.21805378546E+02 -0.13800668529E+02  0.14027177849E+03  0.12510936781E+03 0.  0.
          5    1    3    3  502    0  0.32923616428E+02  0.24569416736E+02 -0.25472496421E+02  0.48517432242E+02  0.41800000000E+01 0. -1.
         -5    1    3    3    0  502 -0.90870876424E+02 -0.27640381900E+01  0.11671827892E+02  0.91754346249E+02  0.41800000000E+01 0. -1.
        -11    1    1    2    0    0 -0.15765629609E+02  0.12433407120E+02 -0.48688625534E+02  0.52666184084E+02  0.00000000000E+00 0. -1.
         11    1    1    2    0    0  0.73712889605E+02 -0.34238785666E+02 -0.44121152098E+02  0.92480055149E+02  0.00000000000E+00 0.  1.
</event>
<event>
 7    1  0.2601031E-009  0.8139869E+02  0.7561462E-02  0.1325128E+00
         -2   -1    0    0    0  501 -0.00000000000E+00  0.00000000000E+00  0.36415991538E+03  0.36415991538E+03  0.00000000000E+00 0.  1.
          2   -1    0    0  501    0  0.00000000000E+00 -0.00000000000E+00 -0.42217089750E+02  0.42217089750E+02  0.00000000000E+00 0. -1.
         25    2    1    2    0    0 -0.24883801214E+02 -0.72176646588E+02  0.14275482170E+03  0.20458470307E+03  0.12508912717E+03 0.  0.
          5    1    3    3  502    0 -0.76809809129E+01 -0.41552017771E+02  0.15978101186E+03  0.16532698449E+03  0.41800000000E+01 0.  1.
         -5    1    3    3    0  502 -0.17202820301E+02 -0.30624628818E+02 -0.17026190165E+02  0.39257718579E+02  0.41800000000E+01 0.  1.
        -11    1    1    2    0    0 -0.86326092599E+01  0.29267813731E+02  0.29228750767E+02  0.42254546911E+02  0.00000000000E+00 0. -1.
         11    1    1    2    0    0  0.33516410474E+02  0.42908832857E+02  0.14995925316E+03  0.15953775515E+03  0.00000000000E+00 0.  1.
</event>
<event>
 7    1  0.2601031E-009  0.1083150E+03  0.7561462E-02  0.1263722E+00
          1   -1    0    0  501    0  0.00000000000E+00  0.00000000000E+00  0.60431455162E+02  0.60431455162E+02  0.00000000000E+00 0. -1.
         -1   -1    0    0    0  501 -0.00000000000E+00 -0.00000000000E+00 -0.22679635862E+03  0.22679635862E+03  0.00000000000E+00 0.  1.
         25    2    1    2    0    0  0.40055443266E+02  0.13801769406E+02 -0.77378935347E+02  0.15306795255E+03  0.12508945235E+03 0.  0.
          5    1    3    3  502    0 -0.33193936909E+02  0.37916386795E+02 -0.12218375091E+02  0.52021639007E+02  0.41800000000E+01 0.  1.
         -5    1    3    3    0  502  0.73249380174E+02 -0.24114617390E+02 -0.65160560256E+02  0.10104631354E+03  0.41800000000E+01 0.  1.
        -11    1    1    2    0    0 -0.33160906385E+02 -0.45551809711E+02 -0.84209639941E+02  0.10132066196E+03  0.00000000000E+00 0.  1.
         11    1    1    2    0    0 -0.68945368807E+01  0.31750040305E+02 -0.47763281678E+01  0.32839199274E+02  0.00000000000E+00 0. -1.
</event>
<event>
 7    1  0.2601031E-009  0.2715902E+03  0.7561462E-02  0.1100373E+00
         -1   -1    0    0    0  501 -0.00000000000E+00  0.00000000000E+00  0.63535365610E+03  0.63535365610E+03  0.00000000000E+00 0.  1.
          1   -1    0    0  501    0  0.00000000000E+00 -0.00000000000E+00 -0.12536714661E+03  0.12536714661E+03  0.00000000000E+00 0. -1.
         25    2    1    2    0    0  0.64664744574E+02  0.24806913467E+03  0.19885406357E+03  0.34772342791E+03  0.12509523953E+03 0.  0.
          5    1    3    3  502    0 -0.77425678147E+00 -0.83513904617E+01  0.35462954394E+02  0.36680222608E+02  0.41800000000E+01 0.  1.
         -5    1    3    3    0  502  0.65439001355E+02  0.25642052513E+03  0.16339110918E+03  0.31104320531E+03  0.41800000000E+01 0.  1.
        -11    1    1    2    0    0 -0.50930711339E+02 -0.52709094933E+02  0.61276500635E+02  0.95535310625E+02  0.00000000000E+00 0. -1.
         11    1    1    2    0    0 -0.13734033235E+02 -0.19536003974E+03  0.24985594528E+03  0.31746206417E+03  0.00000000000E+00 0.  1.
</event>
<event>
 7    1  0.2601031E-009  0.1691233E+03  0.7561462E-02  0.1178765E+00
          2   -1    0    0  501    0  0.00000000000E+00  0.00000000000E+00  0.24893157329E+03  0.24893157329E+03  0.00000000000E+00 0. -1.
         -2   -1    0    0    0  501 -0.00000000000E+00 -0.00000000000E+00 -0.13377481079E+03  0.13377481079E+03  0.00000000000E+00 0.  1.
         25    2    1    2    0    0  0.47349867595E+02 -0.13263033082E+03  0.20665769731E+02  0.18949239110E+03  0.12508987821E+03 0.  0.
          5    1    3    3  502    0  0.40429624203E+02 -0.15475819745E+03  0.32274149631E+02  0.16322912524E+03  0.41800000000E+01 0.  1.
         -5    1    3    3    0  502  0.69202433917E+01  0.22127866624E+02 -0.11608379900E+02  0.26263265864E+02  0.41800000000E+01 0.  1.
        -11    1    1    2    0    0 -0.40703455931E+02  0.27004794738E+02 -0.35116321918E+01  0.48973072440E+02  0.00000000000E+00 0.  1.
         11    1    1    2    0    0 -0.66464116640E+01  0.10562553609E+03  0.98002624955E+02  0.14424092054E+03  0.00000000000E+00 0. -1.
</event>
<event>
 7    1  0.2601031E-009  0.1003328E+03  0.7561462E-02  0.1279598E+00
          2   -1    0    0  501    0  0.00000000000E+00  0.00000000000E+00  0.73095039660E+02  0.73095039660E+02  0.00000000000E+00 0. -1.
         -2   -1    0    0    0  501 -0.00000000000E+00 -0.00000000000E+00 -0.23718099659E+03  0.23718099659E+03  0.00000000000E+00 0.  1.
         25    2    1    2    0    0  0.28597652212E+02 -0.67097796415E+02 -0.10911699442E+03  0.18131160324E+03  0.12508972381E+03 0.  0.
          5    1    3    3  502    0  0.32917052637E+02 -0.21711589313E+02 -0.12632464264E+03  0.13240208912E+03  0.41800000000E+01 0. -1.
         -5    1    3    3    0  502 -0.43194004246E+01 -0.45386207102E+02  0.17207648213E+02  0.48909514127E+02  0.41800000000E+01 0. -1.
        -11    1    1    2    0    0 -0.56663749722E+01 -0.22263393256E+02 -0.32555182979E+01  0.23202691309E+02  0.00000000000E+00 0.  1.
         11    1    1    2    0    0 -0.22931277240E+02  0.89361189670E+02 -0.51713444207E+02  0.10576174170E+03  0.00000000000E+00 0. -1.
</event>
<event>
 7    1  0.2601031E-009  0.7809308E+02  0.7561462E-02  0.1334552E+00
         -1   -1    0    0    0  501 -0.00000000000E+00  0.00000000000E+00  0.13919220285E+03  0.13919220285E+03  0.00000000000E+00 0.  1.
          1   -1    0    0  501    0  0.00000000000E+00 -0.00000000000E+00 -0.57260530965E+02  0.57260530965E+02  0.00000000000E+00 0. -1.
         25    2    1    2    0    0  0.14925424790E+01 -0.26197685556E+02  0.70656839038E+02  0.14604175588E+03  0.12508900490E+03 0.  0.
          5    1    3    3  502    0  0.45807121154E+02 -0.47752957651E+02  0.88612853502E+01  0.66892690863E+02  0.41800000000E+01 0. -1.
         -5    1    3    3    0  502 -0.44314578675E+02  0.21555272094E+02  0.61795553688E+02  0.79149065022E+02  0.41800000000E+01 0. -1.
        -11    1    1    2    0    0 -0.12770580106E+02  0.26202688326E+02  0.20668626646E+02  0.35733187924E+02  0.00000000000E+00 0.  1.
         11    1    1    2    0    0  0.11278037627E+02 -0.50027701046E-02 -0.93937937952E+01  0.14677790011E+02  0.00000000000E+00 0. -1.
</event>
<event>
 7    1  0.2601031E-009  0.1377866E+03  0.7561462E-02  0.1216339E+00
          1   -1    0    0  501    0  0.00000000000E+00  0.00000000000E+00  0.62104369002E+02  0.62104369002E+02  0.00000000000E+00 0. -1.
         -1   -1    0    0    0  501 -0.00000000000E+00 -0.00000000000E+00 -0.31969024357E+03  0.31969024357E+03  0.00000000000E+00 0.  1.
         25    2    1    2    0    0  0.13631541712E+01 -0.90878130415E+02 -0.13383062866E+03  0.20449466787E+03  0.12508692674E+03 0.  0.
          5    1    3    3  502    0 -0.33311546733E+02  0.19496545703E+02 -0.35320580252E+02  0.52486095581E+02  0.41800000000E+01 0.  1.
         -5    1    3    3    0  502  0.34674700904E+02 -0.11037467612E+03 -0.98510048410E+02  0.15200857229E+03  0.41800000000E+01 0.  1.
        -11    1    1    2    0    0 -0.40600633495E+02  0.44795828946E+02 -0.88739188060E+02  0.10737653947E+03  0.00000000000E+00 0.  1.
         11    1    1    2    0    0  0.39237479323E+02  0.46082301470E+02 -0.35016057848E+02  0.69923405235E+02  0.00000000000E+00 0. -1.
</event>
<event>
 7    1  0.2601031E-009  0.1013991E+03  0.7561462E-02  0.1277381E+00
          1   -1    0    0  501    0  0.00000000000E+00  0.00000000000E+00  0.13494733162E+04  0.13494733162E+04  0.00000000000E+00 0. -1.
         -1   -1    0    0    0  501 -0.00000000000E+00 -0.00000000000E+00 -0.13522379235E+02  0.13522379235E+02  0.00000000000E+00 0.  1.
         25    2    1    2    0    0 -0.41816884782E+02 -0.68728896092E+02  0.69083416417E+03  0.70666115943E+03  0.12508332767E+03 0.  0.
          5    1    3    3  502    0 -0.31553302295E+02 -0.39251254831E+02  0.77507429803E+02  0.92526460897E+02  0.41800000000E+01 0. -1.
         -5    1    3    3    0  502 -0.10263582487E+02 -0.29477641261E+02  0.61332673437E+03  0.61413469854E+03  0.41800000000E+01 0. -1.
        -11    1    1    2    0    0 -0.23877315726E+02 -0.23390277588E+01  0.13632363739E+03  0.13841868143E+03  0.00000000000E+00 0. -1.
         11    1    1    2    0    0  0.65694200508E+02  0.71067923851E+02  0.50879313540E+03  0.51791585457E+03  0.00000000000E+00 0.  1.
</event>
<event>
 7    1  0.2746488E-009  0.1128629E+03  0.7561462E-02  0.1255358E+00
          2   -1    0    0  501    0  0.00000000000E+00  0.00000000000E+00  0.27029863242E+04  0.27029863242E+04  0.00000000000E+00 0. -1.
         -2   -1    0    0    0  501 -0.00000000000E+00 -0.00000000000E+00 -0.71678728449E+01  0.71678728449E+01  0.00000000000E+00 0.  1.
         25    2    1    2    0    0  0.20490207400E+02  0.27699800418E+02  0.22534201920E+04  0.22571520576E+04  0.12508285901E+03 0.  0.
          5    1    3    3  502    0  0.63388424695E+02  0.49677250953E+02  0.12906005265E+04  0.12931175944E+04  0.41800000000E+01 0.  1.
         -5    1    3    3    0  502 -0.42898217295E+02 -0.21977450535E+02  0.96281966552E+03  0.96403446313E+03  0.41800000000E+01 0.  1.
        -11    1    1    2    0    0 -0.34930263441E+02  0.24418664213E+02  0.22303947385E+03  0.22707488051E+03  0.00000000000E+00 0. -1.
         11    1    1    2    0    0  0.14440056041E+02 -0.52118464630E+02  0.21935878548E+03  0.22592725896E+03  0.00000000000E+00 0.  1.
</event>
<event>
 7    1  0.2601031E-009  0.1864795E+03  0.7561462E-02  0.1161675E+00
         -2   -1    0    0    0  501 -0.00000000000E+00  0.00000000000E+00  0.14048595824E+03  0.14048595824E+03  0.00000000000E+00 0.  1.
          2   -1    0    0  501    0  0.00000000000E+00 -0.00000000000E+00 -0.30444698529E+03  0.30444698529E+03  0.00000000000E+00 0. -1.
         25    2    1    2    0    0  0.34292041662E+02 -0.17096962320E+03 -0.10608335595E+03  0.23939182227E+03  0.12509280547E+03 0.  0.
          5    1    3    3  502    0 -0.80094920476E+01  0.86926117659E+01 -0.42210035884E+02  0.44032635528E+02  0.41800000000E+01 0. -1.
         -5    1    3    3    0  502  0.42301533709E+02 -0.17966223497E+03 -0.63873320065E+02  0.19535918674E+03  0.41800000000E+01 0. -1.
        -11    1    1    2    0    0 -0.15846947821E+02  0.33061885220E+02  0.24266032581E+02  0.43966513925E+02  0.00000000000E+00 0.  1.
         11    1    1    2    0    0 -0.18445093840E+02  0.13790773798E+03 -0.82143703677E+02  0.16157460733E+03  0.00000000000E+00 0. -1.
</event>
<event>
 7    1  0.2601031E-009  0.1280071E+03  0.7561462E-02  0.1230443E+00
         -2   -1    0    0    0  501 -0.00000000000E+00  0.00000000000E+00  0.19925112164E+03  0.19925112164E+03  0.00000000000E+00 0.  1.
          2   -1    0    0  501    0  0.00000000000E+00 -0.00000000000E+00 -0.85286651401E+02  0.85286651401E+02  0.00000000000E+00 0. -1.
         25    2    1    2    0    0 -0.41547885317E+02 -0.60733226694E+02  0.47244729177E+02  0.15262983362E+03  0.12509616331E+03 0.  0.
          5    1    3    3  502    0 -0.37558193290E+02 -0.99212540361E+02  0.32669945074E+02  0.11107899783E+03  0.41800000000E+01 0. -1.
         -5    1    3    3    0  502 -0.39896920269E+01  0.38479313668E+02  0.14574784103E+02  0.41550835785E+02  0.41800000000E+01 0. -1.
        -11    1    1    2    0    0  0.52024234538E+02  0.76194475020E+02  0.43198084762E+02  0.10187341915E+03  0.00000000000E+00 0.  1.
         11    1    1    2    0    0 -0.10476349221E+02 -0.15461248327E+02  0.23521656301E+02  0.30034520272E+02  0.00000000000E+00 0. -1.
</event>
<event>
 7    1  0.2601031E-009  0.1089878E+03  0.7561462E-02  0.1262456E+00
          2   -1    0    0  501    0  0.00000000000E+00  0.00000000000E+00  0.51368595832E+02  0.51368595832E+02  0.00000000000E+00 0. -1.
         -2   -1    0    0    0  501 -0.00000000000E+00 -0.00000000000E+00 -0.33247281936E+03  0.33247281936E+03  0.00000000000E+00 0.  1.
         25    2    1    2    0    0 -0.70815884583E+01  0.11047498480E+02 -0.26040829673E+03  0.28919785354E+03  0.12510284316E+03 0.  0.
          5    1    3    3  502    0 -0.65734738981E+02 -0.38324111111E+00 -0.13394083050E+03  0.14926091671E+03  0.41800000000E+01 0.  1.
         -5    1    3    3    0  502  0.58653150523E+02  0.11430739591E+02 -0.12646746623E+03  0.13993693683E+03  0.41800000000E+01 0.  1.
        -11    1    1    2    0    0  0.41224075787E+02 -0.31963853384E+02 -0.14365584299E+02  0.54106213690E+02  0.00000000000E+00 0.  1.
         11    1    1    2    0    0 -0.34142487328E+02  0.20916354903E+02 -0.63303424944E+01  0.40537347958E+02  0.00000000000E+00 0. -1.
</event>
<event>
 7    1  0.2601031E-009  0.1040771E+03  0.7561462E-02  0.1271949E+00
         -3   -1    0    0    0  501 -0.00000000000E+00  0.00000000000E+00  0.35969737790E+03  0.35969737790E+03  0.00000000000E+00 0.  1.
          3   -1    0    0  501    0  0.00000000000E+00 -0.00000000000E+00 -0.47079036598E+02  0.47079036598E+02  0.00000000000E+00 0. -1.
         25    2    1    2    0    0  0.13442623108E+02 -0.50734601793E+00  0.25802694447E+03  0.28706501603E+03  0.12508979911E+03 0.  0.
          5    1    3    3  502    0 -0.49479947431E+02 -0.16201719921E+02  0.16869857488E+03  0.17659966731E+03  0.41800000000E+01 0.  1.
         -5    1    3    3    0  502  0.62922570539E+02  0.15694373904E+02  0.89328369593E+02  0.11046534873E+03  0.41800000000E+01 0.  1.
        -11    1    1    2    0    0 -0.26531998525E+02  0.40745977092E+02 -0.24550723167E+01  0.48684792030E+02  0.00000000000E+00 0. -1.
         11    1    1    2    0    0  0.13089375417E+02 -0.40238631074E+02  0.57046469146E+02  0.71026606434E+02  0.00000000000E+00 0.  1.
</event>
<event>
 7    1  0.2601031E-009  0.4306189E+02  0.7561462E-02  0.1486817E+00
         -2   -1    0    0    0  501 -0.00000000000E+00  0.00000000000E+00  0.80344396856E+02  0.80344396856E+02  0.00000000000E+00 0.  1.
          2   -1    0    0  501    0  0.00000000000E+00 -0.00000000000E+00 -0.16460560021E+03  0.16460560021E+03  0.00000000000E+00 0. -1.
         25    2    1    2    0    0 -0.21185899789E+02  0.16722034969E+02 -0.17493970430E+02  0.12915758657E+03  0.12508866601E+03 0.  0.
          5    1    3    3  502    0 -0.39206682043E+01  0.69440977241E+01  0.54050413455E+02  0.54795179779E+02  0.41800000000E+01 0.  1.
         -5    1    3    3    0  502 -0.17265231585E+02  0.97779372451E+01 -0.71544383885E+02  0.74362406792E+02  0.41800000000E+01 0.  1.
        -11    1    1    2    0    0  0.12164097904E+02  0.17577886920E+02  0.15367796296E+02  0.26327106742E+02  0.00000000000E+00 0.  1.
         11    1    1    2    0    0  0.90218018851E+01 -0.34299921889E+02 -0.82135029219E+02  0.89465303754E+02  0.00000000000E+00 0. -1.
</event>
<event>
 7    1  0.2601031E-009  0.1109796E+03  0.7561462E-02  0.1258766E+00
         -2   -1    0    0    0  501 -0.00000000000E+00  0.00000000000E+00  0.24833636605E+02  0.24833636605E+02  0.00000000000E+00 0. -1.
          2   -1    0    0  501    0  0.00000000000E+00 -0.00000000000E+00 -0.55702673278E+03  0.55702673278E+03  0.00000000000E+00 0.  1.
         25    2    1    2    0    0  0.27204040161E+02  0.33389131885E+02 -0.28198533702E+03  0.31147797538E+03  0.12509158615E+03 0.  0.
          5    1    3    3  502    0  0.50367276483E+02 -0.32198835000E+02 -0.99650788860E+02  0.11628146729E+03  0.41800000000E+01 0.  1.
         -5    1    3    3    0  502 -0.23163236322E+02  0.65587966885E+02 -0.18233454816E+03  0.19519650809E+03  0.41800000000E+01 0.  1.
        -11    1    1    2    0    0  0.49855609868E+01  0.25098798012E+02 -0.13348850211E+03  0.13591904089E+03  0.00000000000E+00 0.  1.
         11    1    1    2    0    0 -0.32189601148E+02 -0.58487929897E+02 -0.11671925704E+03  0.13446335311E+03  0.00000000000E+00 0. -1.
</event>
<event>
 7    1  0.2601031E-009  0.1533492E+03  0.7561462E-02  0.1196417E+00
         -1   -1    0    0    0  501 -0.00000000000E+00  0.00000000000E+00  0.12722318522E+03  0.12722318522E+03  0.00000000000E+00 0.  1.
          1   -1    0    0  501    0  0.00000000000E+00 -0.00000000000E+00 -0.39209549631E+03  0.39209549631E+03  0.00000000000E+00 0. -1.
         25    2    1    2    0    0  0.10758940631E+03 -0.35209059465E+02 -0.32215881823E+03  0.36366104727E+03  0.12509154616E+03 0.  0.
          5    1    3    3  502    0 -0.23945454718E+02 -0.18890386734E+02 -0.30816704736E+02  0.43558847590E+02  0.41800000000E+01 0. -1.
         -5    1    3    3    0  502  0.13153486103E+03 -0.16318672730E+02 -0.29134211349E+03  0.32010219968E+03  0.41800000000E+01 0. -1.
        -11    1    1    2    0    0 -0.75979082473E+02  0.64909432023E+02  0.29685949353E+02  0.10424639528E+03  0.00000000000E+00 0. -1.
         11    1    1    2    0    0 -0.31610323842E+02 -0.29700372558E+02  0.27600557781E+02  0.51411238978E+02  0.00000000000E+00 0.  1.
</event>
<event>
 7    1  0.2601031E-009  0.1209633E+03  0.7561462E-02  0.1241516E+00
          2   -1    0    0  501    0  0.00000000000E+00  0.00000000000E+00  0.48017304371E+03  0.48017304371E+03  0.00000000000E+00 0. -1.
         -2   -1    0    0    0  501 -0.00000000000E+00 -0.00000000000E+00 -0.33801470840E+02  0.33801470840E+02  0.00000000000E+00 0.  1.
         25    2    1    2    0    0 -0.56310209212E+02  0.92649619301E+00  0.30816243996E+03  0.33731728356E+03  0.12508861791E+03 0.  0.
          5    1    3    3  502    0  0.11720983877E+02  0.49883756733E+02  0.91245541626E+02  0.10473295525E+03  0.41800000000E+01 0. -1.
         -5    1    3    3    0  502 -0.68031193089E+02 -0.48957260540E+02  0.21691689833E+03  0.23258432831E+03  0.41800000000E+01 0. -1.
        -11    1    1    2    0    0  0.76294516872E+02  0.18733403667E+02  0.80401783527E+02  0.11241103376E+03  0.00000000000E+00 0.  1.
         11    1    1    2    0    0 -0.19984307660E+02 -0.19659899860E+02  0.57807349385E+02  0.64246197227E+02  0.00000000000E+00 0. -1.
</event>
<event>
 7    1  0.2601031E-009  0.1047433E+03  0.7561462E-02  0.1270626E+00
         -1   -1    0    0    0  501 -0.00000000000E+00  0.00000000000E+00  0.53339886098E+03  0.53339886098E+03  0.00000000000E+00 0.  1.
          1   -1    0    0  501    0  0.00000000000E+00 -0.00000000000E+00 -0.37714802225E+02  0.37714802225E+02  0.00000000000E+00 0. -1.
         25    2    1    2    0    0  0.35177798434E+02  0.23105565076E+02  0.43155106974E+03  0.45128227527E+03  0.12509205223E+03 0.  0.
          5    1    3    3  502    0 -0.94466324632E+01  0.62143240490E+02  0.30541076104E+03  0.31184006568E+03  0.41800000000E+01 0.  1.
         -5    1    3    3    0  502  0.44624430898E+02 -0.39037675414E+02  0.12614030870E+03  0.13944220958E+03  0.41800000000E+01 0.  1.
        -11    1    1    2    0    0 -0.59550296776E+02 -0.16961009552E+02  0.13603184872E+02  0.63395270563E+02  0.00000000000E+00 0.  1.
         11    1    1    2    0    0  0.24372498342E+02 -0.61445555245E+01  0.50529804137E+02  0.56436117373E+02  0.00000000000E+00 0. -1.
</event>
<event>
 7    1  0.2601031E-009  0.9806346E+02  0.7561462E-02  0.1284422E+00
          2   -1    0    0  501    0  0.00000000000E+00  0.00000000000E+00  0.62280275350E+02  0.62280275350E+02  0.00000000000E+00 0.  1.
         -2   -1    0    0    0  501 -0.00000000000E+00 -0.00000000000E+00 -0.30387477906E+03  0.30387477906E+03  0.00000000000E+00 0. -1.
         25    2    1    2    0    0 -0.15054827503E+02 -0.59491010509E+02 -0.20625966269E+03  0.24891010815E+03  0.12508942929E+03 0.  0.
          5    1    3    3  502    0 -0.49000773629E+02 -0.79886832710E+02 -0.17393332156E+03  0.19761896317E+03  0.41800000000E+01 0. -1.
         -5    1    3    3    0  502  0.33945946125E+02  0.20395822201E+02 -0.32326341138E+02  0.51291144976E+02  0.41800000000E+01 0. -1.
        -11    1    1    2    0    0 -0.10329779443E+01  0.17444002801E+02  0.31874791588E+02  0.36350551797E+02  0.00000000000E+00 0.  1.
         11    1    1    2    0    0  0.16087805448E+02  0.42047007708E+02 -0.67209632600E+02  0.80894394463E+02  0.00000000000E+00 0. -1.
</event>
<event>
 7    1  0.2601031E-009  0.1873811E+03  0.7561462E-02  0.1160845E+00
          2   -1    0    0  501    0  0.00000000000E+00  0.00000000000E+00  0.91171044313E+03  0.91171044313E+03  0.00000000000E+00 0. -1.
         -2   -1    0    0    0  501 -0.00000000000E+00 -0.00000000000E+00 -0.74448949031E+02  0.74448949031E+02  0.00000000000E+00 0.  1.
         25    2    1    2    0    0  0.52094299613E+02  0.17961180914E+03  0.69994226854E+03  0.73521445911E+03  0.12508758357E+03 0.  0.
          5    1    3    3  502    0  0.40726904684E+01  0.27400131659E+02  0.14739162165E+02  0.31655478576E+02  0.41800000000E+01 0. -1.
         -5    1    3    3    0  502  0.48021609144E+02  0.15221167748E+03  0.68520310638E+03  0.70355898054E+03  0.41800000000E+01 0. -1.
        -11    1    1    2    0    0 -0.44467809629E+02 -0.14612716619E+03  0.56024090305E+02  0.16269367992E+03  0.00000000000E+00 0.  1.
         11    1    1    2    0    0 -0.76264899842E+01 -0.33484642952E+02  0.81295135255E+02  0.88251253132E+02  0.00000000000E+00 0. -1.
</event>
<event>
 7    1  0.2601031E-009  0.1195729E+03  0.7561462E-02  0.1243803E+00
          1   -1    0    0  501    0  0.00000000000E+00  0.00000000000E+00  0.11914564880E+03  0.11914564880E+03  0.00000000000E+00 0. -1.
         -1   -1    0    0    0  501 -0.00000000000E+00 -0.00000000000E+00 -0.21143182863E+03  0.21143182863E+03  0.00000000000E+00 0.  1.
         25    2    1    2    0    0  0.10830981351E+03 -0.19897427979E+02 -0.11434662081E+02  0.16705152390E+03  0.12509411176E+03 0.  0.
          5    1    3    3  502    0  0.33778813871E+02  0.90578023593E+01  0.53438577428E+02  0.64001609414E+02  0.41800000000E+01 0. -1.
         -5    1    3    3    0  502  0.74530999644E+02 -0.28955230339E+02 -0.64873239509E+02  0.10304991449E+03  0.41800000000E+01 0. -1.
        -11    1    1    2    0    0 -0.61744182208E+02 -0.17452848034E+02 -0.81627408027E+02  0.10382668097E+03  0.00000000000E+00 0.  1.
         11    1    1    2    0    0 -0.46565631307E+02  0.37350276014E+02  0.77589027432E+00  0.59699272550E+02  0.00000000000E+00 0. -1.
</event>
<event>
 7    1  0.2601031E-009  0.1036265E+03  0.7561462E-02  0.1272850E+00
          2   -1    0    0  501    0  0.00000000000E+00  0.00000000000E+00  0.60047808569E+02  0.60047808569E+02  0.00000000000E+00 0. -1.
         -2   -1    0    0    0  501 -0.00000000000E+00 -0.00000000000E+00 -0.21567216071E+03  0.21567216071E+03  0.00000000000E+00 0.  1.
         25    2    1    2    0    0  0.22062546621E+02  0.26692668208E+01 -0.12338325217E+03  0.17709962110E+03  0.12508784085E+03 0.  0.
          5    1    3    3  502    0 -0.15959048993E+02 -0.50132355917E+02 -0.23391597136E+02  0.57728533423E+02  0.41800000000E+01 0. -1.
         -5    1    3    3    0  502  0.38021595614E+02  0.52801622738E+02 -0.99991655036E+02  0.11937108768E+03  0.41800000000E+01 0. -1.
        -11    1    1    2    0    0  0.32378683247E+02  0.89815863633E+01 -0.26221773269E+02  0.42621935852E+02  0.00000000000E+00 0.  1.
         11    1    1    2    0    0 -0.54441229868E+02 -0.11650853184E+02 -0.60193267036E+01  0.55998412329E+02  0.00000000000E+00 0. -1.
</event>
<event>
 7    1  0.2601031E-009  0.9471520E+02  0.7561462E-02  0.1291819E+00
          1   -1    0    0  501    0  0.00000000000E+00  0.00000000000E+00  0.75717528024E+03  0.75717528024E+03  0.00000000000E+00 0. -1.
         -1   -1    0    0    0  501 -0.00000000000E+00 -0.00000000000E+00 -0.24214952547E+02  0.24214952547E+02  0.00000000000E+00 0.  1.
         25    2    1    2    0    0  0.23163814726E+02  0.67771637241E+02  0.50947061430E+03  0.52946893909E+03  0.12508994163E+03 0.  0.
          5    1    3    3  502    0  0.11286178625E+02  0.65742605142E+02  0.10291193792E+03  0.12271025762E+03  0.41800000000E+01 0.  1.
         -5    1    3    3    0  502  0.11877636101E+02  0.20290320986E+01  0.40655867638E+03  0.40675868147E+03  0.41800000000E+01 0.  1.
        -11    1    1    2    0    0 -0.24474063890E+01  0.19750010643E+02  0.15196580641E+02  0.25039744041E+02  0.00000000000E+00 0.  1.
         11    1    1    2    0    0 -0.20716408337E+02 -0.87521647884E+02  0.20829313275E+03  0.22688154965E+03  0.00000000000E+00 0. -1.
</event>
<event>
 7    1  0.2601031E-009  0.1204684E+03  0.7561462E-02  0.1242326E+00
         -1   -1    0    0    0  501 -0.00000000000E+00  0.00000000000E+00  0.93011107927E+02  0.93011107927E+02  0.00000000000E+00 0.  1.
          1   -1    0    0  501    0  0.00000000000E+00 -0.00000000000E+00 -0.23261394863E+03  0.23261394863E+03  0.00000000000E+00 0. -1.
         25    2    1    2    0    0  0.48859708001E+02 -0.75079182218E+02 -0.31887457823E+02  0.15712786651E+03  0.12509277277E+03 0.  0.
          5    1    3    3  502    0  0.61461860944E+02 -0.85462784963E+02 -0.62273334529E+02  0.12238009870E+03  0.41800000000E+01 0.  1.
         -5    1    3    3    0  502 -0.12602152942E+02  0.10383602745E+02  0.30385876705E+02  0.34747767812E+02  0.41800000000E+01 0.  1.
        -11    1    1    2    0    0  0.18432683446E+02  0.37181383717E+02 -0.78212362398E+01  0.42230212531E+02  0.00000000000E+00 0.  1.
         11    1    1    2    0    0 -0.67292391447E+02  0.37897798501E+02 -0.99894146640E+02  0.12626697752E+03  0.00000000000E+00 0. -1.
</event>
<event>
 7    1  0.2601031E-009  0.1123717E+03  0.7561462E-02  0.1256240E+00
         -2   -1    0    0    0  501 -0.00000000000E+00  0.00000000000E+00  0.32455329357E+02  0.32455329357E+02  0.00000000000E+00 0.  1.
          2   -1    0    0  501    0  0.00000000000E+00 -0.00000000000E+00 -0.54343901605E+03  0.54343901605E+03  0.00000000000E+00 0. -1.
         25    2    1    2    0    0  0.18726393669E+01 -0.72646406750E+02 -0.22876467225E+03  0.27066687105E+03  0.12508506156E+03 0.  0.
          5    1    3    3  502    0  0.57329151695E+02 -0.59735116301E+01 -0.94889345046E+02  0.11110254128E+03  0.41800000000E+01 0. -1.
         -5    1    3    3    0  502 -0.55456512328E+02 -0.66672895120E+02 -0.13387532720E+03  0.15956432978E+03  0.41800000000E+01 0. -1.
        -11    1    1    2    0    0 -0.12555505484E+02  0.66764326161E+02 -0.28477613724E+03  0.29276708201E+03  0.00000000000E+00 0. -1.
         11    1    1    2    0    0  0.10682866117E+02  0.58820805887E+01  0.25571227913E+01  0.12460392349E+02  0.00000000000E+00 0.  1.
</event>
<event>
 7    1  0.2601031E-009  0.1096984E+03  0.7561462E-02  0.1261129E+00
         -2   -1    0    0    0  501 -0.00000000000E+00  0.00000000000E+00  0.21111072152E+02  0.21111072152E+02  0.00000000000E+00 0.  1.
          2   -1    0    0  501    0  0.00000000000E+00 -0.00000000000E+00 -0.61992652501E+03  0.61992652501E+03  0.00000000000E+00 0. -1.
         25    2    1    2    0    0 -0.26062322872E+02 -0.60328998887E+01 -0.40743597291E+03  0.42704440241E+03  0.12508880468E+03 0.  0.
          5    1    3    3  502    0  0.30173285342E+02  0.40420243571E+02 -0.11545846315E+03  0.12606487358E+03  0.41800000000E+01 0.  1.
         -5    1    3    3    0  502 -0.56235608214E+02 -0.46453143460E+02 -0.29197750976E+03  0.30097952883E+03  0.41800000000E+01 0.  1.
        -11    1    1    2    0    0  0.37979393147E+01  0.48035115636E+02 -0.94092836605E+02  0.10571309558E+03  0.00000000000E+00 0.  1.
         11    1    1    2    0    0  0.22264383558E+02 -0.42002215747E+02 -0.97286643347E+02  0.10828009917E+03  0.00000000000E+00 0. -1.
</event>
<event>
 7    1  0.2601031E-009  0.2436362E+03  0.7561462E-02  0.1117394E+00
          1   -1    0    0  501    0  0.00000000000E+00  0.00000000000E+00  0.28092395276E+03  0.28092395276E+03  0.00000000000E+00 0. -1.
         -1   -1    0    0    0  501 -0.00000000000E+00 -0.00000000000E+00 -0.34437930423E+03  0.34437930423E+03  0.00000000000E+00 0.  1.
         25    2    1    2    0    0  0.22165415271E+03  0.62820080218E+02  0.14704766233E+03  0.30057846697E+03  0.12508986337E+03 0.  0.
          5    1    3    3  502    0  0.18267429265E+03  0.15289818291E+02  0.15282295647E+03  0.23869646868E+03  0.41800000000E+01 0. -1.
         -5    1    3    3    0  502  0.38979860063E+02  0.47530261927E+02 -0.57752941461E+01  0.61881998286E+02  0.41800000000E+01 0. -1.
        -11    1    1    2    0    0 -0.80383419318E+02  0.13845266215E+02 -0.10286517239E+03  0.13127996492E+03  0.00000000000E+00 0.  1.
         11    1    1    2    0    0 -0.14127073339E+03 -0.76665346433E+02 -0.10763784140E+03  0.19344482510E+03  0.00000000000E+00 0. -1.
</event>
<event>
 7    1  0.2601031E-009  0.5836716E+02  0.7561462E-02  0.1404815E+00
          2   -1    0    0  501    0  0.00000000000E+00  0.00000000000E+00  0.19187463824E+03  0.19187463824E+03  0.00000000000E+00 0. -1.
         -2   -1    0    0    0  501 -0.00000000000E+00 -0.00000000000E+00 -0.81221431299E+02  0.81221431299E+02  0.00000000000E+00 0.  1.
         25    2    1    2    0    0  0.84174420704E+00  0.50109419634E+02  0.26321358424E+02  0.13729758158E+03  0.12508456950E+03 0.  0.
          5    1    3    3  502    0 -0.15841846609E+02  0.77909363173E+01 -0.47297784293E+02  0.50657828533E+02  0.41800000000E+01 0.  1.
         -5    1    3    3    0  502  0.16683590816E+02  0.42318483317E+02  0.73619142717E+02  0.86639753042E+02  0.41800000000E+01 0.  1.
        -11    1    1    2    0    0 -0.78896837959E+01 -0.13549977465E+02 -0.19773346215E+02  0.25235574498E+02  0.00000000000E+00 0.  1.
         11    1    1    2    0    0  0.70479395889E+01 -0.36559442169E+02  0.10410519473E+03  0.11056291347E+03  0.00000000000E+00 0. -1.
</event>
<event>
 7    1  0.2601031E-009  0.1277754E+03  0.7561462E-02  0.1230794E+00
          4   -1    0    0  501    0  0.00000000000E+00  0.00000000000E+00  0.46506862545E+02  0.46506862545E+02  0.00000000000E+00 0. -1.
         -4   -1    0    0    0  501 -0.00000000000E+00 -0.00000000000E+00 -0.41872581145E+03  0.41872581145E+03  0.00000000000E+00 0.  1.
         25    2    1    2    0    0  0.72523628815E+02  0.10704910855E+02 -0.28108057167E+03  0.31627735720E+03  0.12510318563E+03 0.  0.
          5    1    3    3  502    0  0.82084990052E+02  0.50837327921E+02 -0.23602353615E+03  0.25504305816E+03  0.41800000000E+01 0.  1.
         -5    1    3    3    0  502 -0.95613612366E+01 -0.40132417066E+02 -0.45057035518E+02  0.61234299032E+02  0.41800000000E+01 0.  1.
        -11    1    1    2    0    0 -0.93888830191E+02 -0.16445028686E+02 -0.78463458319E+02  0.12345876111E+03  0.00000000000E+00 0.  1.
         11    1    1    2    0    0  0.21365201375E+02  0.57401178311E+01 -0.12674918922E+02  0.25496555693E+02  0.00000000000E+00 0. -1.
</event>
<event>
 7    1  0.2601031E-009  0.1201336E+03  0.7561462E-02  0.1242877E+00
         -1   -1    0    0    0  501 -0.00000000000E+00  0.00000000000E+00  0.99287925625E+02  0.99287925625E+02  0.00000000000E+00 0.  1.
          1   -1    0    0  501    0  0.00000000000E+00 -0.00000000000E+00 -0.14786527318E+03  0.14786527318E+03  0.00000000000E+00 0. -1.
         25    2    1    2    0    0 -0.52245589379E+02  0.66941922618E+01 -0.12981875844E+02  0.13634605902E+03  0.12508918774E+03 0.  0.
          5    1    3    3  502    0 -0.82540838644E+02  0.38561859199E+02 -0.13377819433E+02  0.92176165475E+02  0.41800000000E+01 0. -1.
         -5    1    3    3    0  502  0.30295249265E+02 -0.31867666937E+02  0.39594358972E+00  0.44169893540E+02  0.41800000000E+01 0. -1.
        -11    1    1    2    0    0  0.55952829506E+02  0.33048226130E+02 -0.23444770595E+02  0.69083729259E+02  0.00000000000E+00 0. -1.
         11    1    1    2    0    0 -0.37072401264E+01 -0.39742418392E+02 -0.12150701121E+02  0.41723410535E+02  0.00000000000E+00 0.  1.
</event>
<event>
 7    1  0.2601031E-009  0.1305533E+03  0.7561462E-02  0.1226637E+00
         -1   -1    0    0    0  501 -0.00000000000E+00  0.00000000000E+00  0.15777410328E+03  0.15777410328E+03  0.00000000000E+00 0.  1.
          1   -1    0    0  501    0  0.00000000000E+00 -0.00000000000E+00 -0.11842753628E+03  0.11842753628E+03  0.00000000000E+00 0. -1.
         25    2    1    2    0    0 -0.81780041155E+02  0.20898210625E+00  0.41300927240E+02  0.15504658687E+03  0.12508260752E+03 0.  0.
          5    1    3    3  502    0 -0.10127602236E+03 -0.28447847406E+02  0.60780092930E+01  0.10545391090E+03  0.41800000000E+01 0.  1.
         -5    1    3    3    0  502  0.19495981206E+02  0.28656829512E+02  0.35222917947E+02  0.49592675967E+02  0.41800000000E+01 0.  1.
        -11    1    1    2    0    0  0.42932199291E+02 -0.44614926097E+02 -0.46680318276E+01  0.62092317462E+02  0.00000000000E+00 0.  1.
         11    1    1    2    0    0  0.38847841864E+02  0.44405943991E+02  0.27136715801E+01  0.59062735229E+02  0.00000000000E+00 0. -1.
</event>
<event>
 7    1  0.2601031E-009  0.1050447E+03  0.7561462E-02  0.1270032E+00
         -2   -1    0    0    0  501 -0.00000000000E+00  0.00000000000E+00  0.52771257324E+02  0.52771257324E+02  0.00000000000E+00 0.  1.
          2   -1    0    0  501    0  0.00000000000E+00 -0.00000000000E+00 -0.27354749676E+03  0.27354749676E+03  0.00000000000E+00 0. -1.
         25    2    1    2    0    0  0.13520039605E+02 -0.23995915332E+02 -0.18049059827E+03  0.22131773166E+03  0.12508431900E+03 0.  0.
          5    1    3    3  502    0 -0.54083195993E+01  0.49333065661E+02 -0.93242018177E+02  0.10570973296E+03  0.41800000000E+01 0.  1.
         -5    1    3    3    0  502  0.18928359204E+02 -0.73328980993E+02 -0.87248580093E+02  0.11560799870E+03  0.41800000000E+01 0.  1.
        -11    1    1    2    0    0  0.28432604159E+02  0.30821317216E+02  0.57716061039E+01  0.42328217671E+02  0.00000000000E+00 0.  1.
         11    1    1    2    0    0 -0.41952643764E+02 -0.68254018844E+01 -0.46057247272E+02  0.62672804756E+02  0.00000000000E+00 0. -1.
</event>
<event>
 7    1  0.2601031E-009  0.1128121E+03  0.7561462E-02  0.1255449E+00
          1   -1    0    0  501    0  0.00000000000E+00  0.00000000000E+00  0.40304525976E+02  0.40304525976E+02  0.00000000000E+00 0. -1.
         -1   -1    0    0    0  501 -0.00000000000E+00 -0.00000000000E+00 -0.64063789310E+03  0.64063789310E+03  0.00000000000E+00 0.  1.
         25    2    1    2    0    0  0.98556559836E+02 -0.64314190075E+01 -0.45782517908E+03  0.48477717992E+03  0.12510100294E+03 0.  0.
          5    1    3    3  502    0  0.31488672991E+02  0.35080902589E+02 -0.47988912434E+02  0.67398919649E+02  0.41800000000E+01 0.  1.
         -5    1    3    3    0  502  0.67067886845E+02 -0.41512321596E+02 -0.40983626665E+03  0.41737826028E+03  0.41800000000E+01 0.  1.
        -11    1    1    2    0    0 -0.30725242238E+02  0.68515982660E+01  0.67685605954E+01  0.32199352818E+02  0.00000000000E+00 0. -1.
         11    1    1    2    0    0 -0.67831317598E+02 -0.42017925851E+00 -0.14927674864E+03  0.16396588633E+03  0.00000000000E+00 0.  1.
</event>
<event>
 7    1  0.2601031E-009  0.9917444E+02  0.7561462E-02  0.1282042E+00
          1   -1    0    0  501    0  0.00000000000E+00  0.00000000000E+00  0.27508195711E+03  0.27508195711E+03  0.00000000000E+00 0. -1.
         -1   -1    0    0    0  501 -0.00000000000E+00 -0.00000000000E+00 -0.51759371280E+02  0.51759371280E+02  0.00000000000E+00 0.  1.
         25    2    1    2    0    0  0.45815706704E+02 -0.11997375690E+02  0.11726809847E+03  0.17787721012E+03  0.12508188900E+03 0.  0.
          5    1    3    3  502    0 -0.18735304299E+01 -0.46422296945E+02  0.10870894500E+03  0.11829474584E+03  0.41800000000E+01 0. -1.
         -5    1    3    3    0  502  0.47689237134E+02  0.34424921255E+02  0.85591534706E+01  0.59582464282E+02  0.41800000000E+01 0. -1.
        -11    1    1    2    0    0 -0.32017917623E+02 -0.32815557202E+02  0.18098733728E+02  0.49290688837E+02  0.00000000000E+00 0.  1.
         11    1    1    2    0    0 -0.13797789081E+02  0.44812932893E+02  0.87955753635E+02  0.99673429436E+02  0.00000000000E+00 0. -1.
</event>
<event>
 7    1  0.2601031E-009  0.1375866E+03  0.7561462E-02  0.1216614E+00
         -2   -1    0    0    0  501 -0.00000000000E+00  0.00000000000E+00  0.32885560929E+02  0.32885560929E+02  0.00000000000E+00 0. -1.
          2   -1    0    0  501    0  0.00000000000E+00 -0.00000000000E+00 -0.10626132090E+04  0.10626132090E+04  0.00000000000E+00 0.  1.
         25    2    1    2    0    0 -0.11218908297E+03  0.67808737990E+00 -0.83879218066E+03  0.85545569057E+03  0.12508103796E+03 0.  0.
          5    1    3    3  502    0 -0.54461504565E+02 -0.48862191444E+02 -0.21762166883E+03  0.22963064337E+03  0.41800000000E+01 0.  1.
         -5    1    3    3    0  502 -0.57727578408E+02  0.49540278824E+02 -0.62117051183E+03  0.62582504720E+03  0.41800000000E+01 0.  1.
        -11    1    1    2    0    0  0.48747681608E+02  0.27847519469E+02 -0.27695794867E+02  0.62600941335E+02  0.00000000000E+00 0.  1.
         11    1    1    2    0    0  0.63441401365E+02 -0.28525606849E+02 -0.16323967256E+03  0.17744213804E+03  0.00000000000E+00 0. -1.
</event>
<event>
 7    1  0.2601031E-009  0.1761881E+03  0.7561462E-02  0.1171544E+00
         -1   -1    0    0    0  501 -0.00000000000E+00  0.00000000000E+00  0.38436640291E+03  0.38436640291E+03  0.00000000000E+00 0.  1.
          1   -1    0    0  501    0  0.00000000000E+00 -0.00000000000E+00 -0.95522612896E+02  0.95522612896E+02  0.00000000000E+00 0. -1.
         25    2    1    2    0    0 -0.49784003049E+01 -0.13736292122E+03  0.24356939206E+03  0.30637715696E+03  0.12509019530E+03 0.  0.
          5    1    3    3  502    0 -0.32340549827E+02 -0.15134719695E+03  0.20457502483E+03  0.25655466936E+03  0.41800000000E+01 0. -1.
         -5    1    3    3    0  502  0.27362149522E+02  0.13984275730E+02  0.38994367230E+02  0.49822487592E+02  0.41800000000E+01 0. -1.
        -11    1    1    2    0    0  0.30609447519E+02  0.41519552563E+01  0.15784753949E+02  0.34689126064E+02  0.00000000000E+00 0. -1.
         11    1    1    2    0    0 -0.25631047214E+02  0.13321096596E+03  0.29489643999E+02  0.13882273278E+03  0.00000000000E+00 0.  1.
</event>
<event>
 7    1  0.2601031E-009  0.9160527E+02  0.7561462E-02  0.1299010E+00
         -1   -1    0    0    0  501 -0.00000000000E+00  0.00000000000E+00  0.33734528748E+02  0.33734528748E+02  0.00000000000E+00 0.  1.
          1   -1    0    0  501    0  0.00000000000E+00 -0.00000000000E+00 -0.42544027358E+03  0.42544027358E+03  0.00000000000E+00 0. -1.
         25    2    1    2    0    0 -0.24427852139E+02 -0.38423837692E+02 -0.27055263310E+03  0.30152985636E+03  0.12509362788E+03 0.  0.
          5    1    3    3  502    0 -0.66255486600E+02 -0.28604328071E+02 -0.23417481883E+03  0.24507818194E+03  0.41800000000E+01 0. -1.
         -5    1    3    3    0  502  0.41827634462E+02 -0.98195096212E+01 -0.36377814272E+02  0.56451674422E+02  0.41800000000E+01 0. -1.
        -11    1    1    2    0    0  0.76152562766E+01  0.47869330871E+02 -0.16458809480E+02  0.51189426405E+02  0.00000000000E+00 0.  1.
         11    1    1    2    0    0  0.16812595862E+02 -0.94454931795E+01 -0.10469430225E+03  0.10645551956E+03  0.00000000000E+00 0. -1.
</event>
<event>
 7    1  0.2601031E-009  0.1074079E+03  0.7561462E-02  0.1265447E+00
         -1   -1    0    0    0  501 -0.00000000000E+00  0.00000000000E+00  0.54472989861E+02  0.54472989861E+02  0.00000000000E+00 0.  1.
          1   -1    0    0  501    0  0.00000000000E+00 -0.00000000000E+00 -0.32134669272E+03  0.32134669272E+03  0.00000000000E+00 0. -1.
         25    2    1    2    0    0  0.35457069717E+02 -0.46823898721E+02 -0.77748618298E+02  0.15856260349E+03  0.12509024859E+03 0.  0.
          5    1    3    3  502    0  0.66535897478E+02  0.45153475959E+01 -0.71844387128E+02  0.98114740885E+02  0.41800000000E+01 0.  1.
         -5    1    3    3    0  502 -0.31078827761E+02 -0.51339246317E+02 -0.59042311706E+01  0.60447862602E+02  0.41800000000E+01 0.  1.
        -11    1    1    2    0    0 -0.15346369924E+02 -0.15822260647E+02 -0.11929092994E+03  0.12131026737E+03  0.00000000000E+00 0. -1.
         11    1    1    2    0    0 -0.20110699793E+02  0.62646159368E+02 -0.69834154618E+02  0.95946811729E+02  0.00000000000E+00 0.  1.
</event>
<event>
 7    1  0.2601031E-009  0.1076229E+03  0.7561462E-02  0.1265036E+00
          1   -1    0    0  501    0  0.00000000000E+00  0.00000000000E+00  0.13520473482E+03  0.13520473482E+03  0.00000000000E+00 0. -1.
         -1   -1    0    0    0  501 -0.00000000000E+00 -0.00000000000E+00 -0.11491365237E+03  0.11491365237E+03  0.00000000000E+00 0.  1.
         25    2    1    2    0    0  0.71481275989E+01  0.60226003124E+02  0.19275633286E+02  0.14034039736E+03  0.12508241248E+03 0.  0.
          5    1    3    3  502    0 -0.45298718287E+02  0.71898880261E+02  0.13359359753E+02  0.86124141530E+02  0.41800000000E+01 0.  1.
         -5    1    3    3    0  502  0.52446845886E+02 -0.11672877137E+02  0.59162735330E+01  0.54216255833E+02  0.41800000000E+01 0.  1.
        -11    1    1    2    0    0  0.13654142596E+02 -0.12229112675E+01 -0.35000202629E+02  0.37589164743E+02  0.00000000000E+00 0.  1.
         11    1    1    2    0    0 -0.20802270195E+02 -0.59003091856E+02  0.36015651784E+02  0.72188825086E+02  0.00000000000E+00 0. -1.
</event>
<event>
 7    1  0.2601031E-009  0.8741396E+02  0.7561462E-02  0.1309238E+00
         -1   -1    0    0    0  501 -0.00000000000E+00  0.00000000000E+00  0.13933733063E+03  0.13933733063E+03  0.00000000000E+00 0.  1.
          1   -1    0    0  501    0  0.00000000000E+00 -0.00000000000E+00 -0.88860627173E+02  0.88860627173E+02  0.00000000000E+00 0. -1.
         25    2    1    2    0    0  0.12751503921E+02  0.58339539061E+01  0.33578278567E+02  0.13027388367E+03  0.12508856104E+03 0.  0.
          5    1    3    3  502    0 -0.17377092415E+02  0.51229986556E+02 -0.15918507982E+02  0.56545080774E+02  0.41800000000E+01 0.  1.
         -5    1    3    3    0  502  0.30128596336E+02 -0.45396032650E+02  0.49496786548E+02  0.73728802894E+02  0.41800000000E+01 0.  1.
        -11    1    1    2    0    0 -0.28330775561E+02  0.20747168773E+02  0.44411949714E+02  0.56617127562E+02  0.00000000000E+00 0.  1.
         11    1    1    2    0    0  0.15579271640E+02 -0.26581122679E+02 -0.27513524819E+02  0.41306946579E+02  0.00000000000E+00 0. -1.
</event>
<event>
 7    1  0.2601031E-009  0.9479193E+02  0.7561462E-02  0.1291645E+00
         -2   -1    0    0    0  501 -0.00000000000E+00  0.00000000000E+00  0.14529266846E+02  0.14529266846E+02  0.00000000000E+00 0.  1.
          2   -1    0    0  501    0  0.00000000000E+00 -0.00000000000E+00 -0.83529635184E+03  0.83529635184E+03  0.00000000000E+00 0. -1.
         25    2    1    2    0    0  0.73276117331E+01  0.97189414041E+01 -0.56359644721E+03  0.57744011485E+03  0.12509188311E+03 0.  0.
          5    1    3    3  502    0 -0.52661241669E+02  0.14281842817E+01 -0.38940640845E+03  0.39297591456E+03  0.41800000000E+01 0.  1.
         -5    1    3    3    0  502  0.59988853402E+02  0.82907571223E+01 -0.17419003876E+03  0.18446420029E+03  0.41800000000E+01 0.  1.
        -11    1    1    2    0    0  0.19127680803E+02 -0.34716580780E+02 -0.20485288307E+03  0.20865237323E+03  0.00000000000E+00 0. -1.
         11    1    1    2    0    0 -0.26455292536E+02  0.24997639376E+02 -0.52317754721E+02  0.63733130604E+02  0.00000000000E+00 0.  1.
</event>
<event>
 7    1  0.2601031E-009  0.9190605E+02  0.7561462E-02  0.1298300E+00
          3   -1    0    0  501    0  0.00000000000E+00  0.00000000000E+00  0.14961393143E+03  0.14961393143E+03  0.00000000000E+00 0. -1.
         -3   -1    0    0    0  501 -0.00000000000E+00 -0.00000000000E+00 -0.88384122306E+02  0.88384122306E+02  0.00000000000E+00 0.  1.
         25    2    1    2    0    0 -0.23477211731E+02 -0.18913564083E+02  0.13128044348E+02  0.12933604780E+03  0.12508623160E+03 0.  0.
          5    1    3    3  502    0  0.50897622139E+02  0.24059962221E+01  0.71439759357E+01  0.51622335761E+02  0.41800000000E+01 0. -1.
         -5    1    3    3    0  502 -0.74374833870E+02 -0.21319560305E+02  0.59840684124E+01  0.77713712044E+02  0.41800000000E+01 0. -1.
        -11    1    1    2    0    0  0.30947331869E+01  0.31233855786E+02  0.69743903739E+02  0.76480999140E+02  0.00000000000E+00 0. -1.
         11    1    1    2    0    0  0.20382478544E+02 -0.12320291703E+02 -0.21642138962E+02  0.32181006791E+02  0.00000000000E+00 0.  1.
</event>
<event>
 7    1  0.2601031E-009  0.1305738E+03  0.7561462E-02  0.1226607E+00
         -2   -1    0    0    0  501 -0.00000000000E+00  0.00000000000E+00  0.32176111853E+02  0.32176111853E+02  0.00000000000E+00 0.  1.
          2   -1    0    0  501    0  0.00000000000E+00 -0.00000000000E+00 -0.53573674914E+03  0.53573674914E+03  0.00000000000E+00 0. -1.
         25    2    1    2    0    0  0.91322800493E+01 -0.69125649541E+02 -0.25951050476E+03  0.29639772759E+03  0.12507660403E+03 0.  0.
          5    1    3    3  502    0  0.63281055648E+02 -0.12314683572E+02 -0.11766235457E+03  0.13423131348E+03  0.41800000000E+01 0.  1.
         -5    1    3    3    0  502 -0.54148775599E+02 -0.56810965969E+02 -0.14184815020E+03  0.16216641412E+03  0.41800000000E+01 0.  1.
        -11    1    1    2    0    0 -0.48392026851E+00  0.92771135009E+02 -0.17595012487E+03  0.19890993970E+03  0.00000000000E+00 0. -1.
         11    1    1    2    0    0 -0.86483597808E+01 -0.23645485468E+02 -0.68100007659E+02  0.72605193706E+02  0.00000000000E+00 0.  1.
</event>
<event>
 7    1  0.2601031E-009  0.1215676E+03  0.7561462E-02  0.1240533E+00
         -1   -1    0    0    0  501 -0.00000000000E+00  0.00000000000E+00  0.46660029450E+02  0.46660029450E+02  0.00000000000E+00 0.  1.
          1   -1    0    0  501    0  0.00000000000E+00 -0.00000000000E+00 -0.67403655730E+03  0.67403655730E+03  0.00000000000E+00 0. -1.
         25    2    1    2    0    0  0.51072907480E+02 -0.10737551969E+03 -0.48347897035E+03  0.51335927704E+03  0.12509152028E+03 0.  0.
          5    1    3    3  502    0  0.14778148705E+02 -0.64414139173E+02 -0.43185799324E+03  0.43690545170E+03  0.41800000000E+01 0.  1.
         -5    1    3    3    0  502  0.36294758775E+02 -0.42961380521E+02 -0.51620977110E+02  0.76453825336E+02  0.41800000000E+01 0.  1.
        -11    1    1    2    0    0 -0.48441217194E+02  0.83766080882E+02 -0.15371258664E+03  0.18163388209E+03  0.00000000000E+00 0. -1.
         11    1    1    2    0    0 -0.26316902854E+01  0.23609438812E+02  0.98150291371E+01  0.25703427626E+02  0.00000000000E+00 0.  1.
</event>
<event>
 7    1  0.2601031E-009  0.1014472E+03  0.7561462E-02  0.1277282E+00
         -2   -1    0    0    0  501 -0.00000000000E+00  0.00000000000E+00  0.51131593639E+02  0.51131593639E+02  0.00000000000E+00 0. -1.
          2   -1    0    0  501    0  0.00000000000E+00 -0.00000000000E+00 -0.23552021890E+03  0.23552021890E+03  0.00000000000E+00 0.  1.
         25    2    1    2    0    0  0.17173960018E+02 -0.42681585587E+01 -0.12035629250E+03  0.17448957627E+03  0.12509121872E+03 0.  0.
          5    1    3    3  502    0  0.26384172940E+02  0.50548748362E+02 -0.99917198150E+02  0.11511828451E+03  0.41800000000E+01 0.  1.
         -5    1    3    3    0  502 -0.92102129216E+01 -0.54816906921E+02 -0.20439094353E+02  0.59371291753E+02  0.41800000000E+01 0.  1.
        -11    1    1    2    0    0 -0.26899961164E+02 -0.38027231210E+02 -0.45023244606E+02  0.64782488212E+02  0.00000000000E+00 0.  1.
         11    1    1    2    0    0  0.97260011451E+01  0.42295389768E+02 -0.19009088149E+02  0.47379748060E+02  0.00000000000E+00 0. -1.
</event>
<event>
 7    1  0.2601031E-009  0.1298760E+03  0.7561462E-02  0.1227640E+00
          2   -1    0    0  501    0  0.00000000000E+00  0.00000000000E+00  0.66203173562E+03  0.66203173562E+03  0.00000000000E+00 0. -1.
         -2   -1    0    0    0  501 -0.00000000000E+00 -0.00000000000E+00 -0.26657202411E+02  0.26657202411E+02  0.00000000000E+00 0.  1.
         25    2    1    2    0    0 -0.56266070679E+02  0.48452992934E+02  0.41570250700E+03  0.44042070464E+03  0.12509300347E+03 0.  0.
          5    1    3    3  502    0  0.26056498431E+02  0.55452808913E+02  0.14824709267E+03  0.16046379034E+03  0.41800000000E+01 0. -1.
         -5    1    3    3    0  502 -0.82322569110E+02 -0.69998159790E+01  0.26745541433E+03  0.27995691430E+03  0.41800000000E+01 0. -1.
        -11    1    1    2    0    0 -0.23038273506E+02 -0.22419814025E+02  0.64802676140E+02  0.72338073945E+02  0.00000000000E+00 0.  1.
         11    1    1    2    0    0  0.79304344186E+02 -0.26033178908E+02  0.15486935007E+03  0.17593015944E+03  0.00000000000E+00 0. -1.
</event>
<event>
 7    1  0.2601031E-009  0.1128795E+03  0.7561462E-02  0.1255329E+00
          2   -1    0    0  501    0  0.00000000000E+00  0.00000000000E+00  0.22547865187E+03  0.22547865187E+03  0.00000000000E+00 0.  1.
         -2   -1    0    0    0  501 -0.00000000000E+00 -0.00000000000E+00 -0.80713131648E+02  0.80713131648E+02  0.00000000000E+00 0. -1.
         25    2    1    2    0    0 -0.48374959067E+02  0.52226619911E+02  0.39741112410E+02  0.14931238331E+03  0.12508827004E+03 0.  0.
          5    1    3    3  502    0  0.12237574333E+02  0.68940759134E+02 -0.75196421966E+01  0.70545048829E+02  0.41800000000E+01 0.  1.
         -5    1    3    3    0  502 -0.60612533400E+02 -0.16714139223E+02  0.47260754606E+02  0.78767334480E+02  0.41800000000E+01 0.  1.
        -11    1    1    2    0    0  0.53078114566E+01 -0.49138743221E+02  0.71953444031E+01  0.49945589684E+02  0.00000000000E+00 0. -1.
         11    1    1    2    0    0  0.43067147610E+02 -0.30878766899E+01  0.97829063410E+02  0.10693381052E+03  0.00000000000E+00 0.  1.
</event>
<event>
 7    1  0.2601031E-009  0.1381246E+03  0.7561462E-02  0.1215875E+00
          2   -1    0    0  501    0  0.00000000000E+00  0.00000000000E+00  0.66992759318E+03  0.66992759318E+03  0.00000000000E+00 0. -1.
         -2   -1    0    0    0  501 -0.00000000000E+00 -0.00000000000E+00 -0.39897106980E+02  0.39897106980E+02  0.00000000000E+00 0.  1.
         25    2    1    2    0    0 -0.77449482067E+02  0.88447560986E+02  0.40797205053E+03  0.44261939334E+03  0.12509732225E+03 0.  0.
          5    1    3    3  502    0 -0.37771351385E+02 -0.19928056543E+02  0.47085740402E+02  0.63705115746E+02  0.41800000000E+01 0. -1.
         -5    1    3    3    0  502 -0.39678130683E+02  0.10837561753E+03  0.36088631013E+03  0.37891427760E+03  0.41800000000E+01 0. -1.
        -11    1    1    2    0    0  0.58399041158E+02 -0.61061128299E+02  0.64888127421E+02  0.10653346177E+03  0.00000000000E+00 0.  1.
         11    1    1    2    0    0  0.19050440909E+02 -0.27386432686E+02  0.15717030825E+03  0.16067184504E+03  0.00000000000E+00 0. -1.
</event>
<event>
 7    1  0.2601031E-009  0.1463683E+03  0.7561462E-02  0.1205008E+00
         -1   -1    0    0    0  501 -0.00000000000E+00  0.00000000000E+00  0.22864712799E+02  0.22864712799E+02  0.00000000000E+00 0.  1.
          1   -1    0    0  501    0  0.00000000000E+00 -0.00000000000E+00 -0.14364603037E+04  0.14364603037E+04  0.00000000000E+00 0. -1.
         25    2    1    2    0    0  0.11867776494E+03 -0.73838474244E+02 -0.10258573231E+04  0.10428641079E+04  0.12508304445E+03 0.  0.
          5    1    3    3  502    0  0.61554188118E+02 -0.21778241446E+02 -0.82530234055E+03  0.82789168108E+03  0.41800000000E+01 0.  1.
         -5    1    3    3    0  502  0.57123576826E+02 -0.52060232798E+02 -0.20055498258E+03  0.21497242685E+03  0.41800000000E+01 0.  1.
        -11    1    1    2    0    0 -0.31488542504E+02  0.50732584607E+02 -0.12192703528E+03  0.13576275403E+03  0.00000000000E+00 0. -1.
         11    1    1    2    0    0 -0.87189222439E+02  0.23105889637E+02 -0.26581123249E+03  0.28069815454E+03  0.00000000000E+00 0.  1.
</event>
<event>
 7    1  0.2601031E-009  0.2969526E+03  0.7561462E-02  0.1086774E+00
         -1   -1    0    0    0  501 -0.00000000000E+00  0.00000000000E+00  0.16016269664E+03  0.16016269664E+03  0.00000000000E+00 0.  1.
          1   -1    0    0  501    0  0.00000000000E+00 -0.00000000000E+00 -0.56597566277E+03  0.56597566277E+03  0.00000000000E+00 0. -1.
         25    2    1    2    0    0 -0.11363693824E+03 -0.25243085443E+03 -0.15152563764E+03  0.33947270588E+03  0.12508800573E+03 0.  0.
          5    1    3    3  502    0 -0.82917503125E+02 -0.46957877288E+02 -0.57668954233E+02  0.11146091354E+03  0.41800000000E+01 0. -1.
         -5    1    3    3    0  502 -0.30719435111E+02 -0.20547297714E+03 -0.93856683406E+02  0.22801179234E+03  0.41800000000E+01 0. -1.
        -11    1    1    2    0    0 -0.15256241959E+02  0.24034245543E+02 -0.18125983023E+02  0.33748320522E+02  0.00000000000E+00 0.  1.
         11    1    1    2    0    0  0.12889318019E+03  0.22839660888E+03 -0.23616134547E+03  0.35291733302E+03  0.00000000000E+00 0. -1.
</event>
<event>
 7    1  0.2601031E-009  0.1546544E+03  0.7561462E-02  0.1194868E+00
         -2   -1    0    0    0  501 -0.00000000000E+00  0.00000000000E+00  0.53000228949E+03  0.53000228949E+03  0.00000000000E+00 0.  1.
          2   -1    0    0  501    0  0.00000000000E+00 -0.00000000000E+00 -0.56583741253E+02  0.56583741253E+02  0.00000000000E+00 0. -1.
         25    2    1    2    0    0  0.11020861322E+03  0.14385972951E+02  0.12363821473E+03  0.20805573338E+03  0.12509150812E+03 0.  0.
          5    1    3    3  502    0  0.13586817757E+03  0.16001858809E+01  0.87208123269E+02  0.16150991126E+03  0.41800000000E+01 0. -1.
         -5    1    3    3    0  502 -0.25659564343E+02  0.12785787070E+02  0.36430091458E+02  0.46545822121E+02  0.41800000000E+01 0. -1.
        -11    1    1    2    0    0 -0.27363366960E+02 -0.47789644804E+02  0.14556012639E+03  0.15562889962E+03  0.00000000000E+00 0.  1.
         11    1    1    2    0    0 -0.82845246262E+02  0.33403671853E+02  0.20422020712E+03  0.22290139775E+03  0.00000000000E+00 0. -1.
</event>
<event>
 7    1  0.2601031E-009  0.1160192E+03  0.7561462E-02  0.1249812E+00
         -1   -1    0    0    0  501 -0.00000000000E+00  0.00000000000E+00  0.23496888597E+03  0.23496888597E+03  0.00000000000E+00 0.  1.
          1   -1    0    0  501    0  0.00000000000E+00 -0.00000000000E+00 -0.69125270178E+02  0.69125270178E+02  0.00000000000E+00 0. -1.
         25    2    1    2    0    0 -0.50249995168E+02  0.29343493892E+02  0.13072260912E+03  0.19006805667E+03  0.12510540748E+03 0.  0.
          5    1    3    3  502    0 -0.84057485903E+02 -0.21290811398E+01  0.11185890988E+03  0.14000029300E+03  0.41800000000E+01 0.  1.
         -5    1    3    3    0  502  0.33807490735E+02  0.31472575031E+02  0.18863699248E+02  0.50067763663E+02  0.41800000000E+01 0.  1.
        -11    1    1    2    0    0  0.41194655137E+00  0.26568719552E+02  0.28294729401E+02  0.38815696187E+02  0.00000000000E+00 0.  1.
         11    1    1    2    0    0  0.49838048617E+02 -0.55912213443E+02  0.68262772663E+01  0.75210403292E+02  0.00000000000E+00 0. -1.
</event>
<event>
 7    1  0.2601031E-009  0.1033285E+03  0.7561462E-02  0.1273448E+00
          2   -1    0    0  501    0  0.00000000000E+00  0.00000000000E+00  0.14687334790E+03  0.14687334790E+03  0.00000000000E+00 0. -1.
         -2   -1    0    0    0  501 -0.00000000000E+00 -0.00000000000E+00 -0.12197570175E+03  0.12197570175E+03  0.00000000000E+00 0.  1.
         25    2    1    2    0    0  0.27993447248E+02 -0.27207326965E+02  0.80140924496E+02  0.15360157736E+03  0.12508798927E+03 0.  0.
          5    1    3    3  502    0  0.35007317851E+01  0.36694415988E+02 -0.11783915667E+02  0.38923878997E+02  0.41800000000E+01 0.  1.
         -5    1    3    3    0  502  0.24492715463E+02 -0.63901742953E+02  0.91924840163E+02  0.11467769836E+03  0.41800000000E+01 0.  1.
        -11    1    1    2    0    0 -0.41064206201E+02 -0.24396074111E+02 -0.29229598904E+02  0.55998276001E+02  0.00000000000E+00 0.  1.
         11    1    1    2    0    0  0.13070758953E+02  0.51603401076E+02 -0.26013679443E+02  0.59249196285E+02  0.00000000000E+00 0. -1.
</event>
<event>
 7    1  0.2601031E-009  0.1114190E+03  0.7561462E-02  0.1257964E+00
          3   -1    0    0  501    0  0.00000000000E+00  0.00000000000E+00  0.87316675136E+03  0.87316675136E+03  0.00000000000E+00 0. -1.
         -3   -1    0    0    0  501 -0.00000000000E+00 -0.00000000000E+00 -0.14707312443E+02  0.14707312443E+02  0.00000000000E+00 0.  1.
         25    2    1    2    0    0  0.27792693527E+02 -0.13096399534E+02  0.56270811840E+03  0.57726308130E+03  0.12509312141E+03 0.  0.
          5    1    3    3  502    0  0.65147259429E+02 -0.44994614659E+02  0.36340173966E+03  0.37195023531E+03  0.41800000000E+01 0. -1.
         -5    1    3    3    0  502 -0.37354565902E+02  0.31898215125E+02  0.19930637874E+03  0.20531284599E+03  0.41800000000E+01 0. -1.
        -11    1    1    2    0    0 -0.26115154491E+01  0.49731316220E+02  0.13777547297E+03  0.14649950436E+03  0.00000000000E+00 0.  1.
         11    1    1    2    0    0 -0.25181178078E+02 -0.36634916686E+02  0.15797584754E+03  0.16411147814E+03  0.00000000000E+00 0. -1.
</event>
<event>
 7    1  0.2601031E-009  0.1036149E+03  0.7561462E-02  0.1272873E+00
         -2   -1    0    0    0  501 -0.00000000000E+00  0.00000000000E+00  0.70305916371E+02  0.70305916371E+02  0.00000000000E+00 0.  1.
          2   -1    0    0  501    0  0.00000000000E+00 -0.00000000000E+00 -0.21639285117E+03  0.21639285117E+03  0.00000000000E+00 0. -1.
         25    2    1    2    0    0 -0.28217793247E+01  0.58743956590E+02 -0.82097608895E+02  0.16076954793E+03  0.12509202724E+03 0.  0.
          5    1    3    3  502    0  0.77399282267E+01  0.97408511706E+02 -0.55014659070E+02  0.11221590687E+03  0.41800000000E+01 0.  1.
         -5    1    3    3    0  502 -0.10561707551E+02 -0.38664555117E+02 -0.27082949824E+02  0.48553641058E+02  0.41800000000E+01 0.  1.
        -11    1    1    2    0    0  0.14823506018E+02 -0.77266001132E+01  0.20532609017E+02  0.26476871284E+02  0.00000000000E+00 0.  1.
         11    1    1    2    0    0 -0.12001726693E+02 -0.51017356477E+02 -0.84521934921E+02  0.99452348329E+02  0.00000000000E+00 0. -1.
</event>
<event>
 7    1  0.2601031E-009  0.1046985E+03  0.7561462E-02  0.1270715E+00
          2   -1    0    0  501    0  0.00000000000E+00  0.00000000000E+00  0.43008901497E+03  0.43008901497E+03  0.00000000000E+00 0. -1.
         -2   -1    0    0    0  501 -0.00000000000E+00 -0.00000000000E+00 -0.47812061613E+02  0.47812061613E+02  0.00000000000E+00 0.  1.
         25    2    1    2    0    0 -0.50848132024E+02  0.45642856759E+02  0.98606852665E+02  0.17332863725E+03  0.12510276654E+03 0.  0.
          5    1    3    3  502    0 -0.79841596610E+02  0.29288171197E+02  0.19427576596E+02  0.87334876503E+02  0.41800000000E+01 0. -1.
         -5    1    3    3    0  502  0.28993464586E+02  0.16354685562E+02  0.79179276069E+02  0.85993760747E+02  0.41800000000E+01 0. -1.
        -11    1    1    2    0    0  0.13603276944E+02 -0.51260534733E+02  0.24467413613E+03  0.25035599545E+03  0.00000000000E+00 0. -1.
         11    1    1    2    0    0  0.37244855081E+02  0.56176779738E+01  0.38995964561E+02  0.54216443888E+02  0.00000000000E+00 0.  1.
</event>
<event>
 7    1  0.2601031E-009  0.8366538E+02  0.7561462E-02  0.1318960E+00
          2   -1    0    0  501    0  0.00000000000E+00  0.00000000000E+00  0.13012670822E+04  0.13012670822E+04  0.00000000000E+00 0. -1.
         -2   -1    0    0    0  501 -0.00000000000E+00 -0.00000000000E+00 -0.24535436910E+02  0.24535436910E+02  0.00000000000E+00 0.  1.
         25    2    1    2    0    0  0.42938767636E+02 -0.37325827519E+02  0.11547787417E+04  0.11629270937E+04  0.12509407634E+03 0.  0.
          5    1    3    3  502    0  0.32044214678E+02 -0.51666274732E+02  0.11317758331E+04  0.11334153009E+04  0.41800000000E+01 0.  1.
         -5    1    3    3    0  502  0.10894552957E+02  0.14340447213E+02  0.23002908605E+02  0.29511792807E+02  0.41800000000E+01 0.  1.
        -11    1    1    2    0    0  0.14878764592E+02 -0.55939911893E+01 -0.52209667719E+01  0.16731074898E+02  0.00000000000E+00 0.  1.
         11    1    1    2    0    0 -0.57817532227E+02  0.42919818709E+02  0.12717387042E+03  0.14614435051E+03  0.00000000000E+00 0. -1.
</event>
<event>
 7    1  0.2601031E-009  0.9139105E+02  0.7561462E-02  0.1299518E+00
         -3   -1    0    0    0  501 -0.00000000000E+00  0.00000000000E+00  0.21535493517E+03  0.21535493517E+03  0.00000000000E+00 0.  1.
          3   -1    0    0  501    0  0.00000000000E+00 -0.00000000000E+00 -0.55707756218E+02  0.55707756218E+02  0.00000000000E+00 0. -1.
         25    2    1    2    0    0  0.97577662708E-02 -0.13549157877E+02  0.99589955487E+02  0.16046276956E+03  0.12508621589E+03 0.  0.
          5    1    3    3  502    0 -0.56545512523E+02 -0.33307740196E+02  0.51296772120E+02  0.83400430295E+02  0.41800000000E+01 0. -1.
         -5    1    3    3    0  502  0.56555270289E+02  0.19758582319E+02  0.48293183367E+02  0.77062339261E+02  0.41800000000E+01 0. -1.
        -11    1    1    2    0    0  0.27653005554E+02  0.75274137711E+01 -0.13575739602E+02  0.31712006874E+02  0.00000000000E+00 0. -1.
         11    1    1    2    0    0 -0.27662763320E+02  0.60217441063E+01  0.73632963067E+02  0.78887914959E+02  0.00000000000E+00 0.  1.
</event>
<event>
 7    1  0.2601031E-009  0.2115217E+03  0.7561462E-02  0.1140367E+00
         -2   -1    0    0    0  501 -0.00000000000E+00  0.00000000000E+00  0.26828509573E+02  0.26828509573E+02  0.00000000000E+00 0.  1.
          2   -1    0    0  501    0  0.00000000000E+00 -0.00000000000E+00 -0.19630630457E+04  0.19630630457E+04  0.00000000000E+00 0. -1.
         25    2    1    2    0    0  0.12193162512E+03 -0.14278030109E+03 -0.13182045129E+04  0.13373728752E+04  0.12509809744E+03 0.  0.
          5    1    3    3  502    0 -0.94818791063E+00 -0.73241281256E+02 -0.66710988135E+03  0.67113206639E+03  0.41800000000E+01 0. -1.
         -5    1    3    3    0  502  0.12287981303E+03 -0.69539019838E+02 -0.65109463157E+03  0.66624080886E+03  0.41800000000E+01 0. -1.
        -11    1    1    2    0    0 -0.92642176093E+01  0.77821125361E+02 -0.20363673344E+03  0.21819686635E+03  0.00000000000E+00 0.  1.
         11    1    1    2    0    0 -0.11266740751E+03  0.64959175733E+02 -0.41439328978E+03  0.43432181369E+03  0.00000000000E+00 0. -1.
</event>
<event>
 7    1  0.3953998E-009  0.7541083E+02  0.7561462E-02  0.1342604E+00
         -1   -1    0    0    0  501 -0.00000000000E+00  0.00000000000E+00  0.21275631800E+03  0.21275631800E+03  0.00000000000E+00 0.  1.
          1   -1    0    0  501    0  0.00000000000E+00 -0.00000000000E+00 -0.89383462987E+02  0.89383462987E+02  0.00000000000E+00 0. -1.
         25    2    1    2    0    0 -0.69238091368E+02  0.54122309397E+01  0.14414289439E+02  0.14380771121E+03  0.12509868314E+03 0.  0.
          5    1    3    3  502    0  0.48526821921E+01 -0.73897962017E+00 -0.46905156864E+02  0.47346179949E+02  0.41800000000E+01 0. -1.
         -5    1    3    3    0  502 -0.74090773560E+02  0.61512105598E+01  0.61319446302E+02  0.96461531259E+02  0.41800000000E+01 0. -1.
        -11    1    1    2    0    0  0.36360812043E+02  0.11786540532E+01  0.11810048131E+03  0.12357678408E+03  0.00000000000E+00 0.  1.
         11    1    1    2    0    0  0.32877279325E+02 -0.65908849929E+01 -0.91419157355E+01  0.34755285701E+02  0.00000000000E+00 0. -1.
</event>
<event>
 7    1  0.2601031E-009  0.1076629E+03  0.7561462E-02  0.1264960E+00
         -2   -1    0    0    0  501 -0.00000000000E+00  0.00000000000E+00  0.41445173017E+02  0.41445173017E+02  0.00000000000E+00 0.  1.
          2   -1    0    0  501    0  0.00000000000E+00 -0.00000000000E+00 -0.67735622529E+03  0.67735622529E+03  0.00000000000E+00 0. -1.
         25    2    1    2    0    0 -0.87687515416E+02  0.42373389018E+02 -0.51789896779E+03  0.54161994777E+03  0.12509285558E+03 0.  0.
          5    1    3    3  502    0 -0.51180201828E+02  0.28823487769E+02 -0.67727029822E+02  0.89747587571E+02  0.41800000000E+01 0. -1.
         -5    1    3    3    0  502 -0.36507313587E+02  0.13549901249E+02 -0.45017193797E+03  0.45187236019E+03  0.41800000000E+01 0. -1.
        -11    1    1    2    0    0  0.87044931666E+02 -0.13136850436E+02 -0.45713123664E+02  0.99192170272E+02  0.00000000000E+00 0.  1.
         11    1    1    2    0    0  0.64258374907E+00 -0.29236538582E+02 -0.72298960816E+02  0.77989280271E+02  0.00000000000E+00 0. -1.
</event>
<event>
 7    1  0.2601031E-009  0.1318835E+03  0.7561462E-02  0.1224687E+00
          1   -1    0    0  501    0  0.00000000000E+00  0.00000000000E+00  0.13391780403E+03  0.13391780403E+03  0.00000000000E+00 0.  1.
         -1   -1    0    0    0  501 -0.00000000000E+00 -0.00000000000E+00 -0.13635851092E+03  0.13635851092E+03  0.00000000000E+00 0. -1.
         25    2    1    2    0    0 -0.19731747160E+02 -0.78046019336E+02  0.12724813877E+02  0.14929433698E+03  0.12508539158E+03 0.  0.
          5    1    3    3  502    0 -0.64961719716E+02 -0.12908014172E+02 -0.89844749215E+01  0.66968911055E+02  0.41800000000E+01 0. -1.
         -5    1    3    3    0  502  0.45229972556E+02 -0.65138005164E+02  0.21709288798E+02  0.82325425928E+02  0.41800000000E+01 0. -1.
        -11    1    1    2    0    0 -0.34339760139E+02  0.27866404833E+02  0.50044179936E+01  0.44506177595E+02  0.00000000000E+00 0. -1.
         11    1    1    2    0    0  0.54071507299E+02  0.50179614503E+02 -0.20169938756E+02  0.76475800373E+02  0.00000000000E+00 0.  1.
</event>
<event>
 7    1  0.2601031E-009  0.1957070E+03  0.7561462E-02  0.1153412E+00
          1   -1    0    0  501    0  0.00000000000E+00  0.00000000000E+00  0.12945883879E+04  0.12945883879E+04  0.00000000000E+00 0. -1.
         -1   -1    0    0    0  501 -0.00000000000E+00 -0.00000000000E+00 -0.30551935830E+02  0.30551935830E+02  0.00000000000E+00 0.  1.
         25    2    1    2    0    0  0.11132958634E+03  0.12336223504E+03  0.69324027129E+03  0.72376942386E+03  0.12509031676E+03 0.  0.
          5    1    3    3  502    0  0.23303946431E+02 -0.23934119869E+02  0.16296000999E+03  0.16640118169E+03  0.41800000000E+01 0. -1.
         -5    1    3    3    0  502  0.88025639909E+02  0.14729635490E+03  0.53028026130E+03  0.55736824217E+03  0.41800000000E+01 0. -1.
        -11    1    1    2    0    0 -0.46095865207E+02 -0.11034038548E+03  0.31112114488E+03  0.33331096029E+03  0.00000000000E+00 0. -1.
         11    1    1    2    0    0 -0.65233721133E+02 -0.13021849554E+02  0.25967503586E+03  0.26805993955E+03  0.00000000000E+00 0.  1.
</event>
<event>
 7    1  0.2601031E-009  0.1076680E+03  0.7561462E-02  0.1264950E+00
          4   -1    0    0  501    0  0.00000000000E+00  0.00000000000E+00  0.87351346631E+02  0.87351346631E+02  0.00000000000E+00 0. -1.
         -4   -1    0    0    0  501 -0.00000000000E+00 -0.00000000000E+00 -0.18422560016E+03  0.18422560016E+03  0.00000000000E+00 0.  1.
         25    2    1    2    0    0  0.59799598963E+02  0.76020477744E+01 -0.28050034171E+02  0.14166114710E+03  0.12508914027E+03 0.  0.
          5    1    3    3  502    0  0.34409501622E+02  0.65978477519E+02 -0.21273581138E+02  0.77506199442E+02  0.41800000000E+01 0.  1.
         -5    1    3    3    0  502  0.25390097341E+02 -0.58376429744E+02 -0.67764530334E+01  0.64154947653E+02  0.41800000000E+01 0.  1.
        -11    1    1    2    0    0 -0.20756760504E+02  0.20291321332E+02 -0.76041004120E+02  0.81392967360E+02  0.00000000000E+00 0.  1.
         11    1    1    2    0    0 -0.39042838459E+02 -0.27893369106E+02  0.72167847667E+01  0.48522832331E+02  0.00000000000E+00 0. -1.
</event>
<event>
 7    1  0.2601031E-009  0.2166985E+03  0.7561462E-02  0.1136369E+00
          3   -1    0    0  501    0  0.00000000000E+00  0.00000000000E+00  0.23994722815E+04  0.23994722815E+04  0.00000000000E+00 0. -1.
         -3   -1    0    0    0  501 -0.00000000000E+00 -0.00000000000E+00 -0.50807772057E+02  0.50807772057E+02  0.00000000000E+00 0.  1.
         25    2    1    2    0    0 -0.19680669973E+03  0.30645079040E+02  0.21215773979E+04  0.21345748936E+04  0.12508926047E+03 0.  0.
          5    1    3    3  502    0 -0.21287955798E+03  0.20690386075E+02  0.18547811574E+04  0.18670769702E+04  0.41800000000E+01 0.  1.
         -5    1    3    3    0  502  0.16072858250E+02  0.99546929643E+01  0.26679624049E+03  0.26749792340E+03  0.41800000000E+01 0.  1.
        -11    1    1    2    0    0  0.86091229556E+02 -0.37358467100E+01  0.16451123614E+03  0.18571376678E+03  0.00000000000E+00 0. -1.
         11    1    1    2    0    0  0.11071547017E+03 -0.26909232330E+02  0.62575875389E+02  0.12999139318E+03  0.00000000000E+00 0.  1.
</event>
<event>
 7    1  0.2601031E-009  0.1215167E+03  0.7561462E-02  0.1240616E+00
         -1   -1    0    0    0  501 -0.00000000000E+00  0.00000000000E+00  0.26427879705E+03  0.26427879705E+03  0.00000000000E+00 0.  1.
          1   -1    0    0  501    0  0.00000000000E+00 -0.00000000000E+00 -0.76619339921E+02  0.76619339921E+02  0.00000000000E+00 0. -1.
         25    2    1    2    0    0 -0.62410405134E+02  0.58694076690E+02  0.14795277587E+03  0.21184207907E+03  0.12508792615E+03 0.  0.
          5    1    3    3  502    0 -0.26167866573E+02 -0.23274043380E+02  0.10802773552E+03  0.11363935224E+03  0.41800000000E+01 0.  1.
         -5    1    3    3    0  502 -0.36242538561E+02  0.81968120070E+02  0.39925040350E+02  0.98202726826E+02  0.41800000000E+01 0.  1.
        -11    1    1    2    0    0  0.20854769500E+02  0.20099232976E+02  0.26011486659E+02  0.38929397829E+02  0.00000000000E+00 0.  1.
         11    1    1    2    0    0  0.41555635633E+02 -0.78793309665E+02  0.13695194599E+02  0.90126660074E+02  0.00000000000E+00 0. -1.
</event>
<event>
 7    1  0.2601031E-009  0.1073179E+03  0.7561462E-02  0.1265619E+00
         -2   -1    0    0    0  501 -0.00000000000E+00  0.00000000000E+00  0.60194812390E+03  0.60194812390E+03  0.00000000000E+00 0.  1.
          2   -1    0    0  501    0  0.00000000000E+00 -0.00000000000E+00 -0.48995152637E+02  0.48995152637E+02  0.00000000000E+00 0. -1.
         25    2    1    2    0    0 -0.33439268672E+02  0.38043594630E+02  0.52584588910E+03  0.54288743848E+03  0.12508945596E+03 0.  0.
          5    1    3    3  502    0 -0.34406806185E+02 -0.37871265048E+02  0.30569319575E+03  0.30997397206E+03  0.41800000000E+01 0.  1.
         -5    1    3    3    0  502  0.96753751281E+00  0.75914859677E+02  0.22015269335E+03  0.23291346642E+03  0.41800000000E+01 0.  1.
        -11    1    1    2    0    0 -0.19516425523E+02  0.36602677306E+01 -0.18121215731E+02  0.26882464259E+02  0.00000000000E+00 0. -1.
         11    1    1    2    0    0  0.52955694196E+02 -0.41703862360E+02  0.45228297893E+02  0.81173373798E+02  0.00000000000E+00 0.  1.
</event>
<event>
 7    1  0.2601031E-009  0.9902800E+02  0.7561462E-02  0.1282353E+00
          1   -1    0    0  501    0  0.00000000000E+00  0.00000000000E+00  0.10147821213E+03  0.10147821213E+03  0.00000000000E+00 0. -1.
         -1   -1    0    0    0  501 -0.00000000000E+00 -0.00000000000E+00 -0.22573484464E+03  0.22573484464E+03  0.00000000000E+00 0.  1.
         25    2    1    2    0    0  0.53971971034E+02 -0.30064377895E+02  0.23561393496E+02  0.14148956596E+03  0.12508923829E+03 0.  0.
          5    1    3    3  502    0 -0.16653154641E+01 -0.47312253659E+02  0.56984799435E+02  0.74202172398E+02  0.41800000000E+01 0. -1.
         -5    1    3    3    0  502  0.55637286499E+02  0.17247875764E+02 -0.33423405939E+02  0.67287393558E+02  0.41800000000E+01 0. -1.
        -11    1    1    2    0    0 -0.43358111137E+02 -0.14964725308E+02 -0.12693023599E+03  0.13496352697E+03  0.00000000000E+00 0.  1.
         11    1    1    2    0    0 -0.10613859897E+02  0.45029103204E+02 -0.20887790012E+02  0.50759963838E+02  0.00000000000E+00 0. -1.
</event>
<event>
 7    1  0.2601031E-009  0.1187270E+03  0.7561462E-02  0.1245212E+00
         -1   -1    0    0    0  501 -0.00000000000E+00  0.00000000000E+00  0.16182134835E+03  0.16182134835E+03  0.00000000000E+00 0.  1.
          1   -1    0    0  501    0  0.00000000000E+00 -0.00000000000E+00 -0.11053901247E+03  0.11053901247E+03  0.00000000000E+00 0. -1.
         25    2    1    2    0    0  0.48827789544E+02  0.60517378773E+02  0.17976081868E+02  0.14838184147E+03  0.12509006832E+03 0.  0.
          5    1    3    3  502    0  0.15079166861E+01 -0.36986437398E+02 -0.47865581008E+01  0.37558672801E+02  0.41800000000E+01 0.  1.
         -5    1    3    3    0  502  0.47319872858E+02  0.97503816171E+02  0.22762639969E+02  0.11082316867E+03  0.41800000000E+01 0.  1.
        -11    1    1    2    0    0 -0.24555961939E+02 -0.62733752498E+02  0.58282624665E+02  0.89080768447E+02  0.00000000000E+00 0.  1.
         11    1    1    2    0    0 -0.24271827605E+02  0.22163737245E+01 -0.24976370647E+02  0.34897750908E+02  0.00000000000E+00 0. -1.
</event>
<event>
 7    1  0.2601031E-009  0.1169126E+03  0.7561462E-02  0.1248279E+00
          2   -1    0    0  501    0  0.00000000000E+00  0.00000000000E+00  0.18400429985E+02  0.18400429985E+02  0.00000000000E+00 0. -1.
         -2   -1    0    0    0  501 -0.00000000000E+00 -0.00000000000E+00 -0.89401096563E+03  0.89401096563E+03  0.00000000000E+00 0.  1.
         25    2    1    2    0    0 -0.62031982937E+02  0.17836598647E+02 -0.56271649032E+03  0.58005375028E+03  0.12508554507E+03 0.  0.
          5    1    3    3  502    0 -0.29807989646E+02  0.69679183684E+02 -0.37544895509E+03  0.38304450807E+03  0.41800000000E+01 0.  1.
         -5    1    3    3    0  502 -0.32223993291E+02 -0.51842585037E+02 -0.18726753523E+03  0.19700924222E+03  0.41800000000E+01 0.  1.
        -11    1    1    2    0    0  0.45865202695E+02  0.24087283825E+02 -0.24846162141E+03  0.25380502630E+03  0.00000000000E+00 0.  1.
         11    1    1    2    0    0  0.16166780242E+02 -0.41923882473E+02 -0.64432423916E+02  0.78552619032E+02  0.00000000000E+00 0. -1.
</event>
<event>
 7    1  0.2601031E-009  0.1226248E+03  0.7561462E-02  0.1238829E+00
         -2   -1    0    0    0  501 -0.00000000000E+00  0.00000000000E+00  0.23848821979E+02  0.23848821979E+02  0.00000000000E+00 0.  1.
          2   -1    0    0  501    0  0.00000000000E+00 -0.00000000000E+00 -0.67585480183E+03  0.67585480183E+03  0.00000000000E+00 0. -1.
         25    2    1    2    0    0  0.58135610831E+02  0.51245461807E+01 -0.29190346293E+03  0.32288986842E+03  0.12507687733E+03 0.  0.
          5    1    3    3  502    0  0.92363031470E+02  0.24076289559E+02 -0.17277458481E+03  0.19743132188E+03  0.41800000000E+01 0. -1.
         -5    1    3    3    0  502 -0.34227420640E+02 -0.18951743378E+02 -0.11912887811E+03  0.12545854654E+03  0.41800000000E+01 0. -1.
        -11    1    1    2    0    0  0.12708640356E+02 -0.32124621979E+02 -0.13177399759E+03  0.13622733690E+03  0.00000000000E+00 0. -1.
         11    1    1    2    0    0 -0.70844251187E+02  0.27000075798E+02 -0.22832851933E+03  0.24058641848E+03  0.00000000000E+00 0.  1.
</event>
<event>
 7    1  0.2601031E-009  0.1334210E+03  0.7561462E-02  0.1222466E+00
         -2   -1    0    0    0  501 -0.00000000000E+00  0.00000000000E+00  0.44206274597E+02  0.44206274597E+02  0.00000000000E+00 0.  1.
          2   -1    0    0  501    0  0.00000000000E+00 -0.00000000000E+00 -0.48922651908E+03  0.48922651908E+03  0.00000000000E+00 0. -1.
         25    2    1    2    0    0 -0.22373349751E+02  0.95662307522E+02 -0.22112666898E+03  0.27239216410E+03  0.12509453813E+03 0.  0.
          5    1    3    3  502    0 -0.55952063194E+02  0.27918566338E+02 -0.35760332385E+02  0.72155065618E+02  0.41800000000E+01 0.  1.
         -5    1    3    3    0  502  0.33578713443E+02  0.67743741184E+02 -0.18536633660E+03  0.20023709848E+03  0.41800000000E+01 0.  1.
        -11    1    1    2    0    0  0.37901798885E+02 -0.71340303001E+01 -0.36009457133E+02  0.52764777552E+02  0.00000000000E+00 0.  1.
         11    1    1    2    0    0 -0.15528449134E+02 -0.88528277222E+02 -0.18788411837E+03  0.20827585202E+03  0.00000000000E+00 0. -1.
</event>
<event>
 7    1  0.2601031E-009  0.9954242E+02  0.7561462E-02  0.1281261E+00
         -2   -1    0    0    0  501 -0.00000000000E+00  0.00000000000E+00  0.22382304298E+02  0.22382304298E+02  0.00000000000E+00 0.  1.
          2   -1    0    0  501    0  0.00000000000E+00 -0.00000000000E+00 -0.16974505605E+04  0.16974505605E+04  0.00000000000E+00 0. -1.
         25    2    1    2    0    0  0.20291511286E+02  0.28577663076E+02 -0.15449394131E+04  0.15503911927E+04  0.12508649702E+03 0.  0.
          5    1    3    3  502    0  0.60032188764E+02  0.26612514586E+02 -0.45660676500E+03  0.46132342219E+03  0.41800000000E+01 0. -1.
         -5    1    3    3    0  502 -0.39740677478E+02  0.19651484902E+01 -0.10883326481E+04  0.10890677705E+04  0.41800000000E+01 0. -1.
        -11    1    1    2    0    0 -0.10620419592E+02  0.31078086407E+02 -0.89682602764E+01  0.34045123872E+02  0.00000000000E+00 0.  1.
         11    1    1    2    0    0 -0.96710916940E+01 -0.59655749484E+02 -0.12116058274E+03  0.13539654822E+03  0.00000000000E+00 0. -1.
</event>
<event>
 7    1  0.2601031E-009  0.8500852E+02  0.7561462E-02  0.1315410E+00
          1   -1    0    0  501    0  0.00000000000E+00  0.00000000000E+00  0.55832310004E+02  0.55832310004E+02  0.00000000000E+00 0. -1.
         -1   -1    0    0    0  501 -0.00000000000E+00 -0.00000000000E+00 -0.24028179231E+03  0.24028179231E+03  0.00000000000E+00 0.  1.
         25    2    1    2    0    0  0.17326366247E+02  0.33509450342E+02 -0.86663562360E+02  0.15678262932E+03  0.12508850302E+03 0.  0.
          5    1    3    3  502    0  0.19911177001E+02  0.62105747318E+02 -0.10411246815E+03  0.12292459984E+03  0.41800000000E+01 0.  1.
         -5    1    3    3    0  502 -0.25848107542E+01 -0.28596296976E+02  0.17448905794E+02  0.33858029487E+02  0.41800000000E+01 0.  1.
        -11    1    1    2    0    0  0.11581465050E+02 -0.43536612492E+02 -0.97006335398E+01  0.46083286027E+02  0.00000000000E+00 0. -1.
         11    1    1    2    0    0 -0.28907831297E+02  0.10027162149E+02 -0.88085286404E+02  0.93248186963E+02  0.00000000000E+00 0.  1.
</event>
<event>
 7    1  0.2601031E-009  0.1122912E+03  0.7561462E-02  0.1256385E+00
          1   -1    0    0  501    0  0.00000000000E+00  0.00000000000E+00  0.87163725387E+03  0.87163725387E+03  0.00000000000E+00 0. -1.
         -1   -1    0    0    0  501 -0.00000000000E+00 -0.00000000000E+00 -0.32209953067E+02  0.32209953067E+02  0.00000000000E+00 0.  1.
         25    2    1    2    0    0 -0.66717722675E+02  0.27341196718E+02  0.72773607749E+03  0.74191986625E+03  0.12508594604E+03 0.  0.
          5    1    3    3  502    0  0.33532072690E+02 -0.77944978972E+01  0.25695341826E+03  0.25928302230E+03  0.41800000000E+01 0.  1.
         -5    1    3    3    0  502 -0.10024979537E+03  0.35135694615E+02  0.47078265922E+03  0.48263684394E+03  0.41800000000E+01 0.  1.
        -11    1    1    2    0    0  0.44794285439E+02 -0.38433766778E+02  0.12180915292E+03  0.13535565068E+03  0.00000000000E+00 0. -1.
         11    1    1    2    0    0  0.21923437236E+02  0.11092570060E+02 -0.10117929599E+02  0.26571690013E+02  0.00000000000E+00 0.  1.
</event>
<event>
 7    1  0.2601031E-009  0.1489864E+03  0.7561462E-02  0.1201724E+00
          2   -1    0    0  501    0  0.00000000000E+00  0.00000000000E+00  0.27343655495E+03  0.27343655495E+03  0.00000000000E+00 0. -1.
         -2   -1    0    0    0  501 -0.00000000000E+00 -0.00000000000E+00 -0.98584343603E+02  0.98584343603E+02  0.00000000000E+00 0.  1.
         25    2    1    2    0    0 -0.46214836374E+02 -0.10895104280E+03  0.13990251800E+03  0.22187093160E+03  0.12509138627E+03 0.  0.
          5    1    3    3  502    0 -0.57837651243E+02  0.34003897529E+01  0.35980656501E+02  0.68328885502E+02  0.41800000000E+01 0. -1.
         -5    1    3    3    0  502  0.11622814868E+02 -0.11235143256E+03  0.10392186150E+03  0.15354204610E+03  0.41800000000E+01 0. -1.
        -11    1    1    2    0    0  0.47336346322E+02  0.53664675382E+02 -0.17787620540E+02  0.73736195396E+02  0.00000000000E+00 0.  1.
         11    1    1    2    0    0 -0.11215099478E+01  0.55286367421E+02  0.52737313886E+02  0.76413771554E+02  0.00000000000E+00 0. -1.
</event>
<event>
 7    1  0.2601031E-009  0.1817160E+03  0.7561462E-02  0.1166153E+00
          1   -1    0    0  501    0  0.00000000000E+00  0.00000000000E+00  0.30914140531E+03  0.30914140531E+03  0.00000000000E+00 0. -1.
         -1   -1    0    0    0  501 -0.00000000000E+00 -0.00000000000E+00 -0.12249067563E+03  0.12249067563E+03  0.00000000000E+00 0.  1.
         25    2    1    2    0    0 -0.11558813485E+03 -0.10666114645E+03  0.13801959427E+03  0.24379320560E+03  0.12509397113E+03 0.  0.
          5    1    3    3  502    0 -0.91295575815E+02 -0.17962373053E+02  0.11667348529E+03  0.14929066809E+03  0.41800000000E+01 0.  1.
         -5    1    3    3    0  502 -0.24292559034E+02 -0.88698773398E+02  0.21346108984E+02  0.94502537508E+02  0.41800000000E+01 0.  1.
        -11    1    1    2    0    0  0.12860591104E+03  0.89461080718E+02  0.30373509035E+02  0.15957855548E+03  0.00000000000E+00 0.  1.
         11    1    1    2    0    0 -0.13017776191E+02  0.17200065732E+02  0.18257626370E+02  0.28260319864E+02  0.00000000000E+00 0. -1.
</event>
<event>
 7    1  0.2601031E-009  0.6017197E+02  0.7561462E-02  0.1397111E+00
          2   -1    0    0  501    0  0.00000000000E+00  0.00000000000E+00  0.49539047798E+03  0.49539047798E+03  0.00000000000E+00 0. -1.
         -2   -1    0    0    0  501 -0.00000000000E+00 -0.00000000000E+00 -0.30096144881E+02  0.30096144881E+02  0.00000000000E+00 0.  1.
         25    2    1    2    0    0 -0.35115119561E+02 -0.22091338413E+02  0.17454428712E+03  0.21870929114E+03  0.12508775724E+03 0.  0.
          5    1    3    3  502    0 -0.68562411123E+01 -0.72973771828E+01  0.18466616950E+03  0.18498466508E+03  0.41800000000E+01 0. -1.
         -5    1    3    3    0  502 -0.28258878448E+02 -0.14793961230E+02 -0.10121882382E+02  0.33724626061E+02  0.41800000000E+01 0. -1.
        -11    1    1    2    0    0 -0.11832235015E+02  0.27624017992E+02  0.32612646823E+02  0.44347185799E+02  0.00000000000E+00 0.  1.
         11    1    1    2    0    0  0.46947354576E+02 -0.55326795793E+01  0.25813739916E+03  0.26243014592E+03  0.00000000000E+00 0. -1.
</event>
<event>
 7    1  0.2601031E-009  0.1470560E+03  0.7561462E-02  0.1204138E+00
         -2   -1    0    0    0  501 -0.00000000000E+00  0.00000000000E+00  0.26998615190E+03  0.26998615190E+03  0.00000000000E+00 0. -1.
          2   -1    0    0  501    0  0.00000000000E+00 -0.00000000000E+00 -0.21450443896E+03  0.21450443896E+03  0.00000000000E+00 0.  1.
         25    2    1    2    0    0 -0.71469580348E+02 -0.12051294677E+03  0.18780595859E+03  0.26561333090E+03  0.12509233477E+03 0.  0.
          5    1    3    3  502    0 -0.21990042609E+02 -0.38553241979E+02 -0.10115517168E+02  0.45713351754E+02  0.41800000000E+01 0. -1.
         -5    1    3    3    0  502 -0.49479537739E+02 -0.81959704790E+02  0.19792147576E+03  0.21989997915E+03  0.41800000000E+01 0. -1.
        -11    1    1    2    0    0  0.61390382096E+02  0.41618993884E+02 -0.12733266152E+02  0.75253277222E+02  0.00000000000E+00 0. -1.
         11    1    1    2    0    0  0.10079198252E+02  0.78893952884E+02 -0.11959097949E+03  0.14362398273E+03  0.00000000000E+00 0.  1.
</event>
<event>
 7    1  0.3525423E-009  0.9756607E+02  0.7561462E-02  0.1285499E+00
         -1   -1    0    0    0  501 -0.00000000000E+00  0.00000000000E+00  0.42024243179E+02  0.42024243179E+02  0.00000000000E+00 0. -1.
          1   -1    0    0  501    0  0.00000000000E+00 -0.00000000000E+00 -0.57850968074E+03  0.57850968074E+03  0.00000000000E+00 0.  1.
         25    2    1    2    0    0  0.31717751929E+02  0.88262973367E+02 -0.40952300356E+03  0.43835201838E+03  0.12508810221E+03 0.  0.
          5    1    3    3  502    0  0.15246326749E+02  0.24181845190E+02 -0.61126986120E+01  0.29530485950E+02  0.41800000000E+01 0.  1.
         -5    1    3    3    0  502  0.16471425180E+02  0.64081128177E+02 -0.40341030495E+03  0.40882153243E+03  0.41800000000E+01 0.  1.
        -11    1    1    2    0    0 -0.13225251351E+02 -0.77350492704E+02 -0.31873923929E+02  0.84699191386E+02  0.00000000000E+00 0. -1.
         11    1    1    2    0    0 -0.18492500578E+02 -0.10912480663E+02 -0.95088510068E+02  0.97482714154E+02  0.00000000000E+00 0.  1.
</event>
<event>
 7    1  0.2601031E-009  0.1294369E+03  0.7561462E-02  0.1228294E+00
          2   -1    0    0  501    0  0.00000000000E+00  0.00000000000E+00  0.57298273635E+03  0.57298273635E+03  0.00000000000E+00 0. -1.
         -2   -1    0    0    0  501 -0.00000000000E+00 -0.00000000000E+00 -0.44871743762E+02  0.44871743762E+02  0.00000000000E+00 0.  1.
         25    2    1    2    0    0 -0.25554565275E+02  0.84130500666E+02  0.13186349076E+03  0.20190695180E+03  0.12508980790E+03 0.  0.
          5    1    3    3  502    0  0.31985683181E+02  0.83672245273E+02  0.10553656816E+03  0.13849031799E+03  0.41800000000E+01 0.  1.
         -5    1    3    3    0  502 -0.57540248456E+02  0.45825539212E+00  0.26326922605E+02  0.63416633813E+02  0.41800000000E+01 0.  1.
        -11    1    1    2    0    0  0.46434939690E+02 -0.35083090127E+02  0.30299824209E+03  0.30853680744E+03  0.00000000000E+00 0. -1.
         11    1    1    2    0    0 -0.20880374415E+02 -0.49047410539E+02  0.93249259732E+02  0.10741072087E+03  0.00000000000E+00 0.  1.
</event>
<event>
 7    1  0.2601031E-009  0.1628405E+03  0.7561462E-02  0.1185527E+00
          3   -1    0    0  501    0  0.00000000000E+00  0.00000000000E+00  0.22313935434E+03  0.22313935434E+03  0.00000000000E+00 0. -1.
         -3   -1    0    0    0  501 -0.00000000000E+00 -0.00000000000E+00 -0.18775879797E+03  0.18775879797E+03  0.00000000000E+00 0.  1.
         25    2    1    2    0    0  0.14786086887E+03  0.58611972682E+02 -0.52901126296E+02  0.20915401301E+03  0.12509465260E+03 0.  0.
          5    1    3    3  502    0  0.50728367909E+02  0.19351823397E+02 -0.83716938530E+02  0.99869207348E+02  0.41800000000E+01 0.  1.
         -5    1    3    3    0  502  0.97132500957E+02  0.39260149285E+02  0.30815812235E+02  0.10928480566E+03  0.41800000000E+01 0.  1.
        -11    1    1    2    0    0 -0.76992728215E+02 -0.56459093879E+02  0.97968706565E+01  0.95976497927E+02  0.00000000000E+00 0.  1.
         11    1    1    2    0    0 -0.70868140650E+02 -0.21528788031E+01  0.78484812014E+02  0.10576764138E+03  0.00000000000E+00 0. -1.
</event>
<event>
 7    1  0.2601031E-009  0.1576278E+03  0.7561462E-02  0.1191401E+00
          1   -1    0    0  501    0  0.00000000000E+00  0.00000000000E+00  0.17829449218E+03  0.17829449218E+03  0.00000000000E+00 0. -1.
         -1   -1    0    0    0  501 -0.00000000000E+00 -0.00000000000E+00 -0.15497920537E+03  0.15497920537E+03  0.00000000000E+00 0.  1.
         25    2    1    2    0    0  0.26735928471E+02  0.11936289347E+03 -0.18777181337E+02  0.17596344368E+03  0.12509292852E+03 0.  0.
          5    1    3    3  502    0  0.61037180505E+02  0.11872294596E+03 -0.34576243029E+02  0.13796254667E+03  0.41800000000E+01 0. -1.
         -5    1    3    3    0  502 -0.34301252034E+02  0.63994751315E+00  0.15799061691E+02  0.38000897019E+02  0.41800000000E+01 0. -1.
        -11    1    1    2    0    0  0.27018358475E+02 -0.66338032519E+02  0.39413656432E+02  0.81756727959E+02  0.00000000000E+00 0. -1.
         11    1    1    2    0    0 -0.53754286947E+02 -0.53024860951E+02  0.26788117132E+01  0.75553525902E+02  0.00000000000E+00 0.  1.
</event>
<event>
 7    1  0.2601031E-009  0.1265787E+03  0.7561462E-02  0.1232622E+00
         -2   -1    0    0    0  501 -0.00000000000E+00  0.00000000000E+00  0.12290188720E+03  0.12290188720E+03  0.00000000000E+00 0.  1.
          2   -1    0    0  501    0  0.00000000000E+00 -0.00000000000E+00 -0.15376069702E+03  0.15376069702E+03  0.00000000000E+00 0. -1.
         25    2    1    2    0    0  0.78143568564E+02  0.28674827076E+02 -0.14900102475E+01  0.15025998155E+03  0.12508868417E+03 0.  0.
          5    1    3    3  502    0 -0.33669990501E+02  0.12412051537E+02  0.72774410972E+01  0.36853233679E+02  0.41800000000E+01 0. -1.
         -5    1    3    3    0  502  0.11181355906E+03  0.16262775540E+02 -0.87674513446E+01  0.11340674787E+03  0.41800000000E+01 0. -1.
        -11    1    1    2    0    0 -0.16038661138E+02 -0.37920802975E+02  0.20709975622E+02  0.46088274426E+02  0.00000000000E+00 0.  1.
         11    1    1    2    0    0 -0.62104907426E+02  0.92459758985E+01 -0.50078775190E+02  0.80314328244E+02  0.00000000000E+00 0. -1.
</event>
<event>
 7    1  0.2601031E-009  0.8934581E+02  0.7561462E-02  0.1304444E+00
          1   -1    0    0  501    0  0.00000000000E+00  0.00000000000E+00  0.38686713557E+02  0.38686713557E+02  0.00000000000E+00 0.  1.
         -1   -1    0    0    0  501 -0.00000000000E+00 -0.00000000000E+00 -0.36761496931E+03  0.36761496931E+03  0.00000000000E+00 0. -1.
         25    2    1    2    0    0 -0.17828930537E+02  0.45120215095E+02 -0.13727245693E+03  0.19195276709E+03  0.12509369604E+03 0.  0.
          5    1    3    3  502    0  0.33090933786E+02  0.50345689290E+02 -0.19487711319E+02  0.63458187978E+02  0.41800000000E+01 0. -1.
         -5    1    3    3    0  502 -0.50919864323E+02 -0.52254741958E+01 -0.11778474561E+03  0.12849457911E+03  0.41800000000E+01 0. -1.
        -11    1    1    2    0    0  0.31504440698E+02 -0.17298806494E+02 -0.17597510823E+03  0.17960795419E+03  0.00000000000E+00 0. -1.
         11    1    1    2    0    0 -0.13675510161E+02 -0.27821408600E+02 -0.15680690593E+02  0.34740961589E+02  0.00000000000E+00 0.  1.
</event>
<event>
 7    1  0.2601031E-009  0.3481769E+03  0.7561462E-02  0.1063366E+00
         -2   -1    0    0    0  501 -0.00000000000E+00  0.00000000000E+00  0.13488196396E+03  0.13488196396E+03  0.00000000000E+00 0.  1.
          2   -1    0    0  501    0  0.00000000000E+00 -0.00000000000E+00 -0.94651761150E+03  0.94651761150E+03  0.00000000000E+00 0. -1.
         25    2    1    2    0    0 -0.16554748186E+02 -0.33038276586E+03 -0.29175922342E+03  0.45847298160E+03  0.12508876346E+03 0.  0.
          5    1    3    3  502    0  0.51738271049E+02 -0.92395391575E+02 -0.91096910988E+02  0.13974933512E+03  0.41800000000E+01 0.  1.
         -5    1    3    3    0  502 -0.68293019235E+02 -0.23798737428E+03 -0.20066231243E+03  0.31872364648E+03  0.41800000000E+01 0.  1.
        -11    1    1    2    0    0  0.49877305093E+02  0.12336881039E+03 -0.21703153782E+03  0.25457866632E+03  0.00000000000E+00 0.  1.
         11    1    1    2    0    0 -0.33322556907E+02  0.20701395547E+03 -0.30284488630E+03  0.36834792753E+03  0.00000000000E+00 0. -1.
</event>
<event>
 7    1  0.2601031E-009  0.1164933E+03  0.7561462E-02  0.1248997E+00
          1   -1    0    0  501    0  0.00000000000E+00  0.00000000000E+00  0.27059804738E+03  0.27059804738E+03  0.00000000000E+00 0. -1.
         -1   -1    0    0    0  501 -0.00000000000E+00 -0.00000000000E+00 -0.15684124393E+03  0.15684124393E+03  0.00000000000E+00 0.  1.
         25    2    1    2    0    0  0.21973930176E+02  0.10640738719E+02 -0.11317090792E+03  0.17044299432E+03  0.12508829276E+03 0.  0.
          5    1    3    3  502    0 -0.45360336849E+02  0.13845961982E+01 -0.97309831686E+01  0.46600876592E+02  0.41800000000E+01 0. -1.
         -5    1    3    3    0  502  0.67334267026E+02  0.92561425207E+01 -0.10343992475E+03  0.12384211773E+03  0.41800000000E+01 0. -1.
        -11    1    1    2    0    0 -0.19524704585E+02  0.52559831425E+02  0.87932058968E+02  0.10428708915E+03  0.00000000000E+00 0.  1.
         11    1    1    2    0    0 -0.24492255912E+01 -0.63200570144E+02  0.13899565241E+03  0.15270920785E+03  0.00000000000E+00 0. -1.
</event>
<event>
 7    1  0.2601031E-009  0.1052828E+03  0.7561462E-02  0.1269563E+00
          1   -1    0    0  501    0  0.00000000000E+00  0.00000000000E+00  0.31188316231E+02  0.31188316231E+02  0.00000000000E+00 0. -1.
         -1   -1    0    0    0  501 -0.00000000000E+00 -0.00000000000E+00 -0.59924565800E+03  0.59924565800E+03  0.00000000000E+00 0.  1.
         25    2    1    2    0    0  0.24034198421E+02  0.74449261736E+02 -0.39167499498E+03  0.41854291489E+03  0.12509410315E+03 0.  0.
          5    1    3    3  502    0  0.48613370107E+02  0.19070969671E+02 -0.53204272344E+02  0.74666784001E+02  0.41800000000E+01 0.  1.
         -5    1    3    3    0  502 -0.24579171686E+02  0.55378292065E+02 -0.33847072263E+03  0.34387613089E+03  0.41800000000E+01 0.  1.
        -11    1    1    2    0    0 -0.41454752812E+02 -0.66348657790E+02 -0.73884885141E+02  0.10760862964E+03  0.00000000000E+00 0. -1.
         11    1    1    2    0    0  0.17420554391E+02 -0.81006039460E+01 -0.10249746165E+03  0.10428242970E+03  0.00000000000E+00 0.  1.
</event>
<event>
 7    1  0.2601031E-009  0.2886545E+03  0.7561462E-02  0.1091054E+00
         -2   -1    0    0    0  501 -0.00000000000E+00  0.00000000000E+00  0.16981120171E+03  0.16981120171E+03  0.00000000000E+00 0.  1.
          2   -1    0    0  501    0  0.00000000000E+00 -0.00000000000E+00 -0.50756053821E+03  0.50756053821E+03  0.00000000000E+00 0. -1.
         25    2    1    2    0    0 -0.26853131926E+03  0.16379601323E+02 -0.21931602075E+03  0.36895068811E+03  0.12509089711E+03 0.  0.
          5    1    3    3  502    0 -0.27829191055E+03  0.26969445368E+01 -0.21311247059E+03  0.35055393096E+03  0.41800000000E+01 0.  1.
         -5    1    3    3    0  502  0.97605912986E+01  0.13682656787E+02 -0.62035501641E+01  0.18396757157E+02  0.41800000000E+01 0.  1.
        -11    1    1    2    0    0  0.11614853872E+03  0.34227741559E+02 -0.73649764283E+02  0.14172617655E+03  0.00000000000E+00 0. -1.
         11    1    1    2    0    0  0.15238278053E+03 -0.50607342882E+02 -0.44783551466E+02  0.16669487526E+03  0.00000000000E+00 0.  1.
</event>
<event>
 7    1  0.2601031E-009  0.1105843E+03  0.7561462E-02  0.1259492E+00
         -1   -1    0    0    0  501 -0.00000000000E+00  0.00000000000E+00  0.18155880871E+03  0.18155880871E+03  0.00000000000E+00 0.  1.
          1   -1    0    0  501    0  0.00000000000E+00 -0.00000000000E+00 -0.12707917040E+03  0.12707917040E+03  0.00000000000E+00 0. -1.
         25    2    1    2    0    0 -0.43522979080E+02  0.38836567985E+02 -0.61573301520E+02  0.15113381544E+03  0.12509048720E+03 0.  0.
          5    1    3    3  502    0 -0.86353030978E+02  0.17611021547E+02 -0.51311492299E+02  0.10206535005E+03  0.41800000000E+01 0. -1.
         -5    1    3    3    0  502  0.42830051899E+02  0.21225546437E+02 -0.10261809221E+02  0.49068465389E+02  0.41800000000E+01 0. -1.
        -11    1    1    2    0    0  0.53785632219E+02 -0.47321496788E+02  0.12310756378E+03  0.14243486424E+03  0.00000000000E+00 0.  1.
         11    1    1    2    0    0 -0.10262653139E+02  0.84849288035E+01 -0.70546239426E+01  0.15069299427E+02  0.00000000000E+00 0. -1.
</event>
<event>
 7    1  0.2601031E-009  0.1127866E+03  0.7561462E-02  0.1255495E+00
         -2   -1    0    0    0  501 -0.00000000000E+00  0.00000000000E+00  0.21538120717E+02  0.21538120717E+02  0.00000000000E+00 0. -1.
          2   -1    0    0  501    0  0.00000000000E+00 -0.00000000000E+00 -0.66180707401E+03  0.66180707401E+03  0.00000000000E+00 0.  1.
         25    2    1    2    0    0 -0.25695048093E+02 -0.42637996136E+02 -0.41583058866E+03  0.43708192319E+03  0.12508914783E+03 0.  0.
          5    1    3    3  502    0 -0.71989590414E+01 -0.81301955115E+02 -0.34182111080E+03  0.35145551228E+03  0.41800000000E+01 0.  1.
         -5    1    3    3    0  502 -0.18496089051E+02  0.38663958979E+02 -0.74009477854E+02  0.85626410916E+02  0.41800000000E+01 0.  1.
        -11    1    1    2    0    0 -0.27711818405E+02 -0.62171900227E+01 -0.52015752891E+02  0.59264128104E+02  0.00000000000E+00 0. -1.
         11    1    1    2    0    0  0.53406866498E+02  0.48855186159E+02 -0.17242261175E+03  0.18699914344E+03  0.00000000000E+00 0.  1.
</event>
<event>
 7    1  0.2601031E-009  0.1031805E+03  0.7561462E-02  0.1273747E+00
         -2   -1    0    0    0  501 -0.00000000000E+00  0.00000000000E+00  0.21460127554E+03  0.21460127554E+03  0.00000000000E+00 0.  1.
          2   -1    0    0  501    0  0.00000000000E+00 -0.00000000000E+00 -0.55921400452E+02  0.55921400452E+02  0.00000000000E+00 0. -1.
         25    2    1    2    0    0 -0.15344408332E+01  0.66713158162E+01  0.11128010932E+03  0.16755961848E+03  0.12508437972E+03 0.  0.
          5    1    3    3  502    0 -0.39005585835E+02 -0.44437477309E+02  0.70390465963E+02  0.92023992602E+02  0.41800000000E+01 0. -1.
         -5    1    3    3    0  502  0.37471145002E+02  0.51108793125E+02  0.40889643361E+02  0.75535625877E+02  0.41800000000E+01 0. -1.
        -11    1    1    2    0    0  0.26476194295E+02 -0.36246107414E+02  0.45968645192E+02  0.64248622614E+02  0.00000000000E+00 0.  1.
         11    1    1    2    0    0 -0.24941753462E+02  0.29574791598E+02  0.14311205755E+01  0.38714434904E+02  0.00000000000E+00 0. -1.
</event>
<event>
 7    1  0.2604792E-009  0.8491884E+02  0.7561462E-02  0.1315645E+00
         -1   -1    0    0    0  501 -0.00000000000E+00  0.00000000000E+00  0.16287840289E+03  0.16287840289E+03  0.00000000000E+00 0.  1.
          1   -1    0    0  501    0  0.00000000000E+00 -0.00000000000E+00 -0.10032869144E+03  0.10032869144E+03  0.00000000000E+00 0. -1.
         25    2    1    2    0    0  0.31477699854E+02 -0.38205535074E+02  0.82266546838E+02  0.15767844685E+03  0.12507677391E+03 0.  0.
          5    1    3    3  502    0 -0.24554808270E+01 -0.30994042419E+02 -0.27974578112E+02  0.42032243244E+02  0.41800000000E+01 0.  1.
         -5    1    3    3    0  502  0.33933180681E+02 -0.72114926551E+01  0.11024112495E+03  0.11564620360E+03  0.41800000000E+01 0.  1.
        -11    1    1    2    0    0 -0.63683055562E+02  0.21291132899E+02 -0.10112008026E+02  0.67905055866E+02  0.00000000000E+00 0.  1.
         11    1    1    2    0    0  0.32205355708E+02  0.16914402175E+02 -0.96048273680E+01  0.37623591615E+02  0.00000000000E+00 0. -1.
</event>
<event>
 7    1  0.2601031E-009  0.1340323E+03  0.7561462E-02  0.1221592E+00
         -2   -1    0    0    0  501 -0.00000000000E+00  0.00000000000E+00  0.45028163733E+02  0.45028163733E+02  0.00000000000E+00 0. -1.
          2   -1    0    0  501    0  0.00000000000E+00 -0.00000000000E+00 -0.57623622089E+03  0.57623622089E+03  0.00000000000E+00 0.  1.
         25    2    1    2    0    0  0.16106934287E+02  0.10044797844E+03 -0.40371443266E+03  0.43472116919E+03  0.12509165478E+03 0.  0.
          5    1    3    3  502    0 -0.26967793208E+02  0.50570965190E+01 -0.23145803583E+03  0.23311613167E+03  0.41800000000E+01 0.  1.
         -5    1    3    3    0  502  0.43074727495E+02  0.95390881924E+02 -0.17225639684E+03  0.20160503752E+03  0.41800000000E+01 0.  1.
        -11    1    1    2    0    0  0.89958391692E+01 -0.10874985437E+03 -0.10930819403E+03  0.15445302596E+03  0.00000000000E+00 0.  1.
         11    1    1    2    0    0 -0.25102773456E+02  0.83018759232E+01 -0.18185430463E+02  0.32090189469E+02  0.00000000000E+00 0. -1.
</event>
<event>
 7    1  0.2601031E-009  0.8484979E+02  0.7561462E-02  0.1315826E+00
         -1   -1    0    0    0  501 -0.00000000000E+00  0.00000000000E+00  0.61021020678E+03  0.61021020678E+03  0.00000000000E+00 0.  1.
          1   -1    0    0  501    0  0.00000000000E+00 -0.00000000000E+00 -0.23115204082E+02  0.23115204082E+02  0.00000000000E+00 0. -1.
         25    2    1    2    0    0 -0.22271663209E+02 -0.39529752326E+02  0.41582246060E+03  0.43659372901E+03  0.12508851735E+03 0.  0.
          5    1    3    3  502    0 -0.41738732616E+02 -0.10457082500E+02  0.39125869602E+03  0.39363982521E+03  0.41800000000E+01 0.  1.
         -5    1    3    3    0  502  0.19467069406E+02 -0.29072669826E+02  0.24563764575E+02  0.42953903805E+02  0.41800000000E+01 0.  1.
        -11    1    1    2    0    0  0.23101594727E+02  0.63332286218E+02  0.15133493721E+03  0.16567113622E+03  0.00000000000E+00 0.  1.
         11    1    1    2    0    0 -0.82993151729E+00 -0.23802533892E+02  0.19937604894E+02  0.31060545632E+02  0.00000000000E+00 0. -1.
</event>
<event>
 7    1  0.2601031E-009  0.1095441E+03  0.7561462E-02  0.1261417E+00
         -3   -1    0    0    0  501 -0.00000000000E+00  0.00000000000E+00  0.11404002038E+03  0.11404002038E+03  0.00000000000E+00 0.  1.
          3   -1    0    0  501    0  0.00000000000E+00 -0.00000000000E+00 -0.14459273188E+03  0.14459273188E+03  0.00000000000E+00 0. -1.
         25    2    1    2    0    0 -0.59833019799E+02 -0.33274073905E+02 -0.27219116943E+02  0.14517389931E+03  0.12508967367E+03 0.  0.
          5    1    3    3  502    0 -0.54012548305E+01  0.43588837287E+02  0.74088345169E+01  0.44738389764E+02  0.41800000000E+01 0. -1.
         -5    1    3    3    0  502 -0.54431764968E+02 -0.76862911192E+02 -0.34627951460E+02  0.10043550954E+03  0.41800000000E+01 0. -1.
        -11    1    1    2    0    0  0.30033044267E+02  0.40118188470E+02 -0.41138492407E+02  0.64836936630E+02  0.00000000000E+00 0. -1.
         11    1    1    2    0    0  0.29799975532E+02 -0.68441145645E+01  0.37804897843E+02  0.48621916322E+02  0.00000000000E+00 0.  1.
</event>
<event>
 7    1  0.2601031E-009  0.1410155E+03  0.7561462E-02  0.1211969E+00
          2   -1    0    0  501    0  0.00000000000E+00  0.00000000000E+00  0.16745294891E+03  0.16745294891E+03  0.00000000000E+00 0. -1.
         -2   -1    0    0    0  501 -0.00000000000E+00 -0.00000000000E+00 -0.19451917554E+03  0.19451917554E+03  0.00000000000E+00 0.  1.
         25    2    1    2    0    0  0.12732294329E+02 -0.93114837640E+02 -0.12417407650E+03  0.19974778509E+03  0.12508993592E+03 0.  0.
          5    1    3    3  502    0  0.49309637679E+02  0.51850530964E+01 -0.54301769239E+02  0.73651067108E+02  0.41800000000E+01 0. -1.
         -5    1    3    3    0  502 -0.36577343350E+02 -0.98299890736E+02 -0.69872307258E+02  0.12609671799E+03  0.41800000000E+01 0. -1.
        -11    1    1    2    0    0 -0.48888464267E+02  0.65888560470E+02  0.77629722558E+02  0.11295024641E+03  0.00000000000E+00 0.  1.
         11    1    1    2    0    0  0.36156169938E+02  0.27226277170E+02  0.19478127307E+02  0.49274092955E+02  0.00000000000E+00 0. -1.
</event>
<event>
 7    1  0.2601031E-009  0.1956262E+03  0.7561462E-02  0.1153483E+00
         -2   -1    0    0    0  501 -0.00000000000E+00  0.00000000000E+00  0.16370042036E+03  0.16370042036E+03  0.00000000000E+00 0.  1.
          2   -1    0    0  501    0  0.00000000000E+00 -0.00000000000E+00 -0.30507749201E+03  0.30507749201E+03  0.00000000000E+00 0. -1.
         25    2    1    2    0    0  0.15358925032E+03  0.11586263547E+03 -0.10845564402E+03  0.25382028948E+03  0.12509318335E+03 0.  0.
          5    1    3    3  502    0  0.13204117751E+01  0.88408919871E+01  0.23597086913E+02  0.25577329203E+02  0.41800000000E+01 0.  1.
         -5    1    3    3    0  502  0.15226883854E+03  0.10702174349E+03 -0.13205273093E+03  0.22824296028E+03  0.41800000000E+01 0.  1.
        -11    1    1    2    0    0 -0.46969104445E+02 -0.55470342169E+02  0.28274469004E+02  0.77990391910E+02  0.00000000000E+00 0. -1.
         11    1    1    2    0    0 -0.10662014587E+03 -0.60392293304E+02 -0.61195896641E+02  0.13696723098E+03  0.00000000000E+00 0.  1.
</event>
<event>
 7    1  0.2601031E-009  0.9097543E+02  0.7561462E-02  0.1300507E+00
         -2   -1    0    0    0  501 -0.00000000000E+00  0.00000000000E+00  0.16086054557E+03  0.16086054557E+03  0.00000000000E+00 0. -1.
          2   -1    0    0  501    0  0.00000000000E+00 -0.00000000000E+00 -0.11034101898E+03  0.11034101898E+03  0.00000000000E+00 0.  1.
         25    2    1    2    0    0  0.58988462950E+02  0.33605526368E+02  0.70913787016E+02  0.15900678954E+03  0.12508166839E+03 0.  0.
          5    1    3    3  502    0  0.59807394538E+02  0.25715514966E+02 -0.19548208906E+02  0.68101519974E+02  0.41800000000E+01 0. -1.
         -5    1    3    3    0  502 -0.81893158809E+00  0.78900114019E+01  0.90461995922E+02  0.90905269567E+02  0.41800000000E+01 0. -1.
        -11    1    1    2    0    0  0.13984162189E+02 -0.31816794240E+02  0.45607665349E+01  0.35052329156E+02  0.00000000000E+00 0.  1.
         11    1    1    2    0    0 -0.72972625139E+02 -0.17887321278E+01 -0.24955026957E+02  0.77142445857E+02  0.00000000000E+00 0. -1.
</event>
<event>
 7    1  0.2601031E-009  0.9482334E+02  0.7561462E-02  0.1291574E+00
         -4   -1    0    0    0  501 -0.00000000000E+00  0.00000000000E+00  0.27583762398E+02  0.27583762398E+02  0.00000000000E+00 0. -1.
          4   -1    0    0  501    0  0.00000000000E+00 -0.00000000000E+00 -0.48640503840E+03  0.48640503840E+03  0.00000000000E+00 0.  1.
         25    2    1    2    0    0 -0.22456311281E+02 -0.30165112580E+02 -0.29636723134E+03  0.32387720600E+03  0.12509471939E+03 0.  0.
          5    1    3    3  502    0 -0.41647408063E+02 -0.62130139007E+02 -0.10570925485E+03  0.12956303382E+03  0.41800000000E+01 0. -1.
         -5    1    3    3    0  502  0.19191096782E+02  0.31965026427E+02 -0.19065797649E+03  0.19431417218E+03  0.41800000000E+01 0. -1.
        -11    1    1    2    0    0 -0.24022033103E+02  0.56902666257E+01 -0.64702730582E+01  0.25520612103E+02  0.00000000000E+00 0. -1.
         11    1    1    2    0    0  0.46478344384E+02  0.24474845955E+02 -0.15598377160E+03  0.16459098269E+03  0.00000000000E+00 0.  1.
</event>
<event>
 7    1  0.2601031E-009  0.1482232E+03  0.7561462E-02  0.1202674E+00
          1   -1    0    0  501    0  0.00000000000E+00  0.00000000000E+00  0.13271303318E+03  0.13271303318E+03  0.00000000000E+00 0. -1.
         -1   -1    0    0    0  501 -0.00000000000E+00 -0.00000000000E+00 -0.23880441153E+03  0.23880441153E+03  0.00000000000E+00 0.  1.
         25    2    1    2    0    0 -0.97058509656E+02  0.78433444726E+02  0.11142661142E+02  0.17704135505E+03  0.12508925995E+03 0.  0.
          5    1    3    3  502    0 -0.30926863836E+02 -0.22071787229E+02  0.37782118506E+02  0.53745656354E+02  0.41800000000E+01 0. -1.
         -5    1    3    3    0  502 -0.66131645820E+02  0.10050523196E+03 -0.26639457364E+02  0.12329569870E+03  0.41800000000E+01 0. -1.
        -11    1    1    2    0    0  0.58424379258E+02 -0.10030444675E+02 -0.96455686998E+02  0.11321535879E+03  0.00000000000E+00 0.  1.
         11    1    1    2    0    0  0.38634130398E+02 -0.68403000051E+02 -0.20778352493E+02  0.81260730860E+02  0.00000000000E+00 0. -1.
</event>
<event>
 7    1  0.2601031E-009  0.8245959E+02  0.7561462E-02  0.1322213E+00
          2   -1    0    0  501    0  0.00000000000E+00  0.00000000000E+00  0.86664402858E+03  0.86664402858E+03  0.00000000000E+00 0. -1.
         -2   -1    0    0    0  501 -0.00000000000E+00 -0.00000000000E+00 -0.17247277125E+02  0.17247277125E+02  0.00000000000E+00 0.  1.
         25    2    1    2    0    0 -0.22947831168E+02 -0.25813061579E+01  0.66105584461E+03  0.67318385627E+03  0.12509359917E+03 0.  0.
          5    1    3    3  502    0  0.56335849176E+00 -0.37093362388E+02  0.58602707031E+03  0.58721498145E+03  0.41800000000E+01 0. -1.
         -5    1    3    3    0  502 -0.23511189660E+02  0.34512056230E+02  0.75028774301E+02  0.85968874819E+02  0.41800000000E+01 0. -1.
        -11    1    1    2    0    0 -0.25659868038E+02 -0.19501872730E+02  0.31653702863E+02  0.45174204726E+02  0.00000000000E+00 0.  1.
         11    1    1    2    0    0  0.48607699206E+02  0.22083178888E+02  0.15668720398E+03  0.16553324471E+03  0.00000000000E+00 0. -1.
</event>
<event>
 7    1  0.2601031E-009  0.1153568E+03  0.7561462E-02  0.1250959E+00
         -1   -1    0    0    0  501 -0.00000000000E+00  0.00000000000E+00  0.94108816633E+02  0.94108816633E+02  0.00000000000E+00 0.  1.
          1   -1    0    0  501    0  0.00000000000E+00 -0.00000000000E+00 -0.14999475726E+03  0.14999475726E+03  0.00000000000E+00 0. -1.
         25    2    1    2    0    0 -0.42411467717E+02 -0.61695898779E+01 -0.58551124931E+02  0.14461372158E+03  0.12509235711E+03 0.  0.
          5    1    3    3  502    0 -0.24158325794E+02  0.59194860976E+02 -0.24794904496E+02  0.68701644523E+02  0.41800000000E+01 0.  1.
         -5    1    3    3    0  502 -0.18253141922E+02 -0.65364450854E+02 -0.33756220435E+02  0.75912077060E+02  0.41800000000E+01 0.  1.
        -11    1    1    2    0    0 -0.27626617386E+02  0.73969931603E+01 -0.49619801579E+01  0.29027000243E+02  0.00000000000E+00 0. -1.
         11    1    1    2    0    0  0.70038085102E+02 -0.12274032823E+01  0.76271644620E+01  0.70462852067E+02  0.00000000000E+00 0.  1.
</event>
<event>
 7    1  0.2601031E-009  0.2376608E+03  0.7561462E-02  0.1121361E+00
          3   -1    0    0  501    0  0.00000000000E+00  0.00000000000E+00  0.13441511025E+04  0.13441511025E+04  0.00000000000E+00 0. -1.
         -3   -1    0    0    0  501 -0.00000000000E+00 -0.00000000000E+00 -0.45758984415E+02  0.45758984415E+02  0.00000000000E+00 0.  1.
         25    2    1    2    0    0 -0.11233435747E+03 -0.18669108085E+03  0.79737986542E+03  0.83602260875E+03  0.12508631032E+03 0.  0.
          5    1    3    3  502    0 -0.12843165365E+03 -0.10539303792E+03  0.47923397608E+03  0.50723274572E+03  0.41800000000E+01 0. -1.
         -5    1    3    3    0  502  0.16097296176E+02 -0.81298042929E+02  0.31814588933E+03  0.32878986302E+03  0.41800000000E+01 0. -1.
        -11    1    1    2    0    0  0.48641986742E+02  0.30358492225E+02  0.66905941649E+02  0.88114050823E+02  0.00000000000E+00 0.  1.
         11    1    1    2    0    0  0.63692370731E+02  0.15633258862E+03  0.43410631106E+03  0.46577342738E+03  0.00000000000E+00 0. -1.
</event>
<event>
 7    1  0.2601031E-009  0.9823904E+02  0.7561462E-02  0.1284043E+00
          1   -1    0    0  501    0  0.00000000000E+00  0.00000000000E+00  0.63595900880E+03  0.63595900880E+03  0.00000000000E+00 0. -1.
         -1   -1    0    0    0  501 -0.00000000000E+00 -0.00000000000E+00 -0.22886412830E+02  0.22886412830E+02  0.00000000000E+00 0.  1.
         25    2    1    2    0    0 -0.22252663602E+02 -0.47053716155E+02  0.37918039577E+03  0.40266245490E+03  0.12510014712E+03 0.  0.
          5    1    3    3  502    0 -0.20085042660E+02  0.21205035863E+02  0.16950549611E+02  0.34027283417E+02  0.41800000000E+01 0. -1.
         -5    1    3    3    0  502 -0.21676209411E+01 -0.68258752018E+02  0.36222984616E+03  0.36863517149E+03  0.41800000000E+01 0. -1.
        -11    1    1    2    0    0  0.51631990431E+02  0.46004869563E+02  0.11943813245E+03  0.13801368752E+03  0.00000000000E+00 0.  1.
         11    1    1    2    0    0 -0.29379326830E+02  0.10488465918E+01  0.11445406775E+03  0.11816927921E+03  0.00000000000E+00 0. -1.
</event>
<event>
 7    1  0.2601031E-009  0.1331885E+03  0.7561462E-02  0.1222800E+00
         -1   -1    0    0    0  501 -0.00000000000E+00  0.00000000000E+00  0.46811226341E+02  0.46811226341E+02  0.00000000000E+00 0.  1.
          1   -1    0    0  501    0  0.00000000000E+00 -0.00000000000E+00 -0.63619920613E+03  0.63619920613E+03  0.00000000000E+00 0. -1.
         25    2    1    2    0    0  0.12679780584E+03  0.39264466335E+02 -0.30357759868E+03  0.35415465806E+03  0.12508709577E+03 0.  0.
          5    1    3    3  502    0  0.10249245562E+03  0.32153269995E+02 -0.93372438483E+02  0.14238827515E+03  0.41800000000E+01 0.  1.
         -5    1    3    3    0  502  0.24305350221E+02  0.71111963397E+01 -0.21020516019E+03  0.21176638292E+03  0.41800000000E+01 0.  1.
        -11    1    1    2    0    0 -0.48293814629E+02 -0.20692963657E+02 -0.21560324313E+03  0.22191270744E+03  0.00000000000E+00 0. -1.
         11    1    1    2    0    0 -0.78503991213E+02 -0.18571502678E+02 -0.70207137987E+02  0.10694306697E+03  0.00000000000E+00 0.  1.
</event>
<event>
 7    1  0.2601031E-009  0.9135037E+02  0.7561462E-02  0.1299614E+00
         -1   -1    0    0    0  501 -0.00000000000E+00  0.00000000000E+00  0.17044940332E+03  0.17044940332E+03  0.00000000000E+00 0.  1.
          1   -1    0    0  501    0  0.00000000000E+00 -0.00000000000E+00 -0.10666409155E+03  0.10666409155E+03  0.00000000000E+00 0. -1.
         25    2    1    2    0    0  0.49248701455E+02  0.28317077252E+02 -0.23800650970E+02  0.13943297883E+03  0.12509113933E+03 0.  0.
          5    1    3    3  502    0  0.68126795432E+01  0.49769121185E+02 -0.60844282706E+02  0.79011879893E+02  0.41800000000E+01 0.  1.
         -5    1    3    3    0  502  0.42436021912E+02 -0.21452043934E+02  0.37043631736E+02  0.60421098938E+02  0.41800000000E+01 0.  1.
        -11    1    1    2    0    0 -0.46801795042E+02 -0.46640859759E+02  0.22157014446E+02  0.69690107672E+02  0.00000000000E+00 0. -1.
         11    1    1    2    0    0 -0.24469064138E+01  0.18323782508E+02  0.65428948289E+02  0.67990408372E+02  0.00000000000E+00 0.  1.
</event>
<event>
 7    1  0.2601031E-009  0.1049681E+03  0.7561462E-02  0.1270182E+00
         -4   -1    0    0    0  501 -0.00000000000E+00  0.00000000000E+00  0.45890416418E+03  0.45890416418E+03  0.00000000000E+00 0.  1.
          4   -1    0    0  501    0  0.00000000000E+00 -0.00000000000E+00 -0.38493656034E+02  0.38493656034E+02  0.00000000000E+00 0. -1.
         25    2    1    2    0    0  0.59338456406E+02  0.62891180676E+01  0.32507778526E+03  0.35338854323E+03  0.12508913062E+03 0.  0.
          5    1    3    3  502    0  0.52615545133E+02  0.61731656056E+02  0.16746867294E+03  0.18612474786E+03  0.41800000000E+01 0. -1.
         -5    1    3    3    0  502  0.67229112722E+01 -0.55442537989E+02  0.15760911233E+03  0.16726379537E+03  0.41800000000E+01 0. -1.
        -11    1    1    2    0    0 -0.38472047219E+01 -0.15930893592E+02 -0.13652740283E+02  0.21330533797E+02  0.00000000000E+00 0. -1.
         11    1    1    2    0    0 -0.55491251684E+02  0.96417755246E+01  0.10898546317E+03  0.12267874319E+03  0.00000000000E+00 0.  1.
</event>
<event>
 7    1  0.2601031E-009  0.1556665E+03  0.7561462E-02  0.1193678E+00
         -2   -1    0    0    0  501 -0.00000000000E+00  0.00000000000E+00  0.68389976295E+02  0.68389976295E+02  0.00000000000E+00 0. -1.
          2   -1    0    0  501    0  0.00000000000E+00 -0.00000000000E+00 -0.46749348424E+03  0.46749348424E+03  0.00000000000E+00 0.  1.
         25    2    1    2    0    0  0.97849205931E+02 -0.59966821627E+02 -0.25264477274E+03  0.30437763431E+03  0.12508347723E+03 0.  0.
          5    1    3    3  502    0  0.27211510353E+02 -0.87856833281E+02 -0.11720683894E+03  0.14904430531E+03  0.41800000000E+01 0.  1.
         -5    1    3    3    0  502  0.70637695578E+02  0.27890011654E+02 -0.13543793380E+03  0.15533332900E+03  0.41800000000E+01 0.  1.
        -11    1    1    2    0    0 -0.69647687276E+02  0.81876639697E+02 -0.16046813753E+03  0.19314400750E+03  0.00000000000E+00 0.  1.
         11    1    1    2    0    0 -0.28201518655E+02 -0.21909818070E+02  0.14009402328E+02  0.38361818725E+02  0.00000000000E+00 0. -1.
</event>
<event>
 7    1  0.2601031E-009  0.1854668E+03  0.7561462E-02  0.1162615E+00
          1   -1    0    0  501    0  0.00000000000E+00  0.00000000000E+00  0.85730821545E+03  0.85730821545E+03  0.00000000000E+00 0. -1.
         -1   -1    0    0    0  501 -0.00000000000E+00 -0.00000000000E+00 -0.18072572759E+03  0.18072572759E+03  0.00000000000E+00 0.  1.
         25    2    1    2    0    0 -0.84261243270E+02  0.13270118627E+03 -0.11124865480E+03  0.22964339493E+03  0.12510101393E+03 0.  0.
          5    1    3    3  502    0 -0.82823612717E+02  0.30678558232E+02 -0.88335046276E+02  0.12498590944E+03  0.41800000000E+01 0. -1.
         -5    1    3    3    0  502 -0.14376305532E+01  0.10202262804E+03 -0.22913608526E+02  0.10465748549E+03  0.41800000000E+01 0. -1.
        -11    1    1    2    0    0  0.48229631928E+02 -0.59198617160E+01  0.18084268155E+03  0.18725708967E+03  0.00000000000E+00 0.  1.
         11    1    1    2    0    0  0.36031611342E+02 -0.12678132455E+03  0.60698846111E+03  0.62113345844E+03  0.00000000000E+00 0. -1.
</event>
<event>
 7    1  0.2601031E-009  0.9908861E+02  0.7561462E-02  0.1282224E+00
          2   -1    0    0  501    0  0.00000000000E+00  0.00000000000E+00  0.79321851053E+03  0.79321851053E+03  0.00000000000E+00 0. -1.
         -2   -1    0    0    0  501 -0.00000000000E+00 -0.00000000000E+00 -0.15867009608E+02  0.15867009608E+02  0.00000000000E+00 0.  1.
         25    2    1    2    0    0  0.18343037382E+02  0.10564983639E+02  0.37333085965E+03  0.39429854670E+03  0.12508927718E+03 0.  0.
          5    1    3    3  502    0  0.94254898033E+01  0.56438625254E+02  0.87431564572E+02  0.10457489738E+03  0.41800000000E+01 0. -1.
         -5    1    3    3    0  502  0.89175475787E+01 -0.45873641615E+02  0.28589929508E+03  0.28972364932E+03  0.41800000000E+01 0. -1.
        -11    1    1    2    0    0  0.30771796348E+02 -0.28162176093E+02  0.18176826655E+03  0.18649320185E+03  0.00000000000E+00 0.  1.
         11    1    1    2    0    0 -0.49114833730E+02  0.17597192454E+02  0.22225237473E+03  0.22829377159E+03  0.00000000000E+00 0. -1.
</event>
<event>
 7    1  0.2601031E-009  0.1075236E+03  0.7561462E-02  0.1265226E+00
         -2   -1    0    0    0  501 -0.00000000000E+00  0.00000000000E+00  0.24156024539E+03  0.24156024539E+03  0.00000000000E+00 0.  1.
          2   -1    0    0  501    0  0.00000000000E+00 -0.00000000000E+00 -0.70559279790E+02  0.70559279790E+02  0.00000000000E+00 0. -1.
         25    2    1    2    0    0  0.20465703080E+02 -0.11787388930E+02  0.13167292703E+02  0.12797905290E+03  0.12508985908E+03 0.  0.
          5    1    3    3  502    0 -0.42982601825E+02 -0.32330373141E+02  0.26081582371E+02  0.59920601015E+02  0.41800000000E+01 0.  1.
         -5    1    3    3    0  502  0.63448304905E+02  0.20542984211E+02 -0.12914289668E+02  0.68058451887E+02  0.41800000000E+01 0.  1.
        -11    1    1    2    0    0  0.26725366455E+02  0.33062772353E+02  0.61235818083E+02  0.74546747375E+02  0.00000000000E+00 0.  1.
         11    1    1    2    0    0 -0.47191069535E+02 -0.21275383423E+02  0.96597854819E+02  0.10959372491E+03  0.00000000000E+00 0. -1.
</event>
<event>
 7    1  0.2601031E-009  0.1094990E+03  0.7561462E-02  0.1261501E+00
          2   -1    0    0  501    0  0.00000000000E+00  0.00000000000E+00  0.23000227912E+03  0.23000227912E+03  0.00000000000E+00 0. -1.
         -2   -1    0    0    0  501 -0.00000000000E+00 -0.00000000000E+00 -0.11165259673E+03  0.11165259673E+03  0.00000000000E+00 0.  1.
         25    2    1    2    0    0  0.24711920392E+02  0.10133105155E+03  0.12059364458E+03  0.20265418345E+03  0.12508888815E+03 0.  0.
          5    1    3    3  502    0  0.70789907852E+01  0.47333549342E+02  0.13551167925E+03  0.14377574419E+03  0.41800000000E+01 0. -1.
         -5    1    3    3    0  502  0.17632929607E+02  0.53997502209E+02 -0.14918034674E+02  0.58878439262E+02  0.41800000000E+01 0. -1.
        -11    1    1    2    0    0  0.27580961740E+01 -0.77740047329E+02  0.36537778200E+02  0.85942604621E+02  0.00000000000E+00 0.  1.
         11    1    1    2    0    0 -0.27470016566E+02 -0.23591004222E+02 -0.38781740388E+02  0.53058087771E+02  0.00000000000E+00 0. -1.
</event>
<event>
 7    1  0.2601031E-009  0.1068141E+03  0.7561462E-02  0.1266586E+00
         -1   -1    0    0    0  501 -0.00000000000E+00  0.00000000000E+00  0.28183658125E+03  0.28183658125E+03  0.00000000000E+00 0. -1.
          1   -1    0    0  501    0  0.00000000000E+00 -0.00000000000E+00 -0.70625126313E+02  0.70625126313E+02  0.00000000000E+00 0.  1.
         25    2    1    2    0    0  0.48024421115E+02  0.50933109952E+02  0.18194871853E+03  0.23163056672E+03  0.12508739564E+03 0.  0.
          5    1    3    3  502    0 -0.29958690298E+02  0.23242660927E+02  0.12600804671E+03  0.13165578091E+03  0.41800000000E+01 0.  1.
         -5    1    3    3    0  502  0.77983111413E+02  0.27690449025E+02  0.55940671821E+02  0.99974785804E+02  0.41800000000E+01 0.  1.
        -11    1    1    2    0    0  0.13706618483E+02 -0.18094713312E+02 -0.23923996886E+02  0.32979503742E+02  0.00000000000E+00 0.  1.
         11    1    1    2    0    0 -0.61731039598E+02 -0.32838396640E+02  0.53186733285E+02  0.87851637101E+02  0.00000000000E+00 0. -1.
</event>
<event>
 7    1  0.2601031E-009  0.1102381E+03  0.7561462E-02  0.1260130E+00
         -2   -1    0    0    0  501 -0.00000000000E+00  0.00000000000E+00  0.16507083681E+03  0.16507083681E+03  0.00000000000E+00 0.  1.
          2   -1    0    0  501    0  0.00000000000E+00 -0.00000000000E+00 -0.97388315367E+02  0.97388315367E+02  0.00000000000E+00 0. -1.
         25    2    1    2    0    0 -0.29098445282E+02 -0.24787269694E+02 -0.14773480020E+02  0.13163078727E+03  0.12508908900E+03 0.  0.
          5    1    3    3  502    0 -0.29143069061E+02  0.46566011236E+02  0.99820626920E+01  0.55989515557E+02  0.41800000000E+01 0.  1.
         -5    1    3    3    0  502  0.44623779058E-01 -0.71353280930E+02 -0.24755542712E+02  0.75641271709E+02  0.41800000000E+01 0.  1.
        -11    1    1    2    0    0 -0.30605345701E+02  0.11844966276E+02  0.54561732334E+02  0.63670817859E+02  0.00000000000E+00 0.  1.
         11    1    1    2    0    0  0.59703790983E+02  0.12942303418E+02  0.27894269126E+02  0.67157547048E+02  0.00000000000E+00 0. -1.
</event>
<event>
 7    1  0.2601031E-009  0.1303251E+03  0.7561462E-02  0.1226974E+00
         -1   -1    0    0    0  501 -0.00000000000E+00  0.00000000000E+00  0.48518614563E+02  0.48518614563E+02  0.00000000000E+00 0.  1.
          1   -1    0    0  501    0  0.00000000000E+00 -0.00000000000E+00 -0.36564933014E+03  0.36564933014E+03  0.00000000000E+00 0. -1.
         25    2    1    2    0    0  0.12783198028E+02  0.71867416266E+02 -0.21588099595E+03  0.25996275139E+03  0.12509073518E+03 0.  0.
          5    1    3    3  502    0 -0.49480106279E+02  0.65054498244E+02 -0.12917054429E+03  0.15291458587E+03  0.41800000000E+01 0. -1.
         -5    1    3    3    0  502  0.62263304307E+02  0.68129180219E+01 -0.86710451654E+02  0.10704816552E+03  0.41800000000E+01 0. -1.
        -11    1    1    2    0    0  0.37614900483E+02 -0.16233642059E+02 -0.40866972905E+02  0.57866409490E+02  0.00000000000E+00 0. -1.
         11    1    1    2    0    0 -0.50398098511E+02 -0.55633774207E+02 -0.60382746724E+02  0.96338783820E+02  0.00000000000E+00 0.  1.
</event>
<event>
 7    1  0.2601031E-009  0.1193788E+03  0.7561462E-02  0.1244125E+00
          3   -1    0    0  501    0  0.00000000000E+00  0.00000000000E+00  0.31393554009E+02  0.31393554009E+02  0.00000000000E+00 0. -1.
         -3   -1    0    0    0  501 -0.00000000000E+00 -0.00000000000E+00 -0.54921596282E+03  0.54921596282E+03  0.00000000000E+00 0.  1.
         25    2    1    2    0    0  0.82779634471E+01 -0.58337042777E+02 -0.18564358636E+03  0.23148111181E+03  0.12509288041E+03 0.  0.
          5    1    3    3  502    0  0.25116004094E+02 -0.94493219439E+02 -0.12448968203E+03  0.15835067260E+03  0.41800000000E+01 0. -1.
         -5    1    3    3    0  502 -0.16838040647E+02  0.36156176662E+02 -0.61153904331E+02  0.73130439206E+02  0.41800000000E+01 0. -1.
        -11    1    1    2    0    0 -0.26326040288E+02  0.72958882833E+02 -0.29708968973E+03  0.30704778573E+03  0.00000000000E+00 0.  1.
         11    1    1    2    0    0  0.18048076841E+02 -0.14621840056E+02 -0.35089132729E+02  0.42080619292E+02  0.00000000000E+00 0. -1.
</event>
<event>
 7    1  0.2601031E-009  0.7046828E+02  0.7561462E-02  0.1358508E+00
          2   -1    0    0  501    0  0.00000000000E+00  0.00000000000E+00  0.14684802392E+04  0.14684802392E+04  0.00000000000E+00 0. -1.
         -2   -1    0    0    0  501 -0.00000000000E+00 -0.00000000000E+00 -0.15985427430E+02  0.15985427430E+02  0.00000000000E+00 0.  1.
         25    2    1    2    0    0 -0.24770262307E+02 -0.29946094585E+02  0.12693448665E+04  0.12760854753E+04  0.12508962993E+03 0.  0.
          5    1    3    3  502    0 -0.79510495647E+01  0.90595383573E+01  0.11360918491E+04  0.11361634814E+04  0.41800000000E+01 0.  1.
         -5    1    3    3    0  502 -0.16819212743E+02 -0.39005632942E+02  0.13325301741E+03  0.13992199386E+03  0.41800000000E+01 0.  1.
        -11    1    1    2    0    0 -0.26988445603E+02  0.30327946090E+01  0.16413941996E+02  0.31733129865E+02  0.00000000000E+00 0.  1.
         11    1    1    2    0    0  0.51758707910E+02  0.26913299976E+02  0.16673600327E+03  0.17664706153E+03  0.00000000000E+00 0. -1.
</event>
<event>
 7    1  0.2601031E-009  0.1853357E+03  0.7561462E-02  0.1162737E+00
          1   -1    0    0  501    0  0.00000000000E+00  0.00000000000E+00  0.67794687606E+03  0.67794687606E+03  0.00000000000E+00 0. -1.
         -1   -1    0    0    0  501 -0.00000000000E+00 -0.00000000000E+00 -0.85982920883E+02  0.85982920883E+02  0.00000000000E+00 0.  1.
         25    2    1    2    0    0  0.81021385989E+02 -0.16169994441E+03  0.12017793058E+03  0.25060483882E+03  0.12509481697E+03 0.  0.
          5    1    3    3  502    0  0.10779561385E+02 -0.31661850731E+02  0.94765109733E+02  0.10058116204E+03  0.41800000000E+01 0.  1.
         -5    1    3    3    0  502  0.70241824603E+02 -0.13003809368E+03  0.25412820849E+02  0.15002367678E+03  0.41800000000E+01 0.  1.
        -11    1    1    2    0    0  0.55166439065E+01  0.36485606532E+02  0.18506184956E+03  0.18870485157E+03  0.00000000000E+00 0. -1.
         11    1    1    2    0    0 -0.86538029895E+02  0.12521433787E+03  0.28672417504E+03  0.32462010655E+03  0.00000000000E+00 0.  1.
</event>
<event>
 7    1  0.2601031E-009  0.1116408E+03  0.7561462E-02  0.1257561E+00
         -1   -1    0    0    0  501 -0.00000000000E+00  0.00000000000E+00  0.22947158725E+03  0.22947158725E+03  0.00000000000E+00 0.  1.
          1   -1    0    0  501    0  0.00000000000E+00 -0.00000000000E+00 -0.11798838160E+03  0.11798838160E+03  0.00000000000E+00 0. -1.
         25    2    1    2    0    0  0.54653122897E+02  0.89998226006E+02  0.13021893736E+03  0.20902373775E+03  0.12508919526E+03 0.  0.
          5    1    3    3  502    0  0.11081578427E+02  0.48462398452E+01 -0.24174890370E+02  0.27352973248E+02  0.41800000000E+01 0. -1.
         -5    1    3    3    0  502  0.43571544470E+02  0.85151986160E+02  0.15439382773E+03  0.18167076450E+03  0.41800000000E+01 0. -1.
        -11    1    1    2    0    0  0.46196027558E+01 -0.30175743707E+02 -0.41200321435E+02  0.51277507001E+02  0.00000000000E+00 0. -1.
         11    1    1    2    0    0 -0.59272725653E+02 -0.59822482298E+02  0.22464589728E+02  0.87158724097E+02  0.00000000000E+00 0.  1.
</event>
<event>
 7    1  0.2601031E-009  0.1169586E+03  0.7561462E-02  0.1248200E+00
         -3   -1    0    0    0  501 -0.00000000000E+00  0.00000000000E+00  0.97231126784E+02  0.97231126784E+02  0.00000000000E+00 0.  1.
          3   -1    0    0  501    0  0.00000000000E+00 -0.00000000000E+00 -0.17872475854E+03  0.17872475854E+03  0.00000000000E+00 0. -1.
         25    2    1    2    0    0 -0.64337112695E+02  0.53443869747E+01 -0.53203155540E+01  0.14086716895E+03  0.12508967579E+03 0.  0.
          5    1    3    3  502    0 -0.99392515747E+02  0.53898383963E+01 -0.21678673912E+02  0.10195763751E+03  0.41800000000E+01 0. -1.
         -5    1    3    3    0  502  0.35055403052E+02 -0.45451421587E-01  0.16358358358E+02  0.38909531443E+02  0.41800000000E+01 0. -1.
        -11    1    1    2    0    0  0.40536115597E+02  0.34064469284E+02 -0.90842384762E+01  0.53722324261E+02  0.00000000000E+00 0.  1.
         11    1    1    2    0    0  0.23800997098E+02 -0.39408856259E+02 -0.67089077724E+02  0.81366392106E+02  0.00000000000E+00 0. -1.
</event>
<event>
 7    1  0.2601031E-009  0.8780445E+02  0.7561462E-02  0.1308257E+00
         -2   -1    0    0    0  501 -0.00000000000E+00  0.00000000000E+00  0.45499366339E+02  0.45499366339E+02  0.00000000000E+00 0.  1.
          2   -1    0    0  501    0  0.00000000000E+00 -0.00000000000E+00 -0.33074853066E+03  0.33074853066E+03  0.00000000000E+00 0. -1.
         25    2    1    2    0    0  0.11817179238E+02  0.46067519401E+02 -0.20543867101E+03  0.24518184459E+03  0.12508887760E+03 0.  0.
          5    1    3    3  502    0 -0.39724187682E+02  0.35201115666E+02 -0.28228390787E+02  0.60261464283E+02  0.41800000000E+01 0.  1.
         -5    1    3    3    0  502  0.51541366920E+02  0.10866403735E+02 -0.17721028022E+03  0.18492038030E+03  0.41800000000E+01 0.  1.
        -11    1    1    2    0    0  0.17013428666E+02 -0.23717815815E+01  0.14972397752E+02  0.22787162993E+02  0.00000000000E+00 0.  1.
         11    1    1    2    0    0 -0.28830607904E+02 -0.43695737820E+02 -0.94782891057E+02  0.10827888941E+03  0.00000000000E+00 0. -1.
</event>
<event>
 7    1  0.2601031E-009  0.9792595E+02  0.7561462E-02  0.1284719E+00
         -2   -1    0    0    0  501 -0.00000000000E+00  0.00000000000E+00  0.34352342764E+02  0.34352342764E+02  0.00000000000E+00 0.  1.
          2   -1    0    0  501    0  0.00000000000E+00 -0.00000000000E+00 -0.36021078001E+03  0.36021078001E+03  0.00000000000E+00 0. -1.
         25    2    1    2    0    0 -0.19428005865E+02 -0.22893504398E+02 -0.19471664151E+03  0.23337440055E+03  0.12508988927E+03 0.  0.
          5    1    3    3  502    0  0.32505915944E+02 -0.51291013979E+02 -0.56880201477E+02  0.83308057272E+02  0.41800000000E+01 0.  1.
         -5    1    3    3    0  502 -0.51933921809E+02  0.28397509581E+02 -0.13783644003E+03  0.15006634328E+03  0.41800000000E+01 0.  1.
        -11    1    1    2    0    0  0.44300601063E+02  0.41358664146E+01 -0.26009152420E+02  0.51537604282E+02  0.00000000000E+00 0.  1.
         11    1    1    2    0    0 -0.24872595198E+02  0.18757637983E+02 -0.10513264332E+03  0.10965111794E+03  0.00000000000E+00 0. -1.
</event>
<event>
 7    1  0.2601031E-009  0.8484527E+02  0.7561462E-02  0.1315838E+00
          1   -1    0    0  501    0  0.00000000000E+00  0.00000000000E+00  0.10627841389E+03  0.10627841389E+03  0.00000000000E+00 0. -1.
         -1   -1    0    0    0  501 -0.00000000000E+00 -0.00000000000E+00 -0.14239164637E+03  0.14239164637E+03  0.00000000000E+00 0.  1.
         25    2    1    2    0    0 -0.39382994710E+02  0.15225995996E+02  0.18988936300E+02  0.13338062580E+03  0.12508781080E+03 0.  0.
          5    1    3    3  502    0 -0.61867417071E+02 -0.24255688216E+02  0.45467733437E+02  0.80626936502E+02  0.41800000000E+01 0. -1.
         -5    1    3    3    0  502  0.22484422361E+02  0.39481684212E+02 -0.26478797137E+02  0.52753689301E+02  0.41800000000E+01 0. -1.
        -11    1    1    2    0    0  0.38269522400E+02 -0.26245275598E+02  0.11471064683E+02  0.47801215057E+02  0.00000000000E+00 0. -1.
         11    1    1    2    0    0  0.11134723099E+01  0.11019279602E+02 -0.66573233467E+02  0.67488219400E+02  0.00000000000E+00 0.  1.
</event>
<event>
 7    1  0.2601031E-009  0.8940139E+02  0.7561462E-02  0.1304308E+00
          2   -1    0    0  501    0  0.00000000000E+00  0.00000000000E+00  0.61984168406E+03  0.61984168406E+03  0.00000000000E+00 0. -1.
         -2   -1    0    0    0  501 -0.00000000000E+00 -0.00000000000E+00 -0.22574555815E+02  0.22574555815E+02  0.00000000000E+00 0.  1.
         25    2    1    2    0    0  0.48169731519E+02 -0.11221579801E+02  0.31430970167E+03  0.34188309055E+03  0.12508881705E+03 0.  0.
          5    1    3    3  502    0 -0.15545719861E+02 -0.61516393669E+01  0.25177923315E+03  0.25236831560E+03  0.41800000000E+01 0. -1.
         -5    1    3    3    0  502  0.63715451380E+02 -0.50699404342E+01  0.62530468515E+02  0.89514774944E+02  0.41800000000E+01 0. -1.
        -11    1    1    2    0    0 -0.24374472988E+02  0.47929028713E+02  0.19529170898E+03  0.20255902429E+03  0.00000000000E+00 0.  1.
         11    1    1    2    0    0 -0.23795258531E+02 -0.36707448912E+02  0.87665717595E+02  0.97974125031E+02  0.00000000000E+00 0. -1.
</event>
<event>
 7    1  0.2601031E-009  0.1005938E+03  0.7561462E-02  0.1279052E+00
          1   -1    0    0  501    0  0.00000000000E+00  0.00000000000E+00  0.57377555806E+02  0.57377555806E+02  0.00000000000E+00 0. -1.
         -1   -1    0    0    0  501 -0.00000000000E+00 -0.00000000000E+00 -0.26894058490E+03  0.26894058490E+03  0.00000000000E+00 0.  1.
         25    2    1    2    0    0 -0.11566647952E+02 -0.54335398953E+01 -0.20054378781E+03  0.23670372815E+03  0.12509010110E+03 0.  0.
          5    1    3    3  502    0 -0.36702519761E+02 -0.49373399244E+02 -0.55274297357E+02  0.82810191752E+02  0.41800000000E+01 0. -1.
         -5    1    3    3    0  502  0.25135871810E+02  0.43939859348E+02 -0.14526949045E+03  0.15389353640E+03  0.41800000000E+01 0. -1.
        -11    1    1    2    0    0 -0.62275149436E+01 -0.39716246511E+02 -0.80079863049E+01  0.40991340841E+02  0.00000000000E+00 0.  1.
         11    1    1    2    0    0  0.17794162895E+02  0.45149786406E+02 -0.30112549801E+01  0.48623071707E+02  0.00000000000E+00 0. -1.
</event>
<event>
 7    1  0.2601031E-009  0.9776561E+02  0.7561462E-02  0.1285066E+00
          1   -1    0    0  501    0  0.00000000000E+00  0.00000000000E+00  0.54391538044E+02  0.54391538044E+02  0.00000000000E+00 0. -1.
         -1   -1    0    0    0  501 -0.00000000000E+00 -0.00000000000E+00 -0.28503242187E+03  0.28503242187E+03  0.00000000000E+00 0.  1.
         25    2    1    2    0    0  0.39481564067E+02 -0.29837134766E+02 -0.17968265736E+03  0.22446264580E+03  0.12509425842E+03 0.  0.
          5    1    3    3  502    0  0.98334845779E+01 -0.74308128354E+02 -0.71250804033E+02  0.10350142431E+03  0.41800000000E+01 0. -1.
         -5    1    3    3    0  502  0.29648079489E+02  0.44470993588E+02 -0.10843185333E+03  0.12096122149E+03  0.41800000000E+01 0. -1.
        -11    1    1    2    0    0 -0.28825010555E+02  0.41832797252E+02 -0.72236186618E+02  0.88311555396E+02  0.00000000000E+00 0.  1.
         11    1    1    2    0    0 -0.10656553512E+02 -0.11995662486E+02  0.21277960157E+02  0.26649758717E+02  0.00000000000E+00 0. -1.
</event>
<event>
 7    1  0.2601031E-009  0.9290769E+02  0.7561462E-02  0.1295959E+00
          2   -1    0    0  501    0  0.00000000000E+00  0.00000000000E+00  0.24912061136E+03  0.24912061136E+03  0.00000000000E+00 0. -1.
         -2   -1    0    0    0  501 -0.00000000000E+00 -0.00000000000E+00 -0.46764047690E+02  0.46764047690E+02  0.00000000000E+00 0.  1.
         25    2    1    2    0    0  0.13011276450E+02 -0.46795193178E+01  0.12205125916E+03  0.17532010787E+03  0.12509771839E+03 0.  0.
          5    1    3    3  502    0  0.66315514204E+02 -0.19649314897E+02  0.56445530519E+02  0.89372329698E+02  0.41800000000E+01 0.  1.
         -5    1    3    3    0  502 -0.53304237754E+02  0.14969795579E+02  0.65605728646E+02  0.85947778176E+02  0.41800000000E+01 0.  1.
        -11    1    1    2    0    0  0.18454976286E+02  0.18947593802E+02 -0.64136383159E+01  0.27216396107E+02  0.00000000000E+00 0.  1.
         11    1    1    2    0    0 -0.31466252736E+02 -0.14268074484E+02  0.86718942820E+02  0.93348155068E+02  0.00000000000E+00 0. -1.
</event>
<event>
 7    1  0.2601031E-009  0.7165009E+02  0.7561462E-02  0.1354570E+00
          1   -1    0    0  501    0  0.00000000000E+00  0.00000000000E+00  0.23123121570E+03  0.23123121570E+03  0.00000000000E+00 0. -1.
         -1   -1    0    0    0  501 -0.00000000000E+00 -0.00000000000E+00 -0.60522437580E+02  0.60522437580E+02  0.00000000000E+00 0.  1.
         25    2    1    2    0    0  0.23210206158E+02 -0.26622838930E+02  0.13587352073E+03  0.18802951652E+03  0.12508395671E+03 0.  0.
          5    1    3    3  502    0 -0.15650190778E+02 -0.14003103772E+02 -0.18492915343E+02  0.28292679345E+02  0.41800000000E+01 0. -1.
         -5    1    3    3    0  502  0.38860396936E+02 -0.12619735158E+02  0.15436643607E+03  0.15973683718E+03  0.41800000000E+01 0. -1.
        -11    1    1    2    0    0 -0.35482451273E+02 -0.14177784937E+02 -0.12343329413E+02  0.40154348645E+02  0.00000000000E+00 0.  1.
         11    1    1    2    0    0  0.12272245115E+02  0.40800623867E+02  0.47178586803E+02  0.63569788114E+02  0.00000000000E+00 0. -1.
</event>
<event>
 7    1  0.2601031E-009  0.3447430E+03  0.7561462E-02  0.1064794E+00
          2   -1    0    0  501    0  0.00000000000E+00  0.00000000000E+00  0.64685820966E+03  0.64685820966E+03  0.00000000000E+00 0.  1.
         -2   -1    0    0    0  501 -0.00000000000E+00 -0.00000000000E+00 -0.19013536264E+03  0.19013536264E+03  0.00000000000E+00 0. -1.
         25    2    1    2    0    0  0.97616317567E+02 -0.31603054905E+03  0.18163149485E+03  0.39754436373E+03  0.12508903958E+03 0.  0.
          5    1    3    3  502    0  0.12124519732E+03 -0.28525249605E+03  0.13890960064E+03  0.33968034080E+03  0.41800000000E+01 0.  1.
         -5    1    3    3    0  502 -0.23628879749E+02 -0.30778052996E+02  0.42721894212E+02  0.57864022929E+02  0.41800000000E+01 0.  1.
        -11    1    1    2    0    0 -0.10020478655E+01  0.13733913541E+03  0.86830054283E+02  0.16248846279E+03  0.00000000000E+00 0.  1.
         11    1    1    2    0    0 -0.96614269702E+02  0.17869141364E+03  0.18826129789E+03  0.27696074578E+03  0.00000000000E+00 0. -1.
</event>
<event>
 7    1  0.2601031E-009  0.1077916E+03  0.7561462E-02  0.1264715E+00
         -2   -1    0    0    0  501 -0.00000000000E+00  0.00000000000E+00  0.56569007564E+02  0.56569007564E+02  0.00000000000E+00 0.  1.
          2   -1    0    0  501    0  0.00000000000E+00 -0.00000000000E+00 -0.35018359286E+03  0.35018359286E+03  0.00000000000E+00 0. -1.
         25    2    1    2    0    0  0.13721971975E+02  0.92369770935E+02 -0.18477404443E+03  0.24188692605E+03  0.12508944960E+03 0.  0.
          5    1    3    3  502    0  0.31858455536E+02  0.24436539285E+02 -0.16335005410E+03  0.16826413230E+03  0.41800000000E+01 0.  1.
         -5    1    3    3    0  502 -0.18136483561E+02  0.67933231650E+02 -0.21423990324E+02  0.73622793751E+02  0.41800000000E+01 0.  1.
        -11    1    1    2    0    0  0.17810154755E+02 -0.29923742926E+02  0.77296064520E+00  0.34831443715E+02  0.00000000000E+00 0.  1.
         11    1    1    2    0    0 -0.31532126729E+02 -0.62446028008E+02 -0.10961350152E+03  0.13003423067E+03  0.00000000000E+00 0. -1.
</event>
<event>
 7    1  0.2601031E-009  0.9455323E+02  0.7561462E-02  0.1292186E+00
         -1   -1    0    0    0  501 -0.00000000000E+00  0.00000000000E+00  0.74706770094E+03  0.74706770094E+03  0.00000000000E+00 0.  1.
          1   -1    0    0  501    0  0.00000000000E+00 -0.00000000000E+00 -0.17755924617E+02  0.17755924617E+02  0.00000000000E+00 0. -1.
         25    2    1    2    0    0 -0.82924428079E+01 -0.15588329088E+02  0.49899393081E+03  0.51473697305E+03  0.12508975906E+03 0.  0.
          5    1    3    3  502    0  0.18723820630E+02  0.46701663039E+02  0.12874555866E+03  0.13829142441E+03  0.41800000000E+01 0.  1.
         -5    1    3    3    0  502 -0.27016263438E+02 -0.62289992127E+02  0.37024837215E+03  0.37644554864E+03  0.41800000000E+01 0.  1.
        -11    1    1    2    0    0 -0.22917914948E+02 -0.14598465131E+02  0.16252618649E+02  0.31662179690E+02  0.00000000000E+00 0. -1.
         11    1    1    2    0    0  0.31210357756E+02  0.30186794219E+02  0.21406522686E+03  0.21842447282E+03  0.00000000000E+00 0.  1.
</event>
<event>
 7    1  0.2601031E-009  0.1056911E+03  0.7561462E-02  0.1268764E+00
          1   -1    0    0  501    0  0.00000000000E+00  0.00000000000E+00  0.64594656125E+02  0.64594656125E+02  0.00000000000E+00 0. -1.
         -1   -1    0    0    0  501 -0.00000000000E+00 -0.00000000000E+00 -0.25701767030E+03  0.25701767030E+03  0.00000000000E+00 0.  1.
         25    2    1    2    0    0  0.66370942662E+02  0.45616333460E+01 -0.77864705858E+02  0.16166086821E+03  0.12508162680E+03 0.  0.
          5    1    3    3  502    0 -0.21061110882E+02  0.40544165648E+02 -0.15970208842E+02  0.48579005035E+02  0.41800000000E+01 0.  1.
         -5    1    3    3    0  502  0.87432053545E+02 -0.35982532303E+02 -0.61894497016E+02  0.11308186317E+03  0.41800000000E+01 0.  1.
        -11    1    1    2    0    0 -0.18619871751E+02 -0.12543222074E+02  0.11277310623E+02  0.25123888611E+02  0.00000000000E+00 0. -1.
         11    1    1    2    0    0 -0.47751070911E+02  0.79815887280E+01 -0.12583561894E+03  0.13482756960E+03  0.00000000000E+00 0.  1.
</event>
<event>
 7    1  0.2601031E-009  0.1384634E+03  0.7561462E-02  0.1215412E+00
          1   -1    0    0  501    0  0.00000000000E+00  0.00000000000E+00  0.27554542747E+03  0.27554542747E+03  0.00000000000E+00 0. -1.
         -1   -1    0    0    0  501 -0.00000000000E+00 -0.00000000000E+00 -0.81666361250E+02  0.81666361250E+02  0.00000000000E+00 0.  1.
         25    2    1    2    0    0  0.96400202457E+02  0.27392311397E+02  0.13757441593E+03  0.21122841531E+03  0.12508951099E+03 0.  0.
          5    1    3    3  502    0 -0.14128977559E+02  0.30903289049E+02  0.78820282964E+02  0.85934572131E+02  0.41800000000E+01 0. -1.
         -5    1    3    3    0  502  0.11052918002E+03 -0.35109776519E+01  0.58754132962E+02  0.12529384318E+03  0.41800000000E+01 0. -1.
        -11    1    1    2    0    0 -0.60469391863E+02 -0.58770104336E+02  0.49550333354E+02  0.97804437791E+02  0.00000000000E+00 0. -1.
         11    1    1    2    0    0 -0.35930810594E+02  0.31377792940E+02  0.67543169381E+01  0.48178935615E+02  0.00000000000E+00 0.  1.
</event>
<event>
 7    1  0.2601031E-009  0.1161936E+03  0.7561462E-02  0.1249512E+00
         -2   -1    0    0    0  501 -0.00000000000E+00  0.00000000000E+00  0.29870607445E+02  0.29870607445E+02  0.00000000000E+00 0. -1.
          2   -1    0    0  501    0  0.00000000000E+00 -0.00000000000E+00 -0.58478619507E+03  0.58478619507E+03  0.00000000000E+00 0.  1.
         25    2    1    2    0    0 -0.46595361626E+02 -0.98412237541E+01 -0.16965263499E+03  0.21609374322E+03  0.12508601795E+03 0.  0.
          5    1    3    3  502    0  0.41460123452E+02  0.75918396610E+01 -0.70786674155E+02  0.82491232892E+02  0.41800000000E+01 0. -1.
         -5    1    3    3    0  502 -0.88055485078E+02 -0.17433063415E+02 -0.98865960838E+02  0.13360251032E+03  0.41800000000E+01 0. -1.
        -11    1    1    2    0    0  0.80602187193E+01 -0.37939094641E+02 -0.11316380145E+03  0.11962603390E+03  0.00000000000E+00 0. -1.
         11    1    1    2    0    0  0.38535142907E+02  0.47780318395E+02 -0.27209915118E+03  0.27893702540E+03  0.00000000000E+00 0.  1.
</event>
<event>
 7    1  0.2601031E-009  0.1185303E+03  0.7561462E-02  0.1245541E+00
         -1   -1    0    0    0  501 -0.00000000000E+00  0.00000000000E+00  0.31130965899E+02  0.31130965899E+02  0.00000000000E+00 0.  1.
          1   -1    0    0  501    0  0.00000000000E+00 -0.00000000000E+00 -0.50592353301E+03  0.50592353301E+03  0.00000000000E+00 0. -1.
         25    2    1    2    0    0  0.29426902264E+02 -0.55315506763E+02 -0.24327017494E+03  0.28063115782E+03  0.12509085041E+03 0.  0.
          5    1    3    3  502    0 -0.47370627933E+02 -0.49884475625E+01 -0.90017320003E+02  0.10192865790E+03  0.41800000000E+01 0. -1.
         -5    1    3    3    0  502  0.76797530197E+02 -0.50327059201E+02 -0.15325285494E+03  0.17870249992E+03  0.41800000000E+01 0. -1.
        -11    1    1    2    0    0 -0.14400768673E+02 -0.17681429398E+02 -0.14653781953E+02  0.27106242998E+02  0.00000000000E+00 0.  1.
         11    1    1    2    0    0 -0.15026133591E+02  0.72996936161E+02 -0.21686861022E+03  0.22931709809E+03  0.00000000000E+00 0. -1.
</event>
<event>
 7    1  0.2601031E-009  0.1635343E+03  0.7561462E-02  0.1184763E+00
         -1   -1    0    0    0  501 -0.00000000000E+00  0.00000000000E+00  0.16615405447E+03  0.16615405447E+03  0.00000000000E+00 0.  1.
          1   -1    0    0  501    0  0.00000000000E+00 -0.00000000000E+00 -0.36391095453E+03  0.36391095453E+03  0.00000000000E+00 0. -1.
         25    2    1    2    0    0  0.24931021059E+01 -0.16272727012E+03 -0.26236173362E+03  0.33312167958E+03  0.12509993660E+03 0.  0.
          5    1    3    3  502    0  0.21169795754E+01 -0.88155046721E+01  0.13744181676E+02  0.16987338081E+02  0.41800000000E+01 0. -1.
         -5    1    3    3    0  502  0.37612253046E+00 -0.15391176545E+03 -0.27610591530E+03  0.31613434150E+03  0.41800000000E+01 0. -1.
        -11    1    1    2    0    0 -0.42096745371E+01  0.23226630011E+02  0.51703288254E+02  0.56836851757E+02  0.00000000000E+00 0.  1.
         11    1    1    2    0    0  0.17165724312E+01  0.13950064011E+03  0.12901545304E+02  0.14010647767E+03  0.00000000000E+00 0. -1.
</event>
<event>
 7    1  0.2601031E-009  0.1346368E+03  0.7561462E-02  0.1220733E+00
         -1   -1    0    0    0  501 -0.00000000000E+00  0.00000000000E+00  0.44297617361E+02  0.44297617361E+02  0.00000000000E+00 0.  1.
          1   -1    0    0  501    0  0.00000000000E+00 -0.00000000000E+00 -0.52073492029E+03  0.52073492029E+03  0.00000000000E+00 0. -1.
         25    2    1    2    0    0  0.28035589799E+02  0.98581054779E+02 -0.21448702487E+03  0.26861719272E+03  0.12508514593E+03 0.  0.
          5    1    3    3  502    0  0.31956240897E+01  0.10570416028E+03 -0.21787673220E+03  0.24222164302E+03  0.41800000000E+01 0. -1.
         -5    1    3    3    0  502  0.24839965709E+02 -0.71231055005E+01  0.33897073300E+01  0.26395549704E+02  0.41800000000E+01 0. -1.
        -11    1    1    2    0    0  0.11086147065E+02  0.14126606306E+02 -0.21645095054E+02  0.28124256476E+02  0.00000000000E+00 0.  1.
         11    1    1    2    0    0 -0.39121736863E+02 -0.11270766108E+03 -0.24030518301E+03  0.26829108845E+03  0.00000000000E+00 0. -1.
</event>
<event>
 7    1  0.2601031E-009  0.4150951E+03  0.7561462E-02  0.1038675E+00
         -1   -1    0    0    0  501 -0.00000000000E+00  0.00000000000E+00  0.22470893807E+03  0.22470893807E+03  0.00000000000E+00 0.  1.
          1   -1    0    0  501    0  0.00000000000E+00 -0.00000000000E+00 -0.78996252497E+03  0.78996252497E+03  0.00000000000E+00 0. -1.
         25    2    1    2    0    0  0.28500140205E+03 -0.28542700082E+03 -0.21942250698E+03  0.47590737010E+03  0.12508883395E+03 0.  0.
          5    1    3    3  502    0  0.29237696597E+03 -0.25942168753E+03 -0.21998870509E+03  0.44854922245E+03  0.41800000000E+01 0. -1.
         -5    1    3    3    0  502 -0.73755639225E+01 -0.26005313293E+02  0.56619811327E+00  0.27358147652E+02  0.41800000000E+01 0. -1.
        -11    1    1    2    0    0 -0.13787214579E+03  0.19643428074E+03 -0.18124770225E+03  0.30074222318E+03  0.00000000000E+00 0.  1.
         11    1    1    2    0    0 -0.14712925626E+03  0.88992720083E+02 -0.16458337767E+03  0.23802186975E+03  0.00000000000E+00 0. -1.
</event>
<event>
 7    1  0.2601031E-009  0.5918165E+02  0.7561462E-02  0.1401298E+00
         -2   -1    0    0    0  501 -0.00000000000E+00  0.00000000000E+00  0.11837060921E+03  0.11837060921E+03  0.00000000000E+00 0.  1.
          2   -1    0    0  501    0  0.00000000000E+00 -0.00000000000E+00 -0.12468838599E+03  0.12468838599E+03  0.00000000000E+00 0. -1.
         25    2    1    2    0    0  0.53611612727E+02  0.11585101590E+02 -0.12451092061E+01  0.13659252017E+03  0.12509015418E+03 0.  0.
          5    1    3    3  502    0  0.19944391231E+02 -0.53943046607E+01 -0.61710253065E+02  0.65211233677E+02  0.41800000000E+01 0.  1.
         -5    1    3    3    0  502  0.33667221496E+02  0.16979406251E+02  0.60465143859E+02  0.71381286496E+02  0.41800000000E+01 0.  1.
        -11    1    1    2    0    0 -0.39481378478E+02  0.22832304616E+01  0.40605800064E+02  0.56681772967E+02  0.00000000000E+00 0.  1.
         11    1    1    2    0    0 -0.14130234249E+02 -0.13868332052E+02 -0.45678467639E+02  0.49784702065E+02  0.00000000000E+00 0. -1.
</event>
<event>
 7    1  0.2601031E-009  0.1530025E+03  0.7561462E-02  0.1196831E+00
         -2   -1    0    0    0  501 -0.00000000000E+00  0.00000000000E+00  0.86792163643E+02  0.86792163643E+02  0.00000000000E+00 0.  1.
          2   -1    0    0  501    0  0.00000000000E+00 -0.00000000000E+00 -0.35667018556E+03  0.35667018556E+03  0.00000000000E+00 0. -1.
         25    2    1    2    0    0 -0.43133875967E+02 -0.13005640586E+03 -0.17317875488E+03  0.25379838480E+03  0.12509012360E+03 0.  0.
          5    1    3    3  502    0  0.29317549757E+02 -0.59028586248E+02 -0.18178807550E+02  0.68496964620E+02  0.41800000000E+01 0.  1.
         -5    1    3    3    0  502 -0.72451425724E+02 -0.71027819616E+02 -0.15499994733E+03  0.18530142018E+03  0.41800000000E+01 0.  1.
        -11    1    1    2    0    0  0.27457348302E+02  0.10748715554E+03 -0.26188688194E+02  0.11398790274E+03  0.00000000000E+00 0.  1.
         11    1    1    2    0    0  0.15676527665E+02  0.22569250324E+02 -0.70510578843E+02  0.75676061661E+02  0.00000000000E+00 0. -1.
</event>
<event>
 7    1  0.2601031E-009  0.8189193E+02  0.7561462E-02  0.1323767E+00
          4   -1    0    0  501    0  0.00000000000E+00  0.00000000000E+00  0.39463490088E+03  0.39463490088E+03  0.00000000000E+00 0.  1.
         -4   -1    0    0    0  501 -0.00000000000E+00 -0.00000000000E+00 -0.31616137057E+02  0.31616137057E+02  0.00000000000E+00 0. -1.
         25    2    1    2    0    0 -0.22582868331E+02 -0.11509808384E+02  0.19639538071E+03  0.23422463686E+03  0.12509026069E+03 0.  0.
          5    1    3    3  502    0  0.25871612359E+02  0.20569469999E+02  0.44249215371E+01  0.33607971565E+02  0.41800000000E+01 0. -1.
         -5    1    3    3    0  502 -0.48454480690E+02 -0.32079278384E+02  0.19197045917E+03  0.20061666530E+03  0.41800000000E+01 0. -1.
        -11    1    1    2    0    0  0.66229941851E+01 -0.28432784936E+02  0.13631895971E+03  0.13940999278E+03  0.00000000000E+00 0.  1.
         11    1    1    2    0    0  0.15959874146E+02  0.39942593321E+02  0.30304423412E+02  0.52616408299E+02  0.00000000000E+00 0. -1.
</event>
<event>
 7    1  0.2601031E-009  0.1083502E+03  0.7561462E-02  0.1263656E+00
          2   -1    0    0  501    0  0.00000000000E+00  0.00000000000E+00  0.10889411789E+04  0.10889411789E+04  0.00000000000E+00 0. -1.
         -2   -1    0    0    0  501 -0.00000000000E+00 -0.00000000000E+00 -0.10862161100E+02  0.10862161100E+02  0.00000000000E+00 0.  1.
         25    2    1    2    0    0  0.14400823273E+02  0.19013301201E+00  0.61223509246E+03  0.62504939672E+03  0.12509004772E+03 0.  0.
          5    1    3    3  502    0  0.55059999753E+02 -0.39736165296E+02  0.29853599409E+03  0.30618912223E+03  0.41800000000E+01 0.  1.
         -5    1    3    3    0  502 -0.40659176480E+02  0.39926298308E+02  0.31369909837E+03  0.31886027449E+03  0.41800000000E+01 0.  1.
        -11    1    1    2    0    0  0.38545351759E+02  0.12715785996E+01  0.20034991251E+03  0.20402805811E+03  0.00000000000E+00 0.  1.
         11    1    1    2    0    0 -0.52946175033E+02 -0.14617116117E+01  0.26549401280E+03  0.27072588513E+03  0.00000000000E+00 0. -1.
</event>
<event>
 7    1  0.2601031E-009  0.8600141E+02  0.7561462E-02  0.1312834E+00
         -4   -1    0    0    0  501 -0.00000000000E+00  0.00000000000E+00  0.17365463442E+03  0.17365463442E+03  0.00000000000E+00 0.  1.
          4   -1    0    0  501    0  0.00000000000E+00 -0.00000000000E+00 -0.72859334667E+02  0.72859334667E+02  0.00000000000E+00 0. -1.
         25    2    1    2    0    0  0.17014189123E+02 -0.20982350972E+02  0.39919070121E+02  0.13405113627E+03  0.12508570378E+03 0.  0.
          5    1    3    3  502    0  0.62214937633E+02 -0.36363403453E+02  0.46215294553E+02  0.85710684434E+02  0.41800000000E+01 0.  1.
         -5    1    3    3    0  502 -0.45200748510E+02  0.15381052481E+02 -0.62962244328E+01  0.48340451833E+02  0.41800000000E+01 0.  1.
        -11    1    1    2    0    0  0.30369814396E+01  0.29822817561E+02 -0.14975203926E+02  0.33509408174E+02  0.00000000000E+00 0. -1.
         11    1    1    2    0    0 -0.20051170563E+02 -0.88404665891E+01  0.75851433564E+02  0.78953424651E+02  0.00000000000E+00 0.  1.
</event>
<event>
 7    1  0.2601031E-009  0.8072463E+02  0.7561462E-02  0.1327008E+00
         -4   -1    0    0    0  501 -0.00000000000E+00  0.00000000000E+00  0.24030769620E+03  0.24030769620E+03  0.00000000000E+00 0.  1.
          4   -1    0    0  501    0  0.00000000000E+00 -0.00000000000E+00 -0.61176441313E+02  0.61176441313E+02  0.00000000000E+00 0. -1.
         25    2    1    2    0    0 -0.85152664413E+01  0.35580735938E+02  0.51991172829E+02  0.14031776474E+03  0.12508994570E+03 0.  0.
          5    1    3    3  502    0  0.20650256835E+02  0.32348610388E+02 -0.32698015272E+02  0.50591484502E+02  0.41800000000E+01 0.  1.
         -5    1    3    3    0  502 -0.29165523276E+02  0.32321255497E+01  0.84689188100E+02  0.89726280234E+02  0.41800000000E+01 0.  1.
        -11    1    1    2    0    0  0.28698545499E+01  0.28616025359E+02  0.67450813347E+02  0.73326156272E+02  0.00000000000E+00 0. -1.
         11    1    1    2    0    0  0.56454118913E+01 -0.64196761297E+02  0.59689268715E+02  0.87840216508E+02  0.00000000000E+00 0.  1.
</event>
<event>
 7    1  0.2601031E-009  0.9380679E+02  0.7561462E-02  0.1293886E+00
         -1   -1    0    0    0  501 -0.00000000000E+00  0.00000000000E+00  0.83173407808E+02  0.83173407808E+02  0.00000000000E+00 0.  1.
          1   -1    0    0  501    0  0.00000000000E+00 -0.00000000000E+00 -0.14623962330E+03  0.14623962330E+03  0.00000000000E+00 0. -1.
         25    2    1    2    0    0 -0.39161012911E+01  0.15119089679E+02 -0.52241207981E+02  0.13645741715E+03  0.12509020810E+03 0.  0.
          5    1    3    3  502    0  0.59233273766E+02  0.68524750221E+01 -0.38708187689E+02  0.71213294609E+02  0.41800000000E+01 0. -1.
         -5    1    3    3    0  502 -0.63149375057E+02  0.82666146568E+01 -0.13533020292E+02  0.65244122542E+02  0.41800000000E+01 0. -1.
        -11    1    1    2    0    0  0.81940230615E+01 -0.38949669135E+02 -0.39056484865E+02  0.55764036346E+02  0.00000000000E+00 0. -1.
         11    1    1    2    0    0 -0.42779217703E+01  0.23830579456E+02  0.28231477351E+02  0.37191577612E+02  0.00000000000E+00 0.  1.
</event>
<event>
 7    1  0.2601031E-009  0.5229912E+02  0.7561462E-02  0.1433321E+00
         -1   -1    0    0    0  501 -0.00000000000E+00  0.00000000000E+00  0.60681670830E+03  0.60681670830E+03  0.00000000000E+00 0.  1.
          1   -1    0    0  501    0  0.00000000000E+00 -0.00000000000E+00 -0.24370075807E+02  0.24370075807E+02  0.00000000000E+00 0. -1.
         25    2    1    2    0    0  0.30824866854E+02  0.46901238060E+01  0.44632748349E+03  0.46457320661E+03  0.12509145495E+03 0.  0.
          5    1    3    3  502    0  0.45692644144E+01  0.20859432194E+02  0.42781017104E+03  0.42836317411E+03  0.41800000000E+01 0.  1.
         -5    1    3    3    0  502  0.26255602440E+02 -0.16169308388E+02  0.18517312451E+02  0.36210032500E+02  0.41800000000E+01 0.  1.
        -11    1    1    2    0    0 -0.36565575981E+02 -0.15316549691E+02  0.14582583219E+03  0.15111853419E+03  0.00000000000E+00 0.  1.
         11    1    1    2    0    0  0.57407091270E+01  0.10626425885E+02 -0.97066831940E+01  0.15495043304E+02  0.00000000000E+00 0. -1.
</event>
<event>
 7    1  0.2601031E-009  0.9254062E+02  0.7561462E-02  0.1296813E+00
          3   -1    0    0  501    0  0.00000000000E+00  0.00000000000E+00  0.11022401500E+03  0.11022401500E+03  0.00000000000E+00 0. -1.
         -3   -1    0    0    0  501 -0.00000000000E+00 -0.00000000000E+00 -0.13198389892E+03  0.13198389892E+03  0.00000000000E+00 0.  1.
         25    2    1    2    0    0 -0.40947407318E+01  0.40202191870E+02 -0.46186811742E+02  0.13933370295E+03  0.12509067138E+03 0.  0.
          5    1    3    3  502    0 -0.36519273269E+02  0.38517494227E+01 -0.74266169702E+02  0.82954382981E+02  0.41800000000E+01 0. -1.
         -5    1    3    3    0  502  0.32424532537E+02  0.36350442448E+02  0.28079357960E+02  0.56379319966E+02  0.41800000000E+01 0. -1.
        -11    1    1    2    0    0  0.47166982260E+02 -0.26123324165E+02  0.19309457524E+02  0.57271349126E+02  0.00000000000E+00 0. -1.
         11    1    1    2    0    0 -0.43072241528E+02 -0.14078867706E+02  0.51174702997E+01  0.45602861844E+02  0.00000000000E+00 0.  1.
</event>
<event>
 7    1  0.2601031E-009  0.8960012E+02  0.7561462E-02  0.1303823E+00
          1   -1    0    0  501    0  0.00000000000E+00  0.00000000000E+00  0.22574665773E+02  0.22574665773E+02  0.00000000000E+00 0. -1.
         -1   -1    0    0    0  501 -0.00000000000E+00 -0.00000000000E+00 -0.60062869056E+03  0.60062869056E+03  0.00000000000E+00 0.  1.
         25    2    1    2    0    0  0.22141973862E+02  0.37656901862E+02 -0.38207217321E+03  0.40439504457E+03  0.12509155553E+03 0.  0.
          5    1    3    3  502    0 -0.60667828202E+01  0.78756877311E+02 -0.18765010286E+03  0.20364057817E+03  0.41800000000E+01 0.  1.
         -5    1    3    3    0  502  0.28208756682E+02 -0.41099975448E+02 -0.19442207036E+03  0.20075446639E+03  0.41800000000E+01 0.  1.
        -11    1    1    2    0    0 -0.26441948737E+02 -0.23831039579E+02 -0.20050415382E+03  0.20363941367E+03  0.00000000000E+00 0.  1.
         11    1    1    2    0    0  0.42999748752E+01 -0.13825862283E+02  0.45223022451E+01  0.15168898095E+02  0.00000000000E+00 0. -1.
</event>
<event>
 7    1  0.2601031E-009  0.2030879E+03  0.7561462E-02  0.1147160E+00
          2   -1    0    0  501    0  0.00000000000E+00  0.00000000000E+00  0.53402518142E+03  0.53402518142E+03  0.00000000000E+00 0. -1.
         -2   -1    0    0    0  501 -0.00000000000E+00 -0.00000000000E+00 -0.10311494795E+03  0.10311494795E+03  0.00000000000E+00 0.  1.
         25    2    1    2    0    0  0.16298632901E+03  0.75042291020E+02  0.34347307519E+03  0.40720430567E+03  0.12508278971E+03 0.  0.
          5    1    3    3  502    0  0.13442993015E+02  0.62790610915E+02  0.68871066404E+02  0.94255350341E+02  0.41800000000E+01 0.  1.
         -5    1    3    3    0  502  0.14954333600E+03  0.12251680104E+02  0.27460200879E+03  0.31294895532E+03  0.41800000000E+01 0.  1.
        -11    1    1    2    0    0 -0.11236379948E+03 -0.15272313245E+02  0.99283112703E+02  0.15071829170E+03  0.00000000000E+00 0.  1.
         11    1    1    2    0    0 -0.50622529538E+02 -0.59769977775E+02 -0.11845954428E+02  0.79217532001E+02  0.00000000000E+00 0. -1.
</event>
<event>
 7    1  0.2848046E-009  0.8617710E+02  0.7561462E-02  0.1312383E+00
         -3   -1    0    0    0  501 -0.00000000000E+00  0.00000000000E+00  0.75735055505E+02  0.75735055505E+02  0.00000000000E+00 0.  1.
          3   -1    0    0  501    0  0.00000000000E+00 -0.00000000000E+00 -0.23569694737E+03  0.23569694737E+03  0.00000000000E+00 0. -1.
         25    2    1    2    0    0 -0.14045483169E+02 -0.76698930998E+02 -0.95111512471E+02  0.17541996461E+03  0.12508382216E+03 0.  0.
          5    1    3    3  502    0 -0.17461021942E+02 -0.81586816408E+02 -0.35972628431E+01  0.83616437372E+02  0.41800000000E+01 0. -1.
         -5    1    3    3    0  502  0.34155387728E+01  0.48878854100E+01 -0.91514249628E+02  0.91803527241E+02  0.41800000000E+01 0. -1.
        -11    1    1    2    0    0 -0.56202523445E+01  0.34769880201E+02 -0.79898080898E+02  0.87316866279E+02  0.00000000000E+00 0. -1.
         11    1    1    2    0    0  0.19665735514E+02  0.41929050797E+02  0.15047701503E+02  0.48695171984E+02  0.00000000000E+00 0.  1.
</event>
<event>
 7    1  0.2601031E-009  0.1866644E+03  0.7561462E-02  0.1161505E+00
         -2   -1    0    0    0  501 -0.00000000000E+00  0.00000000000E+00  0.40741187046E+02  0.40741187046E+02  0.00000000000E+00 0. -1.
          2   -1    0    0  501    0  0.00000000000E+00 -0.00000000000E+00 -0.11568460634E+04  0.11568460634E+04  0.00000000000E+00 0.  1.
         25    2    1    2    0    0  0.14835840863E+03  0.51791997496E+02 -0.29772948801E+03  0.35914165485E+03  0.12508897554E+03 0.  0.
          5    1    3    3  502    0  0.13977608381E+03 -0.39259563875E+01 -0.17518908543E+03  0.22419066616E+03  0.41800000000E+01 0. -1.
         -5    1    3    3    0  502  0.85823248189E+01  0.55717953883E+02 -0.12254040258E+03  0.13495098869E+03  0.41800000000E+01 0. -1.
        -11    1    1    2    0    0 -0.15861403666E+03 -0.46107122327E+02 -0.79818432920E+03  0.81509662172E+03  0.00000000000E+00 0.  1.
         11    1    1    2    0    0  0.10255628031E+02 -0.56848751683E+01 -0.20191059179E+02  0.23348973912E+02  0.00000000000E+00 0. -1.
</event>
<event>
 7    1  0.2601031E-009  0.1259926E+03  0.7561462E-02  0.1233526E+00
         -2   -1    0    0    0  501 -0.00000000000E+00  0.00000000000E+00  0.13338070341E+03  0.13338070341E+03  0.00000000000E+00 0.  1.
          2   -1    0    0  501    0  0.00000000000E+00 -0.00000000000E+00 -0.16991075685E+03  0.16991075685E+03  0.00000000000E+00 0. -1.
         25    2    1    2    0    0 -0.83570313924E+02  0.41029589965E+02  0.27645841120E+02  0.15835472719E+03  0.12507798555E+03 0.  0.
          5    1    3    3  502    0 -0.24915292080E+02 -0.42411420778E+02 -0.84446925377E+01  0.50082787700E+02  0.41800000000E+01 0.  1.
         -5    1    3    3    0  502 -0.58655021844E+02  0.83441010742E+02  0.36090533658E+02  0.10827193949E+03  0.41800000000E+01 0.  1.
        -11    1    1    2    0    0  0.63691375774E+02 -0.11162702203E+02  0.71893029432E+01  0.65060612857E+02  0.00000000000E+00 0.  1.
         11    1    1    2    0    0  0.19878938149E+02 -0.29866887761E+02 -0.71365197505E+02  0.79876120220E+02  0.00000000000E+00 0. -1.
</event>
<event>
 7    1  0.2601031E-009  0.1081253E+03  0.7561462E-02  0.1264082E+00
         -2   -1    0    0    0  501 -0.00000000000E+00  0.00000000000E+00  0.71088160231E+02  0.71088160231E+02  0.00000000000E+00 0.  1.
          2   -1    0    0  501    0  0.00000000000E+00 -0.00000000000E+00 -0.20733624508E+03  0.20733624508E+03  0.00000000000E+00 0. -1.
         25    2    1    2    0    0  0.10178833226E+02  0.85567924138E+01 -0.14410236807E+02  0.12661707578E+03  0.12508957435E+03 0.  0.
          5    1    3    3  502    0  0.52047227898E+02  0.45838706052E+02 -0.54996572893E+01  0.69698059762E+02  0.41800000000E+01 0.  1.
         -5    1    3    3    0  502 -0.41868394672E+02 -0.37281913638E+02 -0.89105795175E+01  0.56919016016E+02  0.41800000000E+01 0.  1.
        -11    1    1    2    0    0  0.37059349230E+02 -0.19768278422E+02 -0.55584490504E+02  0.69669331716E+02  0.00000000000E+00 0.  1.
         11    1    1    2    0    0 -0.47238182456E+02  0.11211486008E+02 -0.66253357535E+02  0.82137997814E+02  0.00000000000E+00 0. -1.
</event>
<event>
 7    1  0.2601031E-009  0.7331770E+02  0.7561462E-02  0.1349161E+00
          1   -1    0    0  501    0  0.00000000000E+00  0.00000000000E+00  0.79532302531E+02  0.79532302531E+02  0.00000000000E+00 0. -1.
         -1   -1    0    0    0  501 -0.00000000000E+00 -0.00000000000E+00 -0.19288243408E+03  0.19288243408E+03  0.00000000000E+00 0.  1.
         25    2    1    2    0    0  0.89610080155E+01 -0.51083114392E+02 -0.42152579673E+02  0.14182408998E+03  0.12508976091E+03 0.  0.
          5    1    3    3  502    0  0.11832942613E+01  0.21188856177E+01 -0.77300703219E+02  0.77451668670E+02  0.41800000000E+01 0.  1.
         -5    1    3    3    0  502  0.77777137542E+01 -0.53202000010E+02  0.35148123547E+02  0.64372421309E+02  0.41800000000E+01 0.  1.
        -11    1    1    2    0    0 -0.38334433270E+02  0.14568330508E+02  0.48172314780E+01  0.41291291419E+02  0.00000000000E+00 0. -1.
         11    1    1    2    0    0  0.29373425254E+02  0.36514783884E+02 -0.76014783355E+02  0.89299355215E+02  0.00000000000E+00 0.  1.
</event>
<event>
 7    1  0.2601031E-009  0.1053470E+03  0.7561462E-02  0.1269437E+00
         -2   -1    0    0    0  501 -0.00000000000E+00  0.00000000000E+00  0.98495586437E+02  0.98495586437E+02  0.00000000000E+00 0.  1.
          2   -1    0    0  501    0  0.00000000000E+00 -0.00000000000E+00 -0.12937473671E+03  0.12937473671E+03  0.00000000000E+00 0. -1.
         25    2    1    2    0    0 -0.17030057339E+02 -0.21179427863E+02 -0.35036740757E+02  0.13271529613E+03  0.12508871095E+03 0.  0.
          5    1    3    3  502    0 -0.60048356434E+02  0.21509698359E+02 -0.32989052477E+02  0.71932066683E+02  0.41800000000E+01 0.  1.
         -5    1    3    3    0  502  0.43018299095E+02 -0.42689126222E+02 -0.20476882795E+01  0.60783229446E+02  0.41800000000E+01 0.  1.
        -11    1    1    2    0    0 -0.13352267765E+02  0.45302686007E+02  0.22415552659E+02  0.52278804643E+02  0.00000000000E+00 0.  1.
         11    1    1    2    0    0  0.30382325104E+02 -0.24123258144E+02 -0.18257962170E+02  0.42876222371E+02  0.00000000000E+00 0. -1.
</event>
<event>
 7    1  0.2601031E-009  0.1832441E+03  0.7561462E-02  0.1164700E+00
         -2   -1    0    0    0  501 -0.00000000000E+00  0.00000000000E+00  0.76000594810E+02  0.76000594810E+02  0.00000000000E+00 0.  1.
          2   -1    0    0  501    0  0.00000000000E+00 -0.00000000000E+00 -0.46795679299E+03  0.46795679299E+03  0.00000000000E+00 0. -1.
         25    2    1    2    0    0 -0.75421632971E+02  0.13361668506E+03 -0.21841545102E+03  0.29477891162E+03  0.12508979273E+03 0.  0.
          5    1    3    3  502    0 -0.29022237138E+02 -0.15554902030E+02 -0.77670902776E+02  0.84465891126E+02  0.41800000000E+01 0. -1.
         -5    1    3    3    0  502 -0.46399395833E+02  0.14917158709E+03 -0.14074454824E+03  0.21031302049E+03  0.41800000000E+01 0. -1.
        -11    1    1    2    0    0 -0.97221936502E+01  0.74501609302E+01 -0.22683517681E+02  0.25779214915E+02  0.00000000000E+00 0.  1.
         11    1    1    2    0    0  0.85143826621E+02 -0.14106684599E+03 -0.15085722948E+03  0.22339926127E+03  0.00000000000E+00 0. -1.
</event>
<event>
 7    1  0.2601031E-009  0.2346795E+03  0.7561462E-02  0.1123389E+00
         -2   -1    0    0    0  501 -0.00000000000E+00  0.00000000000E+00  0.34494002446E+02  0.34494002446E+02  0.00000000000E+00 0.  1.
          2   -1    0    0  501    0  0.00000000000E+00 -0.00000000000E+00 -0.17580793894E+04  0.17580793894E+04  0.00000000000E+00 0. -1.
         25    2    1    2    0    0  0.21814368722E+03  0.29815852894E+02 -0.87383050237E+03  0.90978168580E+03  0.12508923050E+03 0.  0.
          5    1    3    3  502    0  0.22362742443E+03  0.35288492279E+02 -0.69965014445E+03  0.73537901770E+03  0.41800000000E+01 0.  1.
         -5    1    3    3    0  502 -0.54837372079E+01 -0.54726393848E+01 -0.17418035793E+03  0.17440266811E+03  0.41800000000E+01 0.  1.
        -11    1    1    2    0    0 -0.22192559303E+03 -0.19084662274E+02 -0.83476804921E+03  0.86397505124E+03  0.00000000000E+00 0.  1.
         11    1    1    2    0    0  0.37819058102E+01 -0.10731190620E+02 -0.14986835364E+02  0.18816654801E+02  0.00000000000E+00 0. -1.
</event>
<event>
 7    1  0.2601031E-009  0.1483867E+03  0.7561462E-02  0.1202470E+00
          2   -1    0    0  501    0  0.00000000000E+00  0.00000000000E+00  0.14597142880E+03  0.14597142880E+03  0.00000000000E+00 0.  1.
         -2   -1    0    0    0  501 -0.00000000000E+00 -0.00000000000E+00 -0.19623815929E+03  0.19623815929E+03  0.00000000000E+00 0. -1.
         25    2    1    2    0    0 -0.12957441520E+03 -0.33117336669E+01 -0.35574683990E+02  0.18360041589E+03  0.12507221082E+03 0.  0.
          5    1    3    3  502    0 -0.10577276839E+03  0.17664223857E+02  0.29313876424E+02  0.11125052399E+03  0.41800000000E+01 0.  1.
         -5    1    3    3    0  502 -0.23801646814E+02 -0.20975957524E+02 -0.64888560414E+02  0.72349891898E+02  0.41800000000E+01 0.  1.
        -11    1    1    2    0    0 -0.79346733991E+01 -0.16707425022E+02  0.22054087928E+01  0.18626887039E+02  0.00000000000E+00 0.  1.
         11    1    1    2    0    0  0.13750908860E+03  0.20019158689E+02 -0.16897455294E+02  0.13998228516E+03  0.00000000000E+00 0. -1.
</event>
<event>
 7    1  0.2601031E-009  0.9104067E+02  0.7561462E-02  0.1300351E+00
         -3   -1    0    0    0  501 -0.00000000000E+00  0.00000000000E+00  0.76055133045E+02  0.76055133045E+02  0.00000000000E+00 0.  1.
          3   -1    0    0  501    0  0.00000000000E+00 -0.00000000000E+00 -0.19913131460E+03  0.19913131460E+03  0.00000000000E+00 0. -1.
         25    2    1    2    0    0 -0.34959546969E+02 -0.44391510930E+02 -0.82988235835E+02  0.16039837196E+03  0.12509122381E+03 0.  0.
          5    1    3    3  502    0 -0.48608830602E+02 -0.39856429592E+02 -0.11157124337E+03  0.12812871708E+03  0.41800000000E+01 0. -1.
         -5    1    3    3    0  502  0.13649283633E+02 -0.45350813389E+01  0.28583007540E+02  0.32269654886E+02  0.41800000000E+01 0. -1.
        -11    1    1    2    0    0  0.57799305170E+02  0.42940597481E+01 -0.78302168334E+01  0.58485134204E+02  0.00000000000E+00 0.  1.
         11    1    1    2    0    0 -0.22839758201E+02  0.40097451182E+02 -0.32257728887E+02  0.56302941477E+02  0.00000000000E+00 0. -1.
</event>
<event>
 7    1  0.2601031E-009  0.1228699E+03  0.7561462E-02  0.1238436E+00
         -1   -1    0    0    0  501 -0.00000000000E+00  0.00000000000E+00  0.10586320472E+03  0.10586320472E+03  0.00000000000E+00 0.  1.
          1   -1    0    0  501    0  0.00000000000E+00 -0.00000000000E+00 -0.15331582492E+03  0.15331582492E+03  0.00000000000E+00 0. -1.
         25    2    1    2    0    0 -0.61620068880E+02  0.24116449111E+01  0.47001789515E+00  0.13946766857E+03  0.12509260866E+03 0.  0.
          5    1    3    3  502    0 -0.89519714891E+02  0.33389588810E+02 -0.10352034420E+02  0.96193975964E+02  0.41800000000E+01 0. -1.
         -5    1    3    3    0  502  0.27899646011E+02 -0.30977943899E+02  0.10822052315E+02  0.43273692609E+02  0.41800000000E+01 0. -1.
        -11    1    1    2    0    0  0.78457475995E+01  0.39346997161E+02 -0.27459043735E+02  0.48618319838E+02  0.00000000000E+00 0.  1.
         11    1    1    2    0    0  0.53774321281E+02 -0.41758642072E+02 -0.20463594363E+02  0.71093041229E+02  0.00000000000E+00 0. -1.
</event>
<event>
 7    1  0.2601031E-009  0.1128841E+03  0.7561462E-02  0.1255320E+00
          1   -1    0    0  501    0  0.00000000000E+00  0.00000000000E+00  0.10280502461E+03  0.10280502461E+03  0.00000000000E+00 0. -1.
         -1   -1    0    0    0  501 -0.00000000000E+00 -0.00000000000E+00 -0.19606322045E+03  0.19606322045E+03  0.00000000000E+00 0.  1.
         25    2    1    2    0    0  0.57281153185E+02 -0.50807088964E+02  0.59047025522E+01  0.14678130660E+03  0.12508955055E+03 0.  0.
          5    1    3    3  502    0  0.95106794276E+02 -0.39641783406E+02  0.19314361798E+02  0.10491563411E+03  0.41800000000E+01 0. -1.
         -5    1    3    3    0  502 -0.37825641091E+02 -0.11165305559E+02 -0.13409659246E+02  0.41865672493E+02  0.41800000000E+01 0. -1.
        -11    1    1    2    0    0 -0.99099920811E+01 -0.38728197666E+01  0.14116148993E+02  0.17676887123E+02  0.00000000000E+00 0. -1.
         11    1    1    2    0    0 -0.47371161104E+02  0.54679908731E+02 -0.11327904739E+03  0.13441005134E+03  0.00000000000E+00 0.  1.
</event>
<event>
 7    1  0.2601031E-009  0.5269229E+02  0.7561462E-02  0.1431338E+00
         -2   -1    0    0    0  501 -0.00000000000E+00  0.00000000000E+00  0.38443497424E+02  0.38443497424E+02  0.00000000000E+00 0.  1.
          2   -1    0    0  501    0  0.00000000000E+00 -0.00000000000E+00 -0.33225091370E+03  0.33225091370E+03  0.00000000000E+00 0. -1.
         25    2    1    2    0    0  0.96809232809E+01 -0.31826949291E+02 -0.16500613879E+03  0.20971856071E+03  0.12509266122E+03 0.  0.
          5    1    3    3  502    0 -0.19668711508E+01 -0.17560336554E+02 -0.18284217164E+03  0.18374157432E+03  0.41800000000E+01 0. -1.
         -5    1    3    3    0  502  0.11647794432E+02 -0.14266612737E+02  0.17836032851E+02  0.25976986392E+02  0.41800000000E+01 0. -1.
        -11    1    1    2    0    0  0.11384568919E+02 -0.13916494425E+02  0.44525724867E+01  0.18523029673E+02  0.00000000000E+00 0.  1.
         11    1    1    2    0    0 -0.21065492200E+02  0.45743443715E+02 -0.13325384997E+03  0.14245282074E+03  0.00000000000E+00 0. -1.
</event>
<event>
 7    1  0.2601031E-009  0.1196051E+03  0.7561462E-02  0.1243750E+00
          2   -1    0    0  501    0  0.00000000000E+00  0.00000000000E+00  0.13867466164E+03  0.13867466164E+03  0.00000000000E+00 0. -1.
         -2   -1    0    0    0  501 -0.00000000000E+00 -0.00000000000E+00 -0.18293967792E+03  0.18293967792E+03  0.00000000000E+00 0.  1.
         25    2    1    2    0    0 -0.80991797148E+02  0.63144643815E+01  0.60319815214E+02  0.16088455315E+03  0.12508323497E+03 0.  0.
          5    1    3    3  502    0 -0.29164880999E+02  0.56106475140E+02 -0.51429930152E+01  0.63580261194E+02  0.41800000000E+01 0. -1.
         -5    1    3    3    0  502 -0.51826916149E+02 -0.49792010758E+02  0.65462808229E+02  0.97304291961E+02  0.41800000000E+01 0. -1.
        -11    1    1    2    0    0  0.28141673689E+02  0.28901169048E+02 -0.85301361246E+02  0.94358643488E+02  0.00000000000E+00 0. -1.
         11    1    1    2    0    0  0.52850123459E+02 -0.35215633429E+02 -0.19283470242E+02  0.66371142917E+02  0.00000000000E+00 0.  1.
</event>
<event>
 7    1  0.2854805E-009  0.1641042E+03  0.7561462E-02  0.1184140E+00
         -2   -1    0    0    0  501 -0.00000000000E+00  0.00000000000E+00  0.26524491518E+02  0.26524491518E+02  0.00000000000E+00 0.  1.
          2   -1    0    0  501    0  0.00000000000E+00 -0.00000000000E+00 -0.12943558496E+04  0.12943558496E+04  0.00000000000E+00 0. -1.
         25    2    1    2    0    0  0.11072785030E+03 -0.95433062145E+02 -0.54679463858E+03  0.57965310595E+03  0.12508085495E+03 0.  0.
          5    1    3    3  502    0  0.56743197663E+02 -0.12634837075E+02 -0.38947854373E+03  0.39381523335E+03  0.41800000000E+01 0. -1.
         -5    1    3    3    0  502  0.53984652639E+02 -0.82798225070E+02 -0.15731609485E+03  0.18583787261E+03  0.41800000000E+01 0. -1.
        -11    1    1    2    0    0 -0.10069497065E+02  0.65086753627E+02 -0.31395394564E+03  0.32078771837E+03  0.00000000000E+00 0. -1.
         11    1    1    2    0    0 -0.10065835324E+03  0.30346308518E+02 -0.40708277382E+03  0.42043951677E+03  0.00000000000E+00 0.  1.
</event>
<event>
 7    1  0.2601031E-009  0.1075327E+03  0.7561462E-02  0.1265208E+00
         -2   -1    0    0    0  501 -0.00000000000E+00  0.00000000000E+00  0.14300007143E+03  0.14300007143E+03  0.00000000000E+00 0.  1.
          2   -1    0    0  501    0  0.00000000000E+00 -0.00000000000E+00 -0.13470081257E+03  0.13470081257E+03  0.00000000000E+00 0. -1.
         25    2    1    2    0    0  0.57642031054E+02  0.34695858628E+02  0.59377761073E+02  0.15394124924E+03  0.12508310580E+03 0.  0.
          5    1    3    3  502    0 -0.93744345772E+01 -0.36926633352E+02 -0.16173179413E+01  0.38360714171E+02  0.41800000000E+01 0.  1.
         -5    1    3    3    0  502  0.67016465631E+02  0.71622491980E+02  0.60995079014E+02  0.11558053507E+03  0.41800000000E+01 0.  1.
        -11    1    1    2    0    0 -0.39390824222E+02 -0.35235708193E-01 -0.69950075579E+02  0.80278585862E+02  0.00000000000E+00 0.  1.
         11    1    1    2    0    0 -0.18251206832E+02 -0.34660622919E+02  0.18871573359E+02  0.43481048895E+02  0.00000000000E+00 0. -1.
</event>
<event>
 7    1  0.2601031E-009  0.7686188E+02  0.7561462E-02  0.1338200E+00
         -1   -1    0    0    0  501 -0.00000000000E+00  0.00000000000E+00  0.12111432728E+03  0.12111432728E+03  0.00000000000E+00 0.  1.
          1   -1    0    0  501    0  0.00000000000E+00 -0.00000000000E+00 -0.11855512067E+03  0.11855512067E+03  0.00000000000E+00 0. -1.
         25    2    1    2    0    0 -0.44184834489E+02  0.16752851690E+02  0.14302188724E+02  0.13448016278E+03  0.12508958366E+03 0.  0.
          5    1    3    3  502    0 -0.17942174060E+02 -0.12634788816E+01 -0.55046053554E+02  0.58060816398E+02  0.41800000000E+01 0.  1.
         -5    1    3    3    0  502 -0.26242660429E+02  0.18016330572E+02  0.69348242278E+02  0.76419346377E+02  0.41800000000E+01 0.  1.
        -11    1    1    2    0    0  0.45380333369E+02 -0.51353499886E+02  0.30339459886E+00  0.68532099454E+02  0.00000000000E+00 0.  1.
         11    1    1    2    0    0 -0.11954988799E+01  0.34600648196E+02 -0.12046376711E+02  0.36657185721E+02  0.00000000000E+00 0. -1.
</event>
<event>
 7    1  0.2601031E-009  0.1139060E+03  0.7561462E-02  0.1253503E+00
          2   -1    0    0  501    0  0.00000000000E+00  0.00000000000E+00  0.67548628490E+03  0.67548628490E+03  0.00000000000E+00 0.  1.
         -2   -1    0    0    0  501 -0.00000000000E+00 -0.00000000000E+00 -0.30015022148E+02  0.30015022148E+02  0.00000000000E+00 0. -1.
         25    2    1    2    0    0  0.51010600487E+02 -0.55495742690E+02  0.22705437767E+03  0.26997187776E+03  0.12509702453E+03 0.  0.
          5    1    3    3  502    0  0.18221803572E+02  0.31388577189E+02  0.17058368432E+02  0.40320432004E+02  0.41800000000E+01 0.  1.
         -5    1    3    3    0  502  0.32788796915E+02 -0.86884319879E+02  0.20999600924E+03  0.22965144576E+03  0.41800000000E+01 0.  1.
        -11    1    1    2    0    0 -0.66084038961E+02  0.44984663076E+02  0.40490237619E+03  0.41271861403E+03  0.00000000000E+00 0.  1.
         11    1    1    2    0    0  0.15073438474E+02  0.10511079613E+02  0.13514508884E+02  0.22810815252E+02  0.00000000000E+00 0. -1.
</event>
<event>
 7    1  0.2601031E-009  0.1252705E+03  0.7561462E-02  0.1234647E+00
         -1   -1    0    0    0  501 -0.00000000000E+00  0.00000000000E+00  0.22022358737E+02  0.22022358737E+02  0.00000000000E+00 0.  1.
          1   -1    0    0  501    0  0.00000000000E+00 -0.00000000000E+00 -0.74229473902E+03  0.74229473902E+03  0.00000000000E+00 0. -1.
         25    2    1    2    0    0 -0.56441807934E+02 -0.34936294624E+02 -0.44331547387E+03  0.46538110994E+03  0.12507895806E+03 0.  0.
          5    1    3    3  502    0  0.17939540743E+02 -0.59357223560E+02 -0.16827863967E+03  0.17938862862E+03  0.41800000000E+01 0. -1.
         -5    1    3    3    0  502 -0.74381348677E+02  0.24420928936E+02 -0.27503683420E+03  0.28599248131E+03  0.41800000000E+01 0. -1.
        -11    1    1    2    0    0  0.28764441855E+02 -0.28677816087E+02 -0.73498130847E+02  0.83974909876E+02  0.00000000000E+00 0.  1.
         11    1    1    2    0    0  0.27677366079E+02  0.63614110712E+02 -0.20345877557E+03  0.21496107794E+03  0.00000000000E+00 0. -1.
</event>
<event>
 7    1  0.2601031E-009  0.2898654E+03  0.7561462E-02  0.1090419E+00
         -2   -1    0    0    0  501 -0.00000000000E+00  0.00000000000E+00  0.30009246077E+03  0.30009246077E+03  0.00000000000E+00 0.  1.
          2   -1    0    0  501    0  0.00000000000E+00 -0.00000000000E+00 -0.31613449652E+03  0.31613449652E+03  0.00000000000E+00 0. -1.
         25    2    1    2    0    0 -0.75909019541E+01  0.28523080924E+03 -0.47373952642E+02  0.31512818372E+03  0.12508894617E+03 0.  0.
          5    1    3    3  502    0  0.50696526606E+01  0.12005465099E+02 -0.39129124546E+02  0.41453508393E+02  0.41800000000E+01 0. -1.
         -5    1    3    3    0  502 -0.12660554615E+02  0.27322534414E+03 -0.82448280954E+01  0.27367467533E+03  0.41800000000E+01 0. -1.
        -11    1    1    2    0    0 -0.28575216176E+02 -0.13087849249E+03 -0.17772230383E+02  0.13513539487E+03  0.00000000000E+00 0.  1.
         11    1    1    2    0    0  0.36166118130E+02 -0.15435231675E+03  0.49104147277E+02  0.16596337869E+03  0.00000000000E+00 0. -1.
</event>
<event>
 7    1  0.2601031E-009  0.4224989E+02  0.7561462E-02  0.1492279E+00
          1   -1    0    0  501    0  0.00000000000E+00  0.00000000000E+00  0.12794489912E+03  0.12794489912E+03  0.00000000000E+00 0. -1.
         -1   -1    0    0    0  501 -0.00000000000E+00 -0.00000000000E+00 -0.11267725543E+03  0.11267725543E+03  0.00000000000E+00 0.  1.
         25    2    1    2    0    0  0.62602314584E+01 -0.44723401198E+01  0.94793289315E+02  0.15714364790E+03  0.12509662687E+03 0.  0.
          5    1    3    3  502    0 -0.18601489118E+02 -0.23458755488E+02 -0.21207343023E+02  0.36926310465E+02  0.41800000000E+01 0.  1.
         -5    1    3    3    0  502  0.24861720576E+02  0.18986415368E+02  0.11600063234E+03  0.12021733744E+03  0.41800000000E+01 0.  1.
        -11    1    1    2    0    0 -0.97174078681E+01 -0.61765025559E+01 -0.58852946397E+02  0.59968712668E+02  0.00000000000E+00 0. -1.
         11    1    1    2    0    0  0.34571764097E+01  0.10648842676E+02 -0.20672699234E+02  0.23509793974E+02  0.00000000000E+00 0.  1.
</event>
<event>
 7    1  0.2601031E-009  0.2425649E+03  0.7561462E-02  0.1118096E+00
         -3   -1    0    0    0  501 -0.00000000000E+00  0.00000000000E+00  0.97418638787E+02  0.97418638787E+02  0.00000000000E+00 0.  1.
          3   -1    0    0  501    0  0.00000000000E+00 -0.00000000000E+00 -0.63774916356E+03  0.63774916356E+03  0.00000000000E+00 0. -1.
         25    2    1    2    0    0 -0.20550251135E+03  0.74800464650E+02 -0.35008218801E+03  0.43131384459E+03  0.12509077698E+03 0.  0.
          5    1    3    3  502    0  0.13907784997E+02  0.18242497147E+02 -0.50940605057E+02  0.56023502473E+02  0.41800000000E+01 0.  1.
         -5    1    3    3    0  502 -0.21941029634E+03  0.56557967503E+02 -0.29914158296E+03  0.37529034211E+03  0.41800000000E+01 0.  1.
        -11    1    1    2    0    0  0.18546574383E+03 -0.32371981738E+02 -0.16617685670E+03  0.25111797037E+03  0.00000000000E+00 0.  1.
         11    1    1    2    0    0  0.20036767514E+02 -0.42428482912E+02 -0.24071480058E+02  0.52735987397E+02  0.00000000000E+00 0. -1.
</event>
<event>
 7    1  0.2601031E-009  0.1072400E+03  0.7561462E-02  0.1265768E+00
          3   -1    0    0  501    0  0.00000000000E+00  0.00000000000E+00  0.54179715226E+02  0.54179715226E+02  0.00000000000E+00 0. -1.
         -3   -1    0    0    0  501 -0.00000000000E+00 -0.00000000000E+00 -0.27230089922E+03  0.27230089922E+03  0.00000000000E+00 0.  1.
         25    2    1    2    0    0  0.95751561142E+01 -0.39602918231E+02 -0.72939201318E+02  0.15042588594E+03  0.12509094822E+03 0.  0.
          5    1    3    3  502    0 -0.49049057345E+02  0.52024906578E+01 -0.45088167903E+01  0.49705912770E+02  0.41800000000E+01 0. -1.
         -5    1    3    3    0  502  0.58624213459E+02 -0.44805408888E+02 -0.68430384528E+02  0.10071997317E+03  0.41800000000E+01 0. -1.
        -11    1    1    2    0    0  0.34106961354E+02  0.32801876334E+01 -0.22877562518E+02  0.41199846000E+02  0.00000000000E+00 0. -1.
         11    1    1    2    0    0 -0.43682117468E+02  0.36322730597E+02 -0.12230442015E+03  0.13485488250E+03  0.00000000000E+00 0.  1.
</event>
<event>
 7    1  0.2601031E-009  0.2803156E+03  0.7561462E-02  0.1095517E+00
          2   -1    0    0  501    0  0.00000000000E+00  0.00000000000E+00  0.14316874649E+04  0.14316874649E+04  0.00000000000E+00 0. -1.
         -2   -1    0    0    0  501 -0.00000000000E+00 -0.00000000000E+00 -0.20563498169E+03  0.20563498169E+03  0.00000000000E+00 0.  1.
         25    2    1    2    0    0  0.26548566940E+03 -0.77872480345E+02  0.13014598603E+04  0.13364103527E+04  0.12509236202E+03 0.  0.
          5    1    3    3  502    0  0.18542208669E+03 -0.24561145901E+02  0.10614075323E+04  0.10777699300E+04  0.41800000000E+01 0.  1.
         -5    1    3    3    0  502  0.80063582712E+02 -0.53311334444E+02  0.24005232804E+03  0.25864042270E+03  0.41800000000E+01 0.  1.
        -11    1    1    2    0    0 -0.35198318163E+02  0.40391600508E+01  0.20294793854E+02  0.40830320510E+02  0.00000000000E+00 0. -1.
         11    1    1    2    0    0 -0.23028735124E+03  0.73833320294E+02 -0.95702170921E+02  0.26008177338E+03  0.00000000000E+00 0.  1.
</event>
<event>
 7    1  0.2601031E-009  0.1214644E+03  0.7561462E-02  0.1240701E+00
         -2   -1    0    0    0  501 -0.00000000000E+00  0.00000000000E+00  0.38271974142E+02  0.38271974142E+02  0.00000000000E+00 0. -1.
          2   -1    0    0  501    0  0.00000000000E+00 -0.00000000000E+00 -0.59364861561E+03  0.59364861561E+03  0.00000000000E+00 0.  1.
         25    2    1    2    0    0 -0.84407828280E+02  0.14573813512E+02 -0.17609826396E+03  0.23236579715E+03  0.12508472168E+03 0.  0.
          5    1    3    3  502    0 -0.60145334333E+02  0.64879923176E+02 -0.14022860532E+03  0.16585656400E+03  0.41800000000E+01 0. -1.
         -5    1    3    3    0  502 -0.24262493947E+02 -0.50306109665E+02 -0.35869658645E+02  0.66509233145E+02  0.41800000000E+01 0. -1.
        -11    1    1    2    0    0  0.75989520130E+02  0.58978421080E+01 -0.36576305039E+03  0.37361986128E+03  0.00000000000E+00 0.  1.
         11    1    1    2    0    0  0.84183081500E+01 -0.20471655620E+02 -0.13515327115E+02  0.25934931327E+02  0.00000000000E+00 0. -1.
</event>
<event>
 7    1  0.2601031E-009  0.2040785E+03  0.7561462E-02  0.1146343E+00
          3   -1    0    0  501    0  0.00000000000E+00  0.00000000000E+00  0.50476162088E+02  0.50476162088E+02  0.00000000000E+00 0. -1.
         -3   -1    0    0    0  501 -0.00000000000E+00 -0.00000000000E+00 -0.10308613738E+04  0.10308613738E+04  0.00000000000E+00 0.  1.
         25    2    1    2    0    0 -0.98854717008E+02 -0.17634205336E+03 -0.50543569142E+03  0.55855365800E+03  0.12509266900E+03 0.  0.
          5    1    3    3  502    0 -0.96664543034E+02 -0.14520420412E+03 -0.49581766631E+03  0.52562431964E+03  0.41800000000E+01 0.  1.
         -5    1    3    3    0  502 -0.21901739738E+01 -0.31137849243E+02 -0.96180251146E+01  0.32929338356E+02  0.41800000000E+01 0.  1.
        -11    1    1    2    0    0  0.35521993380E+02  0.65884671853E+02 -0.88551340778E+02  0.11594801401E+03  0.00000000000E+00 0. -1.
         11    1    1    2    0    0  0.63332723628E+02  0.11045738151E+03 -0.38639817952E+03  0.40683586389E+03  0.00000000000E+00 0.  1.
</event>
<event>
 7    1  0.2601031E-009  0.1314651E+03  0.7561462E-02  0.1225298E+00
          2   -1    0    0  501    0  0.00000000000E+00  0.00000000000E+00  0.59301873323E+03  0.59301873323E+03  0.00000000000E+00 0. -1.
         -2   -1    0    0    0  501 -0.00000000000E+00 -0.00000000000E+00 -0.38837171470E+02  0.38837171470E+02  0.00000000000E+00 0.  1.
         25    2    1    2    0    0 -0.63920853025E+02  0.77558027956E+02  0.22829845749E+03  0.27905290750E+03  0.12509682787E+03 0.  0.
          5    1    3    3  502    0 -0.31553802661E+02  0.89420768856E+02  0.72517551882E+02  0.11944866720E+03  0.41800000000E+01 0. -1.
         -5    1    3    3    0  502 -0.32367050364E+02 -0.11862740901E+02  0.15578090561E+03  0.15960424030E+03  0.41800000000E+01 0. -1.
        -11    1    1    2    0    0  0.15269734820E+02 -0.82946191583E+02  0.17672716521E+03  0.19582064861E+03  0.00000000000E+00 0.  1.
         11    1    1    2    0    0  0.48651118205E+02  0.53881636271E+01  0.14915593906E+03  0.15698234858E+03  0.00000000000E+00 0. -1.
</event>
<event>
 7    1  0.2601031E-009  0.8046244E+02  0.7561462E-02  0.1327744E+00
         -1   -1    0    0    0  501 -0.00000000000E+00  0.00000000000E+00  0.21902455382E+02  0.21902455382E+02  0.00000000000E+00 0.  1.
          1   -1    0    0  501    0  0.00000000000E+00 -0.00000000000E+00 -0.83872399537E+03  0.83872399537E+03  0.00000000000E+00 0. -1.
         25    2    1    2    0    0  0.76368654288E+01 -0.21042839038E+02 -0.69506227413E+03  0.70658319292E+03  0.12508845193E+03 0.  0.
          5    1    3    3  502    0 -0.21059452427E+01 -0.44906450283E+02 -0.66593814576E+03  0.66746693601E+03  0.41800000000E+01 0. -1.
         -5    1    3    3    0  502  0.97428106714E+01  0.23863611245E+02 -0.29124128368E+02  0.39116256909E+02  0.41800000000E+01 0. -1.
        -11    1    1    2    0    0  0.25310204519E+02  0.43122290273E+02 -0.43361983334E+02  0.66184590124E+02  0.00000000000E+00 0.  1.
         11    1    1    2    0    0 -0.32947069948E+02 -0.22079451235E+02 -0.78397282523E+02  0.87858667712E+02  0.00000000000E+00 0. -1.
</event>
<event>
 7    1  0.2601031E-009  0.2102131E+03  0.7561462E-02  0.1141397E+00
          2   -1    0    0  501    0  0.00000000000E+00  0.00000000000E+00  0.98988627726E+02  0.98988627726E+02  0.00000000000E+00 0. -1.
         -2   -1    0    0    0  501 -0.00000000000E+00 -0.00000000000E+00 -0.52299923032E+03  0.52299923032E+03  0.00000000000E+00 0.  1.
         25    2    1    2    0    0  0.64842841220E+02 -0.18154080454E+03 -0.14920499512E+03  0.27399265184E+03  0.12509270531E+03 0.  0.
          5    1    3    3  502    0  0.36826680131E+02 -0.18233942055E+02 -0.88171310033E+02  0.97367003268E+02  0.41800000000E+01 0. -1.
         -5    1    3    3    0  502  0.28016161089E+02 -0.16330686249E+03 -0.61033685085E+02  0.17662564857E+03  0.41800000000E+01 0. -1.
        -11    1    1    2    0    0 -0.80440223793E+02  0.90812179902E+02 -0.16212890287E+03  0.20249262398E+03  0.00000000000E+00 0.  1.
         11    1    1    2    0    0  0.15597382573E+02  0.90728624642E+02 -0.11267670460E+03  0.14550258222E+03  0.00000000000E+00 0. -1.
</event>
<event>
 7    1  0.2601031E-009  0.1036509E+03  0.7561462E-02  0.1272801E+00
          2   -1    0    0  501    0  0.00000000000E+00  0.00000000000E+00  0.19123022155E+03  0.19123022155E+03  0.00000000000E+00 0. -1.
         -2   -1    0    0    0  501 -0.00000000000E+00 -0.00000000000E+00 -0.86916699615E+02  0.86916699615E+02  0.00000000000E+00 0.  1.
         25    2    1    2    0    0  0.40080824995E+02  0.25021501361E+02  0.11391737337E+03  0.17566307972E+03  0.12509117298E+03 0.  0.
          5    1    3    3  502    0 -0.45079783219E+02  0.16281536907E+01  0.38288029038E+02  0.59315118707E+02  0.41800000000E+01 0. -1.
         -5    1    3    3    0  502  0.85160608214E+02  0.23393347670E+02  0.75629344336E+02  0.11634796101E+03  0.41800000000E+01 0. -1.
        -11    1    1    2    0    0  0.14554664846E+02 -0.57852441917E+01 -0.35676716372E+02  0.38963257182E+02  0.00000000000E+00 0.  1.
         11    1    1    2    0    0 -0.54635489840E+02 -0.19236257169E+02  0.26072864935E+02  0.63520584269E+02  0.00000000000E+00 0. -1.
</event>
<event>
 7    1  0.2601031E-009  0.1896372E+03  0.7561462E-02  0.1158789E+00
         -1   -1    0    0    0  501 -0.00000000000E+00  0.00000000000E+00  0.38688713778E+02  0.38688713778E+02  0.00000000000E+00 0.  1.
          1   -1    0    0  501    0  0.00000000000E+00 -0.00000000000E+00 -0.11191481763E+04  0.11191481763E+04  0.00000000000E+00 0. -1.
         25    2    1    2    0    0  0.31507975470E+02 -0.16638937393E+03 -0.70220329951E+03  0.73308617126E+03  0.12509070460E+03 0.  0.
          5    1    3    3  502    0  0.13127874817E+02  0.17142472092E+02 -0.39835949480E+02  0.45503634115E+02  0.41800000000E+01 0.  1.
         -5    1    3    3    0  502  0.18380100653E+02 -0.18353184602E+03 -0.66236735003E+03  0.68758253714E+03  0.41800000000E+01 0.  1.
        -11    1    1    2    0    0 -0.25455665194E+02  0.48807703137E+02 -0.44334611111E+02  0.70680552618E+02  0.00000000000E+00 0.  1.
         11    1    1    2    0    0 -0.60523102758E+01  0.11758167079E+03 -0.33392155186E+03  0.35407016616E+03  0.00000000000E+00 0. -1.
</event>
<event>
 7    1  0.2601031E-009  0.9698479E+02  0.7561462E-02  0.1286767E+00
          2   -1    0    0  501    0  0.00000000000E+00  0.00000000000E+00  0.26192685618E+02  0.26192685618E+02  0.00000000000E+00 0.  1.
         -2   -1    0    0    0  501 -0.00000000000E+00 -0.00000000000E+00 -0.47957466860E+03  0.47957466860E+03  0.00000000000E+00 0. -1.
         25    2    1    2    0    0 -0.15033618380E+02 -0.39356847534E+01 -0.31664049006E+03  0.34080929400E+03  0.12509306790E+03 0.  0.
          5    1    3    3  502    0 -0.22989232055E+02  0.57175810084E+02 -0.12441547240E+03  0.13890378045E+03  0.41800000000E+01 0. -1.
         -5    1    3    3    0  502  0.79556136749E+01 -0.61111494837E+02 -0.19222501765E+03  0.20190551355E+03  0.41800000000E+01 0. -1.
        -11    1    1    2    0    0 -0.20481108864E+02 -0.19180104307E+02 -0.76417996902E+01  0.29081769616E+02  0.00000000000E+00 0.  1.
         11    1    1    2    0    0  0.35514727244E+02  0.23115789060E+02 -0.12909969324E+03  0.13587629061E+03  0.00000000000E+00 0. -1.
</event>
<event>
 7    1  0.2601031E-009  0.7702689E+02  0.7561462E-02  0.1337707E+00
          1   -1    0    0  501    0  0.00000000000E+00  0.00000000000E+00  0.98682484623E+03  0.98682484623E+03  0.00000000000E+00 0. -1.
         -1   -1    0    0    0  501 -0.00000000000E+00 -0.00000000000E+00 -0.17461824164E+02  0.17461824164E+02  0.00000000000E+00 0.  1.
         25    2    1    2    0    0  0.52605151376E+02 -0.28151673188E+02  0.70398607230E+03  0.71749612953E+03  0.12507792464E+03 0.  0.
          5    1    3    3  502    0  0.28328626643E+02 -0.33554600216E+02  0.68279499457E+02  0.81289511804E+02  0.41800000000E+01 0. -1.
         -5    1    3    3    0  502  0.24276524733E+02  0.54029270276E+01  0.63570657285E+03  0.63620661772E+03  0.41800000000E+01 0. -1.
        -11    1    1    2    0    0 -0.32585089289E+02 -0.15957247869E+02  0.21045330060E+03  0.21355798636E+03  0.00000000000E+00 0. -1.
         11    1    1    2    0    0 -0.20020062086E+02  0.44108921058E+02  0.54923649159E+02  0.73232554508E+02  0.00000000000E+00 0.  1.
</event>
<event>
 7    1  0.2601031E-009  0.8219254E+02  0.7561462E-02  0.1322942E+00
         -2   -1    0    0    0  501 -0.00000000000E+00  0.00000000000E+00  0.58148212301E+02  0.58148212301E+02  0.00000000000E+00 0.  1.
          2   -1    0    0  501    0  0.00000000000E+00 -0.00000000000E+00 -0.35857107771E+03  0.35857107771E+03  0.00000000000E+00 0. -1.
         25    2    1    2    0    0  0.29330883632E+02 -0.49864664531E+02 -0.27067392854E+03  0.30373997552E+03  0.12508721612E+03 0.  0.
          5    1    3    3  502    0  0.44973671483E+01 -0.43085279677E+02 -0.13959958333E+02  0.45704709525E+02  0.41800000000E+01 0. -1.
         -5    1    3    3    0  502  0.24833516483E+02 -0.67793848545E+01 -0.25671397021E+03  0.25803526600E+03  0.41800000000E+01 0. -1.
        -11    1    1    2    0    0 -0.49971876784E+02  0.11588235010E+02  0.12014075266E+02  0.52685991159E+02  0.00000000000E+00 0.  1.
         11    1    1    2    0    0  0.20640993152E+02  0.38276429521E+02 -0.41763012135E+02  0.60293323326E+02  0.00000000000E+00 0. -1.
</event>
<event>
 7    1  0.2601031E-009  0.1637911E+03  0.7561462E-02  0.1184482E+00
         -2   -1    0    0    0  501 -0.00000000000E+00  0.00000000000E+00  0.33238683158E+02  0.33238683158E+02  0.00000000000E+00 0.  1.
          2   -1    0    0  501    0  0.00000000000E+00 -0.00000000000E+00 -0.12059827717E+04  0.12059827717E+04  0.00000000000E+00 0. -1.
         25    2    1    2    0    0 -0.12908467723E+03  0.70437499659E+02 -0.86224396938E+03  0.88359357422E+03  0.12509454991E+03 0.  0.
          5    1    3    3  502    0 -0.98425478961E+02  0.93139078385E+02 -0.46108479526E+03  0.48060287520E+03  0.41800000000E+01 0. -1.
         -5    1    3    3    0  502 -0.30659198267E+02 -0.22701578726E+02 -0.40115917412E+03  0.40299069902E+03  0.41800000000E+01 0. -1.
        -11    1    1    2    0    0  0.72314164403E+02 -0.63872651371E+02 -0.26672707881E+03  0.28364130259E+03  0.00000000000E+00 0. -1.
         11    1    1    2    0    0  0.56770512826E+02 -0.65648482886E+01 -0.43773040400E+02  0.71986578092E+02  0.00000000000E+00 0.  1.
</event>
<event>
 7    1  0.2601031E-009  0.5444635E+02  0.7561462E-02  0.1422735E+00
          1   -1    0    0  501    0  0.00000000000E+00  0.00000000000E+00  0.19469885588E+03  0.19469885588E+03  0.00000000000E+00 0. -1.
         -1   -1    0    0    0  501 -0.00000000000E+00 -0.00000000000E+00 -0.78862455959E+02  0.78862455959E+02  0.00000000000E+00 0.  1.
         25    2    1    2    0    0  0.12611066466E+02 -0.22043876855E+02  0.12499077118E+03  0.17864521146E+03  0.12508575936E+03 0.  0.
          5    1    3    3  502    0  0.20456901045E+02 -0.29845001572E+02  0.14819235158E+03  0.15260293046E+03  0.41800000000E+01 0.  1.
         -5    1    3    3    0  502 -0.78458345792E+01  0.78011247170E+01 -0.23201580395E+02  0.26042281005E+02  0.41800000000E+01 0.  1.
        -11    1    1    2    0    0 -0.13062156803E+01 -0.18502638086E+02 -0.39087455052E+02  0.43265262717E+02  0.00000000000E+00 0.  1.
         11    1    1    2    0    0 -0.11304850786E+02  0.40546514941E+02  0.29933083790E+02  0.51650837654E+02  0.00000000000E+00 0. -1.
</event>
<event>
 7    1  0.2601031E-009  0.9537070E+02  0.7561462E-02  0.1290343E+00
          2   -1    0    0  501    0  0.00000000000E+00  0.00000000000E+00  0.15203766368E+03  0.15203766368E+03  0.00000000000E+00 0. -1.
         -2   -1    0    0    0  501 -0.00000000000E+00 -0.00000000000E+00 -0.80796743470E+02  0.80796743470E+02  0.00000000000E+00 0.  1.
         25    2    1    2    0    0 -0.19656426095E+02  0.13000842740E+02  0.55188372471E+02  0.13873832806E+03  0.12508864943E+03 0.  0.
          5    1    3    3  502    0 -0.47046803248E+02  0.56597797469E+02  0.20495850045E+02  0.76513166471E+02  0.41800000000E+01 0. -1.
         -5    1    3    3    0  502  0.27390377154E+02 -0.43596954729E+02  0.34692522426E+02  0.62225161587E+02  0.41800000000E+01 0. -1.
        -11    1    1    2    0    0  0.37804864058E+02 -0.23390578687E+02  0.41735039306E+02  0.60976556344E+02  0.00000000000E+00 0. -1.
         11    1    1    2    0    0 -0.18148437963E+02  0.10389735947E+02 -0.25682491571E+02  0.33119522744E+02  0.00000000000E+00 0.  1.
</event>
<event>
 7    1  0.2601031E-009  0.1121022E+03  0.7561462E-02  0.1256726E+00
         -2   -1    0    0    0  501 -0.00000000000E+00  0.00000000000E+00  0.14853736565E+02  0.14853736565E+02  0.00000000000E+00 0.  1.
          2   -1    0    0  501    0  0.00000000000E+00 -0.00000000000E+00 -0.90203346410E+03  0.90203346410E+03  0.00000000000E+00 0. -1.
         25    2    1    2    0    0  0.29262258999E+02  0.12424607370E+02 -0.61692423328E+03  0.63028029417E+03  0.12508832453E+03 0.  0.
          5    1    3    3  502    0  0.78517170637E+02  0.33632161604E+01 -0.36375660410E+03  0.37217280494E+03  0.41800000000E+01 0.  1.
         -5    1    3    3    0  502 -0.49254911637E+02  0.90613912092E+01 -0.25316762918E+03  0.25810748923E+03  0.41800000000E+01 0.  1.
        -11    1    1    2    0    0  0.32583820871E+02 -0.47452880448E+01 -0.85347573750E+02  0.91479131425E+02  0.00000000000E+00 0.  1.
         11    1    1    2    0    0 -0.61846079871E+02 -0.76793193248E+01 -0.18490792051E+03  0.19512777508E+03  0.00000000000E+00 0. -1.
</event>
<event>
 7    1  0.2601031E-009  0.1562512E+03  0.7561462E-02  0.1192995E+00
         -1   -1    0    0    0  501 -0.00000000000E+00  0.00000000000E+00  0.29768612012E+03  0.29768612012E+03  0.00000000000E+00 0. -1.
          1   -1    0    0  501    0  0.00000000000E+00 -0.00000000000E+00 -0.92791846678E+02  0.92791846678E+02  0.00000000000E+00 0.  1.
         25    2    1    2    0    0 -0.44147675315E+02  0.10479146930E+03  0.45331201731E+02  0.17502877880E+03  0.12509950554E+03 0.  0.
          5    1    3    3  502    0 -0.39890301131E+02  0.13303148765E+03  0.45367652751E+02  0.14616534865E+03  0.41800000000E+01 0.  1.
         -5    1    3    3    0  502 -0.42573741838E+01 -0.28240018351E+02 -0.36451019851E-01  0.28863430151E+02  0.41800000000E+01 0.  1.
        -11    1    1    2    0    0 -0.27298254581E+02 -0.38745109875E+02  0.49018292351E+02  0.68184831358E+02  0.00000000000E+00 0. -1.
         11    1    1    2    0    0  0.71445929895E+02 -0.66046359424E+02  0.11054477936E+03  0.14726435664E+03  0.00000000000E+00 0.  1.
</event>
<event>
 7    1  0.2601031E-009  0.2043460E+03  0.7561462E-02  0.1146123E+00
         -2   -1    0    0    0  501 -0.00000000000E+00  0.00000000000E+00  0.74234274813E+02  0.74234274813E+02  0.00000000000E+00 0.  1.
          2   -1    0    0  501    0  0.00000000000E+00 -0.00000000000E+00 -0.84638825109E+03  0.84638825109E+03  0.00000000000E+00 0. -1.
         25    2    1    2    0    0 -0.14730493000E+03  0.10366134467E+03 -0.64816327630E+03  0.68425796208E+03  0.12509560001E+03 0.  0.
          5    1    3    3  502    0 -0.10979669488E+03  0.12073645003E+02 -0.44081077041E+03  0.45445868329E+03  0.41800000000E+01 0.  1.
         -5    1    3    3    0  502 -0.37508235122E+02  0.91587699664E+02 -0.20735250589E+03  0.22979927879E+03  0.41800000000E+01 0.  1.
        -11    1    1    2    0    0 -0.76937718195E+01 -0.23229799500E+02 -0.47915382877E+01  0.24935447636E+02  0.00000000000E+00 0.  1.
         11    1    1    2    0    0  0.15499870182E+03 -0.80431545167E+02 -0.11919916169E+03  0.21142911619E+03  0.00000000000E+00 0. -1.
</event>
<event>
 7    1  0.2601031E-009  0.1039300E+03  0.7561462E-02  0.1272242E+00
         -4   -1    0    0    0  501 -0.00000000000E+00  0.00000000000E+00  0.36806465788E+03  0.36806465788E+03  0.00000000000E+00 0.  1.
          4   -1    0    0  501    0  0.00000000000E+00 -0.00000000000E+00 -0.38823424962E+02  0.38823424962E+02  0.00000000000E+00 0. -1.
         25    2    1    2    0    0  0.32998459937E+02 -0.39131522311E+02  0.20962922615E+03  0.24942425429E+03  0.12509145364E+03 0.  0.
          5    1    3    3  502    0 -0.36808351068E+02  0.20822175326E+02  0.76947733901E+02  0.87902467805E+02  0.41800000000E+01 0. -1.
         -5    1    3    3    0  502  0.69806811006E+02 -0.59953697637E+02  0.13268149225E+03  0.16152178649E+03  0.41800000000E+01 0. -1.
        -11    1    1    2    0    0  0.13572018388E+02  0.20617078650E+01 -0.85370130813E+01  0.16165732733E+02  0.00000000000E+00 0. -1.
         11    1    1    2    0    0 -0.46570478326E+02  0.37069814446E+02  0.12814901985E+03  0.14129809582E+03  0.00000000000E+00 0.  1.
</event>
<event>
 7    1  0.2601031E-009  0.8823314E+02  0.7561462E-02  0.1307188E+00
         -1   -1    0    0    0  501 -0.00000000000E+00  0.00000000000E+00  0.70015554470E+02  0.70015554470E+02  0.00000000000E+00 0.  1.
          1   -1    0    0  501    0  0.00000000000E+00 -0.00000000000E+00 -0.22384336188E+03  0.22384336188E+03  0.00000000000E+00 0. -1.
         25    2    1    2    0    0  0.41570034933E+02  0.47640436784E+02 -0.77927764303E+02  0.16036747156E+03  0.12508921002E+03 0.  0.
          5    1    3    3  502    0  0.10853591088E+02  0.27295347995E+02  0.32425432435E+02  0.43951308630E+02  0.41800000000E+01 0.  1.
         -5    1    3    3    0  502  0.30716443845E+02  0.20345088790E+02 -0.11035319674E+03  0.11641616293E+03  0.41800000000E+01 0.  1.
        -11    1    1    2    0    0 -0.42838247273E+02  0.16247703721E+02 -0.34478789838E+02  0.57340127784E+02  0.00000000000E+00 0. -1.
         11    1    1    2    0    0  0.12682123402E+01 -0.63888140505E+02 -0.41421253268E+02  0.76151317008E+02  0.00000000000E+00 0.  1.
</event>
<event>
 7    1  0.2601031E-009  0.1659457E+03  0.7561462E-02  0.1182143E+00
         -1   -1    0    0    0  501 -0.00000000000E+00  0.00000000000E+00  0.47937272086E+03  0.47937272086E+03  0.00000000000E+00 0.  1.
          1   -1    0    0  501    0  0.00000000000E+00 -0.00000000000E+00 -0.14391854143E+03  0.14391854143E+03  0.00000000000E+00 0. -1.
         25    2    1    2    0    0  0.52459041781E+02  0.14093616041E+03 -0.48077059171E+02  0.20142991959E+03  0.12509059322E+03 0.  0.
          5    1    3    3  502    0  0.38768224908E+02  0.46437165472E+02 -0.80250229054E+02  0.10058308637E+03  0.41800000000E+01 0.  1.
         -5    1    3    3    0  502  0.13690816873E+02  0.94498994938E+02  0.32173169883E+02  0.10084683322E+03  0.41800000000E+01 0.  1.
        -11    1    1    2    0    0  0.18276109256E+02 -0.80778774505E+02  0.18426823163E+03  0.20202477018E+03  0.00000000000E+00 0.  1.
         11    1    1    2    0    0 -0.70735151037E+02 -0.60157385905E+02  0.19926300697E+03  0.21983657252E+03  0.00000000000E+00 0. -1.
</event>
<event>
 7    1  0.2601031E-009  0.2546120E+03  0.7561462E-02  0.1110424E+00
          2   -1    0    0  501    0  0.00000000000E+00  0.00000000000E+00  0.64829438634E+03  0.64829438634E+03  0.00000000000E+00 0. -1.
         -2   -1    0    0    0  501 -0.00000000000E+00 -0.00000000000E+00 -0.18165479354E+03  0.18165479354E+03  0.00000000000E+00 0.  1.
         25    2    1    2    0    0 -0.21307274187E+03 -0.12753417431E+03  0.49140710527E+03  0.56461721515E+03  0.12508676026E+03 0.  0.
          5    1    3    3  502    0 -0.29235811582E+02 -0.40384642776E+02  0.21873598802E+03  0.22438484108E+03  0.41800000000E+01 0.  1.
         -5    1    3    3    0  502 -0.18383693029E+03 -0.87149531535E+02  0.27267111724E+03  0.34023237407E+03  0.41800000000E+01 0.  1.
        -11    1    1    2    0    0  0.22899065428E+01  0.18024377471E+02 -0.21000370527E+02  0.27769361128E+02  0.00000000000E+00 0.  1.
         11    1    1    2    0    0  0.21078283533E+03  0.10950979684E+03 -0.37671419412E+01  0.23756260361E+03  0.00000000000E+00 0. -1.
</event>
<event>
 7    1  0.2601031E-009  0.1483412E+03  0.7561462E-02  0.1202526E+00
          1   -1    0    0  501    0  0.00000000000E+00  0.00000000000E+00  0.13715539210E+04  0.13715539210E+04  0.00000000000E+00 0. -1.
         -1   -1    0    0    0  501 -0.00000000000E+00 -0.00000000000E+00 -0.32807301104E+02  0.32807301104E+02  0.00000000000E+00 0.  1.
         25    2    1    2    0    0 -0.11830578060E+03  0.10812240605E+02  0.11475713670E+04  0.11604651358E+04  0.12508447827E+03 0.  0.
          5    1    3    3  502    0 -0.19322748807E+02  0.49370396809E+02  0.62077502447E+03  0.62304888099E+03  0.41800000000E+01 0. -1.
         -5    1    3    3    0  502 -0.98983031789E+02 -0.38558156204E+02  0.52679634255E+03  0.53741625479E+03  0.41800000000E+01 0. -1.
        -11    1    1    2    0    0  0.91766667523E+02 -0.37885044706E+02  0.83445173565E+02  0.12968999527E+03  0.00000000000E+00 0.  1.
         11    1    1    2    0    0  0.26539113073E+02  0.27072804101E+02  0.10773007931E+03  0.11420609105E+03  0.00000000000E+00 0. -1.
</event>
<event>
 7    1  0.2601031E-009  0.1254082E+03  0.7561462E-02  0.1234433E+00
          2   -1    0    0  501    0  0.00000000000E+00  0.00000000000E+00  0.61424374822E+03  0.61424374822E+03  0.00000000000E+00 0. -1.
         -2   -1    0    0    0  501 -0.00000000000E+00 -0.00000000000E+00 -0.26632470583E+02  0.26632470583E+02  0.00000000000E+00 0.  1.
         25    2    1    2    0    0 -0.59108537213E+02  0.24599098141E+02  0.26884016008E+03  0.30335234145E+03  0.12509467051E+03 0.  0.
          5    1    3    3  502    0 -0.14999162122E+02  0.72790877964E+02  0.12871208953E+03  0.14868678883E+03  0.41800000000E+01 0.  1.
         -5    1    3    3    0  502 -0.44109375092E+02 -0.48191779822E+02  0.14012807054E+03  0.15466555262E+03  0.41800000000E+01 0.  1.
        -11    1    1    2    0    0  0.44508724006E+02 -0.58789502336E+02  0.21519777937E+03  0.22748036474E+03  0.00000000000E+00 0.  1.
         11    1    1    2    0    0  0.14599813207E+02  0.34190404195E+02  0.10357333819E+03  0.11004351261E+03  0.00000000000E+00 0. -1.
</event>
<event>
 7    1  0.2601031E-009  0.1091203E+03  0.7561462E-02  0.1262208E+00
         -1   -1    0    0    0  501 -0.00000000000E+00  0.00000000000E+00  0.54134728060E+03  0.54134728060E+03  0.00000000000E+00 0.  1.
          1   -1    0    0  501    0  0.00000000000E+00 -0.00000000000E+00 -0.26562544223E+02  0.26562544223E+02  0.00000000000E+00 0. -1.
         25    2    1    2    0    0  0.67095072031E+02  0.12008320648E+02  0.34985346612E+03  0.37774452023E+03  0.12509007296E+03 0.  0.
          5    1    3    3  502    0 -0.16794920318E+02  0.36553122031E+02  0.20139130024E+03  0.20541209383E+03  0.41800000000E+01 0. -1.
         -5    1    3    3    0  502  0.83889992350E+02 -0.24544801383E+02  0.14846216587E+03  0.17233242639E+03  0.41800000000E+01 0. -1.
        -11    1    1    2    0    0 -0.42377755822E+02  0.22392618673E+02  0.58587965666E+02  0.75695794338E+02  0.00000000000E+00 0.  1.
         11    1    1    2    0    0 -0.24717316209E+02 -0.34400939321E+02  0.10634330460E+03  0.11446951026E+03  0.00000000000E+00 0. -1.
</event>
<event>
 7    1  0.2601031E-009  0.1283372E+03  0.7561462E-02  0.1229944E+00
         -2   -1    0    0    0  501 -0.00000000000E+00  0.00000000000E+00  0.10509608667E+03  0.10509608667E+03  0.00000000000E+00 0.  1.
          2   -1    0    0  501    0  0.00000000000E+00 -0.00000000000E+00 -0.22701109916E+03  0.22701109916E+03  0.00000000000E+00 0. -1.
         25    2    1    2    0    0 -0.10552700360E+03  0.85718645630E+01 -0.31898378046E+02  0.16695470444E+03  0.12508773506E+03 0.  0.
          5    1    3    3  502    0 -0.69476101385E+02 -0.40948852399E+02  0.23664174035E+02  0.84149882408E+02  0.41800000000E+01 0.  1.
         -5    1    3    3    0  502 -0.36050902211E+02  0.49520716962E+02 -0.55562552080E+02  0.82804822035E+02  0.41800000000E+01 0.  1.
        -11    1    1    2    0    0  0.20173777399E+02  0.15951345650E+02  0.13267492720E+02  0.28938781689E+02  0.00000000000E+00 0.  1.
         11    1    1    2    0    0  0.85353226197E+02 -0.24523210213E+02 -0.10328412716E+03  0.13621369970E+03  0.00000000000E+00 0. -1.
</event>
<event>
 7    1  0.2601031E-009  0.1341082E+03  0.7561462E-02  0.1221484E+00
         -2   -1    0    0    0  501 -0.00000000000E+00  0.00000000000E+00  0.32352909222E+02  0.32352909222E+02  0.00000000000E+00 0.  1.
          2   -1    0    0  501    0  0.00000000000E+00 -0.00000000000E+00 -0.84707160269E+03  0.84707160269E+03  0.00000000000E+00 0. -1.
         25    2    1    2    0    0 -0.87264448764E+02 -0.56734837673E+02 -0.25411995028E+03  0.30176573168E+03  0.12510668191E+03 0.  0.
          5    1    3    3  502    0 -0.13545566887E+02 -0.54691986672E+02 -0.20600302594E+03  0.21361042784E+03  0.41800000000E+01 0.  1.
         -5    1    3    3    0  502 -0.73718881876E+02 -0.20428510006E+01 -0.48116924348E+02  0.88155303834E+02  0.41800000000E+01 0.  1.
        -11    1    1    2    0    0  0.50082335656E+01 -0.22852834457E+02 -0.13108987119E+03  0.13316113838E+03  0.00000000000E+00 0.  1.
         11    1    1    2    0    0  0.82256215198E+02  0.79587672130E+02 -0.42950887199E+03  0.44449764186E+03  0.00000000000E+00 0. -1.
</event>
<event>
 7    1  0.2601031E-009  0.1065771E+03  0.7561462E-02  0.1267043E+00
         -3   -1    0    0    0  501 -0.00000000000E+00  0.00000000000E+00  0.29758046894E+03  0.29758046894E+03  0.00000000000E+00 0.  1.
          3   -1    0    0  501    0  0.00000000000E+00 -0.00000000000E+00 -0.56197419522E+02  0.56197419522E+02  0.00000000000E+00 0. -1.
         25    2    1    2    0    0 -0.21642625517E+02  0.42563852682E+02  0.61319038958E+02  0.14726940891E+03  0.12509264354E+03 0.  0.
          5    1    3    3  502    0 -0.18512850020E+02  0.75937009716E+02  0.11667318252E+01  0.78281471138E+02  0.41800000000E+01 0.  1.
         -5    1    3    3    0  502 -0.31297754966E+01 -0.33373157034E+02  0.60152307133E+02  0.68987937775E+02  0.41800000000E+01 0.  1.
        -11    1    1    2    0    0 -0.80674371365E+01 -0.63974505363E+02  0.11583963087E+03  0.13257692468E+03  0.00000000000E+00 0.  1.
         11    1    1    2    0    0  0.29710062654E+02  0.21410652682E+02  0.64224379596E+02  0.73931554870E+02  0.00000000000E+00 0. -1.
</event>
<event>
 7    1  0.2601031E-009  0.6849651E+02  0.7561462E-02  0.1365282E+00
          1   -1    0    0  501    0  0.00000000000E+00  0.00000000000E+00  0.37215340493E+03  0.37215340493E+03  0.00000000000E+00 0. -1.
         -1   -1    0    0    0  501 -0.00000000000E+00 -0.00000000000E+00 -0.36903632801E+02  0.36903632801E+02  0.00000000000E+00 0.  1.
         25    2    1    2    0    0  0.33906631666E+02  0.28029645190E+02  0.16257594048E+03  0.20979508392E+03  0.12509084753E+03 0.  0.
          5    1    3    3  502    0 -0.18240146144E+02  0.62333330527E+01  0.15058006594E+03  0.15186634266E+03  0.41800000000E+01 0.  1.
         -5    1    3    3    0  502  0.52146777810E+02  0.21796312138E+02  0.11995874535E+02  0.57928741265E+02  0.41800000000E+01 0.  1.
        -11    1    1    2    0    0 -0.32970540648E+02 -0.42265997522E+00  0.16805058087E+03  0.17125487708E+03  0.00000000000E+00 0. -1.
         11    1    1    2    0    0 -0.93609101761E+00 -0.27606985215E+02  0.46232507762E+01  0.28007076727E+02  0.00000000000E+00 0.  1.
</event>
<event>
 7    1  0.2601031E-009  0.1229185E+03  0.7561462E-02  0.1238359E+00
         -3   -1    0    0    0  501 -0.00000000000E+00  0.00000000000E+00  0.10516733390E+03  0.10516733390E+03  0.00000000000E+00 0.  1.
          3   -1    0    0  501    0  0.00000000000E+00 -0.00000000000E+00 -0.15215045568E+03  0.15215045568E+03  0.00000000000E+00 0. -1.
         25    2    1    2    0    0  0.69771135367E+02  0.16019908553E+02 -0.30227477506E+02  0.14726283421E+03  0.12509193876E+03 0.  0.
          5    1    3    3  502    0  0.98762755218E+02  0.32345072467E+02 -0.29736828956E+01  0.10405095252E+03  0.41800000000E+01 0. -1.
         -5    1    3    3    0  502 -0.28991619851E+02 -0.16325163914E+02 -0.27253794611E+02  0.43211881689E+02  0.41800000000E+01 0. -1.
        -11    1    1    2    0    0 -0.14295541617E+00 -0.35887546893E+02 -0.10425872335E+02  0.37371583753E+02  0.00000000000E+00 0. -1.
         11    1    1    2    0    0 -0.69628179951E+02  0.19867638340E+02 -0.63297719296E+01  0.72683371614E+02  0.00000000000E+00 0.  1.
</event>
<event>
 7    1  0.2601031E-009  0.1088193E+03  0.7561462E-02  0.1262772E+00
         -2   -1    0    0    0  501 -0.00000000000E+00  0.00000000000E+00  0.88443204738E+02  0.88443204738E+02  0.00000000000E+00 0.  1.
          2   -1    0    0  501    0  0.00000000000E+00 -0.00000000000E+00 -0.26071119163E+03  0.26071119163E+03  0.00000000000E+00 0. -1.
         25    2    1    2    0    0 -0.30292935859E+02  0.97332733659E+02 -0.58614979657E+02  0.17167898352E+03  0.12508650822E+03 0.  0.
          5    1    3    3  502    0 -0.20077750818E+02  0.81221090044E+02  0.23716610059E+02  0.87062802267E+02  0.41800000000E+01 0.  1.
         -5    1    3    3    0  502 -0.10215185041E+02  0.16111643615E+02 -0.82331589717E+02  0.84616181258E+02  0.41800000000E+01 0.  1.
        -11    1    1    2    0    0  0.17384426180E+02 -0.12899438347E+01  0.10214896933E+02  0.20204612049E+02  0.00000000000E+00 0.  1.
         11    1    1    2    0    0  0.12908509679E+02 -0.96042789824E+02 -0.12386790417E+03  0.15727080079E+03  0.00000000000E+00 0. -1.
</event>
<event>
 7    1  0.2601031E-009  0.1236342E+03  0.7561462E-02  0.1237219E+00
          1   -1    0    0  501    0  0.00000000000E+00  0.00000000000E+00  0.23278105860E+03  0.23278105860E+03  0.00000000000E+00 0. -1.
         -1   -1    0    0    0  501 -0.00000000000E+00 -0.00000000000E+00 -0.13979376758E+03  0.13979376758E+03  0.00000000000E+00 0.  1.
         25    2    1    2    0    0  0.19701701084E+02 -0.12027274196E+03  0.12870059458E+03  0.21694436083E+03  0.12508926079E+03 0.  0.
          5    1    3    3  502    0  0.26572378805E+02 -0.99067658649E+02  0.18342975739E+02  0.10428053253E+03  0.41800000000E+01 0. -1.
         -5    1    3    3    0  502 -0.68706777210E+01 -0.21205083311E+02  0.11035761884E+03  0.11266382830E+03  0.41800000000E+01 0. -1.
        -11    1    1    2    0    0 -0.74667487875E+01  0.57307426068E+02 -0.63382316712E+02  0.85774188960E+02  0.00000000000E+00 0.  1.
         11    1    1    2    0    0 -0.12234952297E+02  0.62965315892E+02  0.27669013153E+02  0.69856276396E+02  0.00000000000E+00 0. -1.
</event>
<event>
 7    1  0.2601031E-009  0.1825909E+03  0.7561462E-02  0.1165319E+00
          1   -1    0    0  501    0  0.00000000000E+00  0.00000000000E+00  0.34044447333E+02  0.34044447333E+02  0.00000000000E+00 0. -1.
         -1   -1    0    0    0  501 -0.00000000000E+00 -0.00000000000E+00 -0.11686448684E+04  0.11686448684E+04  0.00000000000E+00 0.  1.
         25    2    1    2    0    0  0.12891782831E+03  0.10669455585E+03 -0.61311983544E+03  0.64773842794E+03  0.12508238773E+03 0.  0.
          5    1    3    3  502    0  0.43349949729E+02 -0.14003132666E+01 -0.43172260092E+02  0.61339183726E+02  0.41800000000E+01 0.  1.
         -5    1    3    3    0  502  0.85567878580E+02  0.10809486912E+03 -0.56994757534E+03  0.58639924421E+03  0.41800000000E+01 0.  1.
        -11    1    1    2    0    0 -0.17831837548E+02 -0.61019868505E+02 -0.25235859017E+03  0.26024268831E+03  0.00000000000E+00 0.  1.
         11    1    1    2    0    0 -0.11108599076E+03 -0.45674687347E+02 -0.26912199550E+03  0.29470819953E+03  0.00000000000E+00 0. -1.
</event>
<event>
 7    1  0.2601031E-009  0.1071665E+03  0.7561462E-02  0.1265909E+00
         -2   -1    0    0    0  501 -0.00000000000E+00  0.00000000000E+00  0.53452688575E+02  0.53452688575E+02  0.00000000000E+00 0.  1.
          2   -1    0    0  501    0  0.00000000000E+00 -0.00000000000E+00 -0.30273029671E+03  0.30273029671E+03  0.00000000000E+00 0. -1.
         25    2    1    2    0    0 -0.11066363249E+02  0.63412997896E+02 -0.11853488933E+03  0.18396156206E+03  0.12509062167E+03 0.  0.
          5    1    3    3  502    0 -0.97782370820E+01  0.98474481059E+02 -0.10917567413E+03  0.14740976074E+03  0.41800000000E+01 0.  1.
         -5    1    3    3    0  502 -0.12881261666E+01 -0.35061483162E+02 -0.93592152019E+01  0.36551801320E+02  0.41800000000E+01 0.  1.
        -11    1    1    2    0    0 -0.18772571429E+02 -0.26796669522E+02 -0.11918365503E+03  0.12359293896E+03  0.00000000000E+00 0. -1.
         11    1    1    2    0    0  0.29838934678E+02 -0.36616328374E+02 -0.11559063779E+02  0.48628484264E+02  0.00000000000E+00 0.  1.
</event>
<event>
 7    1  0.2601031E-009  0.8099953E+02  0.7561462E-02  0.1326239E+00
         -3   -1    0    0    0  501 -0.00000000000E+00  0.00000000000E+00  0.39475274995E+03  0.39475274995E+03  0.00000000000E+00 0.  1.
          3   -1    0    0  501    0  0.00000000000E+00 -0.00000000000E+00 -0.54418988459E+02  0.54418988459E+02  0.00000000000E+00 0. -1.
         25    2    1    2    0    0  0.37658684764E+02 -0.16535214044E+02  0.61054525382E+02  0.14513464335E+03  0.12507925403E+03 0.  0.
          5    1    3    3  502    0  0.27079231735E+02 -0.42446450418E+01 -0.36677377341E+02  0.45978301529E+02  0.41800000000E+01 0. -1.
         -5    1    3    3    0  502  0.10579453029E+02 -0.12290569002E+02  0.97731902723E+02  0.99156341817E+02  0.41800000000E+01 0. -1.
        -11    1    1    2    0    0  0.39026826903E+02  0.11448854367E+02  0.68258693720E+02  0.79457024565E+02  0.00000000000E+00 0. -1.
         11    1    1    2    0    0 -0.76685511667E+02  0.50863596766E+01  0.21102054239E+03  0.22458007050E+03  0.00000000000E+00 0.  1.
</event>
<event>
 7    1  0.2601031E-009  0.6116156E+02  0.7561462E-02  0.1393021E+00
          3   -1    0    0  501    0  0.00000000000E+00  0.00000000000E+00  0.15705294487E+03  0.15705294487E+03  0.00000000000E+00 0. -1.
         -3   -1    0    0    0  501 -0.00000000000E+00 -0.00000000000E+00 -0.10542466139E+03  0.10542466139E+03  0.00000000000E+00 0.  1.
         25    2    1    2    0    0  0.52942102309E+02 -0.20223876904E+02  0.71318832756E+02  0.15474623604E+03  0.12509256681E+03 0.  0.
          5    1    3    3  502    0  0.90261534949E+01  0.51880906456E+01  0.97054573520E+02  0.97700820737E+02  0.41800000000E+01 0.  1.
         -5    1    3    3    0  502  0.43915948814E+02 -0.25411967550E+02 -0.25735740764E+02  0.57045415308E+02  0.41800000000E+01 0.  1.
        -11    1    1    2    0    0 -0.21953091030E+02  0.19237613901E+02 -0.54064101257E+02  0.61440630198E+02  0.00000000000E+00 0.  1.
         11    1    1    2    0    0 -0.30989011279E+02  0.98626300248E+00  0.34373551983E+02  0.46290740010E+02  0.00000000000E+00 0. -1.
</event>
<event>
 7    1  0.2601031E-009  0.9054239E+02  0.7561462E-02  0.1301544E+00
         -1   -1    0    0    0  501 -0.00000000000E+00  0.00000000000E+00  0.34040756475E+03  0.34040756475E+03  0.00000000000E+00 0.  1.
          1   -1    0    0  501    0  0.00000000000E+00 -0.00000000000E+00 -0.53635920255E+02  0.53635920255E+02  0.00000000000E+00 0. -1.
         25    2    1    2    0    0  0.10829814144E+02 -0.72500284111E+02  0.20439975493E+03  0.25060076436E+03  0.12509159528E+03 0.  0.
          5    1    3    3  502    0 -0.25370011350E+02 -0.15555024713E+01  0.15425415501E+03  0.15639013333E+03  0.41800000000E+01 0.  1.
         -5    1    3    3    0  502  0.36199825494E+02 -0.70944781640E+02  0.50145599919E+02  0.94210631030E+02  0.41800000000E+01 0.  1.
        -11    1    1    2    0    0  0.50516702677E+01  0.24321691562E+02  0.88891198310E+02  0.92296853629E+02  0.00000000000E+00 0.  1.
         11    1    1    2    0    0 -0.15881484412E+02  0.48178592549E+02 -0.65193087419E+01  0.51145867023E+02  0.00000000000E+00 0. -1.
</event>
<event>
 7    1  0.2601031E-009  0.2637495E+03  0.7561462E-02  0.1104911E+00
         -2   -1    0    0    0  501 -0.00000000000E+00  0.00000000000E+00  0.70727822935E+03  0.70727822935E+03  0.00000000000E+00 0.  1.
          2   -1    0    0  501    0  0.00000000000E+00 -0.00000000000E+00 -0.13264016627E+03  0.13264016627E+03  0.00000000000E+00 0. -1.
         25    2    1    2    0    0 -0.21222552323E+03 -0.13249745526E+03  0.10263925901E+03  0.29795576089E+03  0.12509024580E+03 0.  0.
          5    1    3    3  502    0 -0.96919981738E+01  0.12418432105E+02 -0.15313993550E+02  0.22363878979E+02  0.41800000000E+01 0.  1.
         -5    1    3    3    0  502 -0.20253352506E+03 -0.14491588737E+03  0.11795325256E+03  0.27559188191E+03  0.41800000000E+01 0.  1.
        -11    1    1    2    0    0  0.10073952890E+03  0.10855921623E+03  0.31336287738E+03  0.34659753178E+03  0.00000000000E+00 0.  1.
         11    1    1    2    0    0  0.11148599433E+03  0.23938239031E+02  0.15863592669E+03  0.19536510296E+03  0.00000000000E+00 0. -1.
</event>
<event>
 7    1  0.2601031E-009  0.9345421E+02  0.7561462E-02  0.1294696E+00
         -2   -1    0    0    0  501 -0.00000000000E+00  0.00000000000E+00  0.10467253712E+03  0.10467253712E+03  0.00000000000E+00 0.  1.
          2   -1    0    0  501    0  0.00000000000E+00 -0.00000000000E+00 -0.14775666570E+03  0.14775666570E+03  0.00000000000E+00 0. -1.
         25    2    1    2    0    0  0.29733467415E+02  0.42905977327E+02 -0.57310236325E+02  0.14716262526E+03  0.12508946043E+03 0.  0.
          5    1    3    3  502    0  0.21086700242E+02  0.66433419034E+02  0.14214980449E+02  0.71257183223E+02  0.41800000000E+01 0. -1.
         -5    1    3    3    0  502  0.86467671726E+01 -0.23527441707E+02 -0.71525216774E+02  0.75905442034E+02  0.41800000000E+01 0. -1.
        -11    1    1    2    0    0  0.24426863421E+02 -0.34640974173E+01 -0.18368958377E+02  0.30758580256E+02  0.00000000000E+00 0. -1.
         11    1    1    2    0    0 -0.54160330836E+02 -0.39441879910E+02  0.32595066117E+02  0.74507997304E+02  0.00000000000E+00 0.  1.
</event>
<event>
 7    1  0.2601031E-009  0.1138339E+03  0.7561462E-02  0.1253630E+00
          1   -1    0    0  501    0  0.00000000000E+00  0.00000000000E+00  0.24028000173E+03  0.24028000173E+03  0.00000000000E+00 0. -1.
         -1   -1    0    0    0  501 -0.00000000000E+00 -0.00000000000E+00 -0.60961688897E+02  0.60961688897E+02  0.00000000000E+00 0.  1.
         25    2    1    2    0    0 -0.46051578424E+02 -0.11490471215E+02  0.11633092041E+03  0.17729450035E+03  0.12509067914E+03 0.  0.
          5    1    3    3  502    0 -0.13780494032E+02  0.56258781845E+02  0.42724509575E+02  0.72095829761E+02  0.41800000000E+01 0.  1.
         -5    1    3    3    0  502 -0.32271084393E+02 -0.67749253060E+02  0.73606410832E+02  0.10519867059E+03  0.41800000000E+01 0.  1.
        -11    1    1    2    0    0 -0.13976193636E+02  0.28757969693E+02  0.51228447042E+02  0.60387983870E+02  0.00000000000E+00 0. -1.
         11    1    1    2    0    0  0.60027772061E+02 -0.17267498479E+02  0.11758945380E+02  0.63559206404E+02  0.00000000000E+00 0.  1.
</event>
<event>
 7    1  0.2601031E-009  0.9303837E+02  0.7561462E-02  0.1295656E+00
          1   -1    0    0  501    0  0.00000000000E+00  0.00000000000E+00  0.17407259850E+03  0.17407259850E+03  0.00000000000E+00 0. -1.
         -1   -1    0    0    0  501 -0.00000000000E+00 -0.00000000000E+00 -0.75499862654E+02  0.75499862654E+02  0.00000000000E+00 0.  1.
         25    2    1    2    0    0  0.10555271426E+02  0.84754581826E+01  0.11419800930E+03  0.16991698744E+03  0.12508936864E+03 0.  0.
          5    1    3    3  502    0  0.59615033054E+02  0.16479617478E+02  0.23291189361E+02  0.66222970789E+02  0.41800000000E+01 0.  1.
         -5    1    3    3    0  502 -0.49059761629E+02 -0.80041592959E+01  0.90906819943E+02  0.10369401665E+03  0.41800000000E+01 0.  1.
        -11    1    1    2    0    0 -0.36893199473E+02 -0.23632290444E+02 -0.21341874688E+02  0.48734678968E+02  0.00000000000E+00 0.  1.
         11    1    1    2    0    0  0.26337928048E+02  0.15156832261E+02  0.57166012304E+01  0.30920794745E+02  0.00000000000E+00 0. -1.
</event>
<event>
 7    1  0.2601031E-009  0.1084312E+03  0.7561462E-02  0.1263503E+00
         -2   -1    0    0    0  501 -0.00000000000E+00  0.00000000000E+00  0.12170680104E+03  0.12170680104E+03  0.00000000000E+00 0.  1.
          2   -1    0    0  501    0  0.00000000000E+00 -0.00000000000E+00 -0.24350204437E+03  0.24350204437E+03  0.00000000000E+00 0. -1.
         25    2    1    2    0    0  0.12089995171E+02  0.20937947174E+02 -0.20318334153E+03  0.23982385903E+03  0.12508975766E+03 0.  0.
          5    1    3    3  502    0  0.16076990934E+02 -0.50433788244E+02 -0.62849247421E+02  0.82277195720E+02  0.41800000000E+01 0. -1.
         -5    1    3    3    0  502 -0.39869957634E+01  0.71371735418E+02 -0.14033409411E+03  0.15754666331E+03  0.41800000000E+01 0. -1.
        -11    1    1    2    0    0  0.30126994553E+02 -0.36353653133E+02  0.57782868347E+02  0.74619593749E+02  0.00000000000E+00 0.  1.
         11    1    1    2    0    0 -0.42216989723E+02  0.15415705959E+02  0.23605229851E+02  0.50765392620E+02  0.00000000000E+00 0. -1.
</event>
<event>
 7    1  0.2601031E-009  0.1366360E+03  0.7561462E-02  0.1217929E+00
          2   -1    0    0  501    0  0.00000000000E+00  0.00000000000E+00  0.46012598926E+03  0.46012598926E+03  0.00000000000E+00 0. -1.
         -2   -1    0    0    0  501 -0.00000000000E+00 -0.00000000000E+00 -0.47065234900E+02  0.47065234900E+02  0.00000000000E+00 0.  1.
         25    2    1    2    0    0 -0.96795116642E+02  0.18185465083E+02  0.21159433604E+03  0.26479698797E+03  0.12508107790E+03 0.  0.
          5    1    3    3  502    0 -0.15383184311E+02  0.63442103091E+02  0.98183627808E+02  0.11797898107E+03  0.41800000000E+01 0.  1.
         -5    1    3    3    0  502 -0.81411932331E+02 -0.45256638008E+02  0.11341070823E+03  0.14681800690E+03  0.41800000000E+01 0.  1.
        -11    1    1    2    0    0  0.75464143114E+02  0.13260614714E+02  0.64187763180E+02  0.99953738002E+02  0.00000000000E+00 0.  1.
         11    1    1    2    0    0  0.21330973528E+02 -0.31446079797E+02  0.13727865515E+03  0.14244049819E+03  0.00000000000E+00 0. -1.
</event>
<event>
 7    1  0.2601031E-009  0.1255865E+03  0.7561462E-02  0.1234155E+00
          2   -1    0    0  501    0  0.00000000000E+00  0.00000000000E+00  0.67604842230E+03  0.67604842230E+03  0.00000000000E+00 0. -1.
         -2   -1    0    0    0  501 -0.00000000000E+00 -0.00000000000E+00 -0.29490916164E+02  0.29490916164E+02  0.00000000000E+00 0.  1.
         25    2    1    2    0    0 -0.57105209961E+02 -0.57430959790E+02  0.25488656004E+03  0.29525378863E+03  0.12509324948E+03 0.  0.
          5    1    3    3  502    0 -0.84665566558E+02 -0.54938648832E+02  0.24593203487E+03  0.26586942560E+03  0.41800000000E+01 0. -1.
         -5    1    3    3    0  502  0.27560356597E+02 -0.24923109577E+01  0.89545251763E+01  0.29384363032E+02  0.41800000000E+01 0. -1.
        -11    1    1    2    0    0  0.42188800523E+02 -0.17570313488E+02  0.14894471990E+03  0.15579839663E+03  0.00000000000E+00 0.  1.
         11    1    1    2    0    0  0.14916409438E+02  0.75001273278E+02  0.24272622619E+03  0.25448715320E+03  0.00000000000E+00 0. -1.
</event>
<event>
 7    1  0.2601031E-009  0.2339023E+03  0.7561462E-02  0.1123923E+00
         -1   -1    0    0    0  501 -0.00000000000E+00  0.00000000000E+00  0.84209874768E+02  0.84209874768E+02  0.00000000000E+00 0.  1.
          1   -1    0    0  501    0  0.00000000000E+00 -0.00000000000E+00 -0.73537710962E+03  0.73537710962E+03  0.00000000000E+00 0. -1.
         25    2    1    2    0    0 -0.10964455064E+03 -0.18167089368E+03 -0.46117119217E+03  0.52283106390E+03  0.12508881562E+03 0.  0.
          5    1    3    3  502    0 -0.13248077756E+03 -0.14502722023E+03 -0.32351374823E+03  0.37850055314E+03  0.41800000000E+01 0. -1.
         -5    1    3    3    0  502  0.22836226926E+02 -0.36643673448E+02 -0.13765744394E+03  0.14433051076E+03  0.41800000000E+01 0. -1.
        -11    1    1    2    0    0  0.13262858286E+02  0.10213184129E+03 -0.84713581035E+02  0.13335369221E+03  0.00000000000E+00 0. -1.
         11    1    1    2    0    0  0.96381692350E+02  0.79539052392E+02 -0.10528246165E+03  0.16340222828E+03  0.00000000000E+00 0.  1.
</event>
<event>
 7    1  0.2601031E-009  0.1027961E+03  0.7561462E-02  0.1274524E+00
         -1   -1    0    0    0  501 -0.00000000000E+00  0.00000000000E+00  0.99535442323E+02  0.99535442323E+02  0.00000000000E+00 0.  1.
          1   -1    0    0  501    0  0.00000000000E+00 -0.00000000000E+00 -0.13355821474E+03  0.13355821474E+03  0.00000000000E+00 0. -1.
         25    2    1    2    0    0  0.69769825216E+01  0.32996198164E+02 -0.47315463554E+01  0.12964352412E+03  0.12509048100E+03 0.  0.
          5    1    3    3  502    0 -0.52907582908E+02  0.23461858835E+02  0.23524320258E+02  0.62614193222E+02  0.41800000000E+01 0.  1.
         -5    1    3    3    0  502  0.59884565430E+02  0.95343393288E+01 -0.28255866613E+02  0.67029330902E+02  0.41800000000E+01 0.  1.
        -11    1    1    2    0    0  0.25122065901E+02 -0.45789052468E+02  0.77432379321E+01  0.52798799747E+02  0.00000000000E+00 0.  1.
         11    1    1    2    0    0 -0.32099048423E+02  0.12792854305E+02 -0.37034463996E+02  0.50651333194E+02  0.00000000000E+00 0. -1.
</event>
<event>
 7    1  0.2601031E-009  0.1364191E+03  0.7561462E-02  0.1218230E+00
          3   -1    0    0  501    0  0.00000000000E+00  0.00000000000E+00  0.26126225986E+02  0.26126225986E+02  0.00000000000E+00 0. -1.
         -3   -1    0    0    0  501 -0.00000000000E+00 -0.00000000000E+00 -0.75464109135E+03  0.75464109135E+03  0.00000000000E+00 0.  1.
         25    2    1    2    0    0 -0.34183316706E+02 -0.80123718060E+02 -0.34874845850E+03  0.38060447006E+03  0.12508383582E+03 0.  0.
          5    1    3    3  502    0 -0.80480437723E+02 -0.44003898095E+02 -0.18365275547E+03  0.20532718012E+03  0.41800000000E+01 0.  1.
         -5    1    3    3    0  502  0.46297121017E+02 -0.36119819966E+02 -0.16509570303E+03  0.17527728994E+03  0.41800000000E+01 0.  1.
        -11    1    1    2    0    0  0.46885191439E+02  0.63770975223E+01 -0.19840961850E+03  0.20397368767E+03  0.00000000000E+00 0.  1.
         11    1    1    2    0    0 -0.12701874733E+02  0.73746620538E+02 -0.18135678837E+03  0.19618915961E+03  0.00000000000E+00 0. -1.
</event>
<event>
 7    1  0.2601031E-009  0.9399774E+02  0.7561462E-02  0.1293450E+00
         -1   -1    0    0    0  501 -0.00000000000E+00  0.00000000000E+00  0.39594291946E+03  0.39594291946E+03  0.00000000000E+00 0.  1.
          1   -1    0    0  501    0  0.00000000000E+00 -0.00000000000E+00 -0.59204340855E+02  0.59204340855E+02  0.00000000000E+00 0. -1.
         25    2    1    2    0    0  0.79565673993E+02 -0.12239000323E+02  0.75339453049E+02  0.16674453827E+03  0.12508884143E+03 0.  0.
          5    1    3    3  502    0  0.57903357519E+02  0.11999220743E+02  0.10626518179E+03  0.12168213250E+03  0.41800000000E+01 0. -1.
         -5    1    3    3    0  502  0.21662316474E+02 -0.24238221066E+02 -0.30925728739E+02  0.45062405767E+02  0.41800000000E+01 0. -1.
        -11    1    1    2    0    0 -0.61304295551E+02 -0.15030333495E+02  0.70187258091E+02  0.94394802698E+02  0.00000000000E+00 0. -1.
         11    1    1    2    0    0 -0.18261378442E+02  0.27269333818E+02  0.19121186746E+03  0.19400791934E+03  0.00000000000E+00 0.  1.
</event>
<event>
 7    1  0.2601031E-009  0.2780459E+03  0.7561462E-02  0.1096761E+00
          2   -1    0    0  501    0  0.00000000000E+00  0.00000000000E+00  0.73455966812E+03  0.73455966812E+03  0.00000000000E+00 0. -1.
         -2   -1    0    0    0  501 -0.00000000000E+00 -0.00000000000E+00 -0.12848461593E+03  0.12848461593E+03  0.00000000000E+00 0.  1.
         25    2    1    2    0    0  0.21065645433E+03 -0.16126326842E+03  0.46306357964E+03  0.54813880608E+03  0.12508512478E+03 0.  0.
          5    1    3    3  502    0  0.98496962119E+01 -0.42074045094E+02  0.15847881170E+03  0.16431752172E+03  0.41800000000E+01 0. -1.
         -5    1    3    3    0  502  0.20080675812E+03 -0.11918922333E+03  0.30458476795E+03  0.38382128436E+03  0.41800000000E+01 0. -1.
        -11    1    1    2    0    0 -0.18145329191E+03  0.90911664648E+02  0.89475538927E+02  0.22180193863E+03  0.00000000000E+00 0.  1.
         11    1    1    2    0    0 -0.29203162421E+02  0.70351603774E+02  0.53535933628E+02  0.93103539344E+02  0.00000000000E+00 0. -1.
</event>
<event>
 7    1  0.2601031E-009  0.8713983E+02  0.7561462E-02  0.1309930E+00
          2   -1    0    0  501    0  0.00000000000E+00  0.00000000000E+00  0.69788944530E+03  0.69788944530E+03  0.00000000000E+00 0. -1.
         -2   -1    0    0    0  501 -0.00000000000E+00 -0.00000000000E+00 -0.19165597498E+02  0.19165597498E+02  0.00000000000E+00 0.  1.
         25    2    1    2    0    0  0.11201444655E+02  0.32703649417E+02  0.45450888171E+03  0.47267526745E+03  0.12509429987E+03 0.  0.
          5    1    3    3  502    0 -0.16782448593E-02  0.63772793513E+02  0.11522519459E+03  0.13176223686E+03  0.41800000000E+01 0. -1.
         -5    1    3    3    0  502  0.11203122900E+02 -0.31069144096E+02  0.33928368712E+03  0.34091303059E+03  0.41800000000E+01 0. -1.
        -11    1    1    2    0    0 -0.39416407869E+02 -0.94913100027E+01  0.41385140138E+02  0.57935032572E+02  0.00000000000E+00 0.  1.
         11    1    1    2    0    0  0.28214963214E+02 -0.23212339414E+02  0.18282982595E+03  0.18644474278E+03  0.00000000000E+00 0. -1.
</event>
<event>
 7    1  0.2601031E-009  0.1405575E+03  0.7561462E-02  0.1212581E+00
         -1   -1    0    0    0  501 -0.00000000000E+00  0.00000000000E+00  0.93927510017E+02  0.93927510017E+02  0.00000000000E+00 0. -1.
          1   -1    0    0  501    0  0.00000000000E+00 -0.00000000000E+00 -0.23330324464E+03  0.23330324464E+03  0.00000000000E+00 0.  1.
         25    2    1    2    0    0  0.93615505956E+02 -0.13355963577E+02 -0.10645409385E+03  0.18953091515E+03  0.12508896428E+03 0.  0.
          5    1    3    3  502    0  0.29231720719E+02  0.52818491203E+02 -0.22161979193E+02  0.64443092965E+02  0.41800000000E+01 0.  1.
         -5    1    3    3    0  502  0.64383785237E+02 -0.66174454780E+02 -0.84292114655E+02  0.12508782219E+03  0.41800000000E+01 0.  1.
        -11    1    1    2    0    0  0.12780949422E+02  0.17539273025E+02 -0.21602851656E+02  0.30621266565E+02  0.00000000000E+00 0.  1.
         11    1    1    2    0    0 -0.10639645538E+03 -0.41833094480E+01 -0.11318789116E+02  0.10707857294E+03  0.00000000000E+00 0. -1.
</event>
<event>
 7    1  0.2601031E-009  0.6182165E+02  0.7561462E-02  0.1390342E+00
         -2   -1    0    0    0  501 -0.00000000000E+00  0.00000000000E+00  0.82737477507E+02  0.82737477507E+02  0.00000000000E+00 0.  1.
          2   -1    0    0  501    0  0.00000000000E+00 -0.00000000000E+00 -0.18809500556E+03  0.18809500556E+03  0.00000000000E+00 0. -1.
         25    2    1    2    0    0  0.11899495823E+02 -0.14772534490E+02 -0.11896296020E+03  0.17366695869E+03  0.12509276904E+03 0.  0.
          5    1    3    3  502    0  0.25932211433E+02  0.49837804109E+01  0.19465643581E+02  0.33071155665E+02  0.41800000000E+01 0. -1.
         -5    1    3    3    0  502 -0.14032715610E+02 -0.19756314901E+02 -0.13842860378E+03  0.14059580303E+03  0.41800000000E+01 0. -1.
        -11    1    1    2    0    0  0.24341623344E+02  0.24763669643E+02 -0.25377654531E+02  0.43009060798E+02  0.00000000000E+00 0. -1.
         11    1    1    2    0    0 -0.36241119167E+02 -0.99911351530E+01  0.38983086676E+02  0.54156463575E+02  0.00000000000E+00 0.  1.
</event>
<event>
 7    1  0.2601031E-009  0.7066367E+02  0.7561462E-02  0.1357851E+00
          1   -1    0    0  501    0  0.00000000000E+00  0.00000000000E+00  0.19954133448E+03  0.19954133448E+03  0.00000000000E+00 0. -1.
         -1   -1    0    0    0  501 -0.00000000000E+00 -0.00000000000E+00 -0.69488608005E+02  0.69488608005E+02  0.00000000000E+00 0.  1.
         25    2    1    2    0    0 -0.41636684285E+01 -0.40134773796E+02  0.46769545351E+02  0.13951211487E+03  0.12509238034E+03 0.  0.
          5    1    3    3  502    0  0.11700761539E+01 -0.49782035908E+02 -0.32343970868E+02  0.59524994993E+02  0.41800000000E+01 0.  1.
         -5    1    3    3    0  502 -0.53337445824E+01  0.96472621120E+01  0.79113516219E+02  0.79987119876E+02  0.41800000000E+01 0.  1.
        -11    1    1    2    0    0  0.33925397207E+02  0.36089411983E+02  0.10293461513E+02  0.50589856522E+02  0.00000000000E+00 0.  1.
         11    1    1    2    0    0 -0.29761728779E+02  0.40453618129E+01  0.72989719615E+02  0.78927971097E+02  0.00000000000E+00 0. -1.
</event>
<event>
 7    1  0.2601031E-009  0.7625597E+02  0.7561462E-02  0.1340025E+00
          2   -1    0    0  501    0  0.00000000000E+00  0.00000000000E+00  0.15147872533E+03  0.15147872533E+03  0.00000000000E+00 0. -1.
         -2   -1    0    0    0  501 -0.00000000000E+00 -0.00000000000E+00 -0.89404875867E+02  0.89404875867E+02  0.00000000000E+00 0.  1.
         25    2    1    2    0    0 -0.42977709989E+02  0.98590080028E+01  0.24839402999E+02  0.13494646458E+03  0.12509703740E+03 0.  0.
          5    1    3    3  502    0 -0.17356703172E+02 -0.20441890106E+02  0.69766162346E+02  0.74859306867E+02  0.41800000000E+01 0. -1.
         -5    1    3    3    0  502 -0.25621006817E+02  0.30300898109E+02 -0.44926759347E+02  0.60087157712E+02  0.41800000000E+01 0. -1.
        -11    1    1    2    0    0  0.18394280649E+02  0.32009838255E+02 -0.99480257442E+01  0.38235356961E+02  0.00000000000E+00 0.  1.
         11    1    1    2    0    0  0.24583429340E+02 -0.41868846258E+02  0.47182472208E+02  0.67701779657E+02  0.00000000000E+00 0. -1.
</event>
<event>
 7    1  0.2601031E-009  0.1840649E+03  0.7561462E-02  0.1163926E+00
         -2   -1    0    0    0  501 -0.00000000000E+00  0.00000000000E+00  0.54128128622E+02  0.54128128622E+02  0.00000000000E+00 0.  1.
          2   -1    0    0  501    0  0.00000000000E+00 -0.00000000000E+00 -0.73470493216E+03  0.73470493216E+03  0.00000000000E+00 0. -1.
         25    2    1    2    0    0  0.16305219147E+03 -0.29637963793E+02 -0.39329463664E+03  0.44473899198E+03  0.12509066208E+03 0.  0.
          5    1    3    3  502    0  0.83155296300E+02 -0.50505527654E+02 -0.98272155294E+02  0.13834919780E+03  0.41800000000E+01 0.  1.
         -5    1    3    3    0  502  0.79896895170E+02  0.20867563861E+02 -0.29502248134E+03  0.30638979418E+03  0.41800000000E+01 0.  1.
        -11    1    1    2    0    0 -0.14914126854E+03  0.55146942475E+02 -0.25630185518E+03  0.30162053016E+03  0.00000000000E+00 0. -1.
         11    1    1    2    0    0 -0.13910922928E+02 -0.25508978681E+02 -0.30980311724E+02  0.42473538640E+02  0.00000000000E+00 0.  1.
</event>
<event>
 7    1  0.2601031E-009  0.1705008E+03  0.7561462E-02  0.1177327E+00
         -2   -1    0    0    0  501 -0.00000000000E+00  0.00000000000E+00  0.58276907605E+02  0.58276907605E+02  0.00000000000E+00 0.  1.
          2   -1    0    0  501    0  0.00000000000E+00 -0.00000000000E+00 -0.70144668032E+03  0.70144668032E+03  0.00000000000E+00 0. -1.
         25    2    1    2    0    0  0.14232350912E+03  0.71353369158E+02 -0.22383996333E+03  0.30182795872E+03  0.12509397643E+03 0.  0.
          5    1    3    3  502    0  0.13105607080E+03  0.29982900596E+02 -0.91567733098E+02  0.16271690191E+03  0.41800000000E+01 0. -1.
         -5    1    3    3    0  502  0.11267438323E+02  0.41370468562E+02 -0.13227223023E+03  0.13911105681E+03  0.41800000000E+01 0. -1.
        -11    1    1    2    0    0 -0.56867889708E+02 -0.88788094675E+01 -0.59355158295E+02  0.82679047851E+02  0.00000000000E+00 0.  1.
         11    1    1    2    0    0 -0.85455619417E+02 -0.62474559690E+02 -0.35997465109E+03  0.37521658136E+03  0.00000000000E+00 0. -1.
</event>
<event>
 7    1  0.2601031E-009  0.1111947E+03  0.7561462E-02  0.1258373E+00
          1   -1    0    0  501    0  0.00000000000E+00  0.00000000000E+00  0.29896230256E+03  0.29896230256E+03  0.00000000000E+00 0. -1.
         -1   -1    0    0    0  501 -0.00000000000E+00 -0.00000000000E+00 -0.49517492097E+02  0.49517492097E+02  0.00000000000E+00 0.  1.
         25    2    1    2    0    0  0.34776585877E+02  0.34643385266E+02  0.17189266290E+03  0.21818348642E+03  0.12508945247E+03 0.  0.
          5    1    3    3  502    0  0.42511896691E+02 -0.38828855469E+02  0.97156144059E+02  0.11301207947E+03  0.41800000000E+01 0.  1.
         -5    1    3    3    0  502 -0.77353108147E+01  0.73472240735E+02  0.74736518844E+02  0.10517140696E+03  0.41800000000E+01 0.  1.
        -11    1    1    2    0    0 -0.56363626014E+02 -0.39133267709E+02  0.82894470448E+02  0.10760931284E+03  0.00000000000E+00 0. -1.
         11    1    1    2    0    0  0.21587040138E+02  0.44898824426E+01 -0.53423228851E+01  0.22686995395E+02  0.00000000000E+00 0.  1.
</event>
<event>
 7    1  0.2601031E-009  0.1690896E+03  0.7561462E-02  0.1178801E+00
         -2   -1    0    0    0  501 -0.00000000000E+00  0.00000000000E+00  0.10548086213E+03  0.10548086213E+03  0.00000000000E+00 0.  1.
          2   -1    0    0  501    0  0.00000000000E+00 -0.00000000000E+00 -0.31432038888E+03  0.31432038888E+03  0.00000000000E+00 0. -1.
         25    2    1    2    0    0 -0.62201815866E+01 -0.14470350143E+03 -0.13162759205E+03  0.23227446596E+03  0.12509120898E+03 0.  0.
          5    1    3    3  502    0 -0.25303623909E+02 -0.16220880833E+03 -0.12093342879E+03  0.20394689868E+03  0.41800000000E+01 0. -1.
         -5    1    3    3    0  502  0.19083442323E+02  0.17505306895E+02 -0.10694163258E+02  0.28327567283E+02  0.41800000000E+01 0. -1.
        -11    1    1    2    0    0  0.17015887449E+02  0.11198636445E+03 -0.95825508026E+02  0.14836783424E+03  0.00000000000E+00 0. -1.
         11    1    1    2    0    0 -0.10795705863E+02  0.32717136979E+02  0.18613573325E+02  0.39158950817E+02  0.00000000000E+00 0.  1.
</event>
<event>
 7    1  0.2601031E-009  0.1291530E+03  0.7561462E-02  0.1228718E+00
          3   -1    0    0  501    0  0.00000000000E+00  0.00000000000E+00  0.21007641258E+03  0.21007641258E+03  0.00000000000E+00 0. -1.
         -3   -1    0    0    0  501 -0.00000000000E+00 -0.00000000000E+00 -0.11320125340E+03  0.11320125340E+03  0.00000000000E+00 0.  1.
         25    2    1    2    0    0  0.64599406311E+02 -0.81211467928E+02  0.11871959701E+02  0.16296596665E+03  0.12509427262E+03 0.  0.
          5    1    3    3  502    0  0.81809311509E+02 -0.16045453858E+02 -0.23521185222E+02  0.86723345146E+02  0.41800000000E+01 0. -1.
         -5    1    3    3    0  502 -0.17209905198E+02 -0.65166014071E+02  0.35393144923E+02  0.76242621508E+02  0.41800000000E+01 0. -1.
        -11    1    1    2    0    0 -0.48531514985E+01  0.24333913748E+02 -0.16287049040E+02  0.29680977143E+02  0.00000000000E+00 0.  1.
         11    1    1    2    0    0 -0.59746254813E+02  0.56877554181E+02  0.10129024852E+03  0.13063072219E+03  0.00000000000E+00 0. -1.
</event>
<event>
 7    1  0.2601031E-009  0.1606596E+03  0.7561462E-02  0.1187954E+00
          2   -1    0    0  501    0  0.00000000000E+00  0.00000000000E+00  0.16148038367E+03  0.16148038367E+03  0.00000000000E+00 0. -1.
         -2   -1    0    0    0  501 -0.00000000000E+00 -0.00000000000E+00 -0.18352827294E+03  0.18352827294E+03  0.00000000000E+00 0.  1.
         25    2    1    2    0    0  0.58621976816E+02 -0.12000906911E+03 -0.17321466646E+02  0.18380999455E+03  0.12508944022E+03 0.  0.
          5    1    3    3  502    0  0.71797975615E+02 -0.13207632755E+03 -0.39044895322E+02  0.15537400636E+03  0.41800000000E+01 0.  1.
         -5    1    3    3    0  502 -0.13175998799E+02  0.12067258445E+02  0.21723428676E+02  0.28435988187E+02  0.41800000000E+01 0.  1.
        -11    1    1    2    0    0 -0.81572651622E+01 -0.10126890069E+02  0.15423336495E+02  0.20173601216E+02  0.00000000000E+00 0. -1.
         11    1    1    2    0    0 -0.50464711654E+02  0.13013595917E+03 -0.20149759118E+02  0.14102506084E+03  0.00000000000E+00 0.  1.
</event>
<event>
 7    1  0.2601031E-009  0.7884068E+02  0.7561462E-02  0.1332374E+00
          2   -1    0    0  501    0  0.00000000000E+00  0.00000000000E+00  0.70452231649E+03  0.70452231649E+03  0.00000000000E+00 0. -1.
         -2   -1    0    0    0  501 -0.00000000000E+00 -0.00000000000E+00 -0.17386737931E+02  0.17386737931E+02  0.00000000000E+00 0.  1.
         25    2    1    2    0    0  0.26234389036E+01 -0.24718837960E+02  0.40545909630E+03  0.42504438259E+03  0.12509094699E+03 0.  0.
          5    1    3    3  502    0  0.15897122151E+02  0.16524607910E+02  0.36459883554E+03  0.36534307772E+03  0.41800000000E+01 0. -1.
         -5    1    3    3    0  502 -0.13273683248E+02 -0.41243445870E+02  0.40860260758E+02  0.59701304871E+02  0.41800000000E+01 0. -1.
        -11    1    1    2    0    0  0.39606133814E+02 -0.39521621655E+01  0.88142214131E+02  0.96712539690E+02  0.00000000000E+00 0.  1.
         11    1    1    2    0    0 -0.42229572717E+02  0.28671000125E+02  0.19353426813E+03  0.20015213214E+03  0.00000000000E+00 0. -1.
</event>
<event>
 7    1  0.2601031E-009  0.3038842E+03  0.7561462E-02  0.1083315E+00
         -2   -1    0    0    0  501 -0.00000000000E+00  0.00000000000E+00  0.18877389515E+03  0.18877389515E+03  0.00000000000E+00 0.  1.
          2   -1    0    0  501    0  0.00000000000E+00 -0.00000000000E+00 -0.62201621261E+03  0.62201621261E+03  0.00000000000E+00 0. -1.
         25    2    1    2    0    0  0.20879330333E+02  0.29829990611E+03 -0.68809871626E+02  0.33136282889E+03  0.12509094897E+03 0.  0.
          5    1    3    3  502    0  0.19943004941E+01  0.24087603910E+03 -0.10274375864E+03  0.26191410001E+03  0.41800000000E+01 0.  1.
         -5    1    3    3    0  502  0.18885029839E+02  0.57423867014E+02  0.33933887011E+02  0.69448728876E+02  0.41800000000E+01 0.  1.
        -11    1    1    2    0    0  0.24149772257E+02 -0.94272971850E+02 -0.77082977988E+02  0.12414664803E+03  0.00000000000E+00 0. -1.
         11    1    1    2    0    0 -0.45029102590E+02 -0.20402693426E+03 -0.28734946785E+03  0.35528063085E+03  0.00000000000E+00 0.  1.
</event>
<event>
 7    1  0.2601031E-009  0.1164254E+03  0.7561462E-02  0.1249113E+00
          2   -1    0    0  501    0  0.00000000000E+00  0.00000000000E+00  0.27966218486E+03  0.27966218486E+03  0.00000000000E+00 0. -1.
         -2   -1    0    0    0  501 -0.00000000000E+00 -0.00000000000E+00 -0.92554247380E+02  0.92554247380E+02  0.00000000000E+00 0.  1.
         25    2    1    2    0    0  0.58472642139E+02 -0.99935913888E+02  0.11109366319E+03  0.20346111043E+03  0.12509350380E+03 0.  0.
          5    1    3    3  502    0  0.14152211319E+02 -0.19758553412E+02 -0.27712298952E+02  0.37096218559E+02  0.41800000000E+01 0.  1.
         -5    1    3    3    0  502  0.44320430820E+02 -0.80177360476E+02  0.13880596214E+03  0.16636489187E+03  0.41800000000E+01 0.  1.
        -11    1    1    2    0    0 -0.11311110307E+02  0.30637533986E+02 -0.22308368148E+02  0.39550764779E+02  0.00000000000E+00 0.  1.
         11    1    1    2    0    0 -0.47161531832E+02  0.69298379902E+02  0.98322642436E+02  0.12920455703E+03  0.00000000000E+00 0. -1.
</event>
<event>
 7    1  0.2601031E-009  0.1575728E+03  0.7561462E-02  0.1191465E+00
         -1   -1    0    0    0  501 -0.00000000000E+00  0.00000000000E+00  0.32126243462E+03  0.32126243462E+03  0.00000000000E+00 0.  1.
          1   -1    0    0  501    0  0.00000000000E+00 -0.00000000000E+00 -0.99244099989E+02  0.99244099989E+02  0.00000000000E+00 0. -1.
         25    2    1    2    0    0 -0.12787307236E+03  0.55191424250E+02  0.93582478981E+02  0.20929032150E+03  0.12508853807E+03 0.  0.
          5    1    3    3  502    0 -0.36597187138E+01  0.21399518491E+02  0.76181110347E+02  0.79324440788E+02  0.41800000000E+01 0.  1.
         -5    1    3    3    0  502 -0.12421335364E+03  0.33791905759E+02  0.17401368634E+02  0.12996588071E+03  0.41800000000E+01 0.  1.
        -11    1    1    2    0    0  0.20930286409E+02 -0.53321084148E+02  0.65905739076E+02  0.87319993971E+02  0.00000000000E+00 0.  1.
         11    1    1    2    0    0  0.10694278595E+03 -0.18703401016E+01  0.62530116576E+02  0.12389621914E+03  0.00000000000E+00 0. -1.
</event>
<event>
 7    1  0.2601031E-009  0.1797832E+03  0.7561462E-02  0.1168013E+00
          1   -1    0    0  501    0  0.00000000000E+00  0.00000000000E+00  0.18178301534E+02  0.18178301534E+02  0.00000000000E+00 0. -1.
         -1   -1    0    0    0  501 -0.00000000000E+00 -0.00000000000E+00 -0.21488499273E+04  0.21488499273E+04  0.00000000000E+00 0.  1.
         25    2    1    2    0    0  0.25353666927E+02  0.16271495760E+03 -0.11726014305E+04  0.11906974080E+04  0.12508891511E+03 0.  0.
          5    1    3    3  502    0 -0.10010057092E+02  0.93152787418E+02 -0.95304467239E+03  0.95764777607E+03  0.41800000000E+01 0.  1.
         -5    1    3    3    0  502  0.35363724019E+02  0.69562170178E+02 -0.21955675815E+03  0.23304963194E+03  0.41800000000E+01 0.  1.
        -11    1    1    2    0    0  0.66583813734E+00 -0.16159190727E+03 -0.80460246314E+03  0.82066894149E+03  0.00000000000E+00 0. -1.
         11    1    1    2    0    0 -0.26019505064E+02 -0.11230503217E+01 -0.15346773205E+03  0.15566187930E+03  0.00000000000E+00 0.  1.
</event>
<event>
 7    1  0.2601031E-009  0.9703584E+02  0.7561462E-02  0.1286656E+00
         -2   -1    0    0    0  501 -0.00000000000E+00  0.00000000000E+00  0.17267742544E+03  0.17267742544E+03  0.00000000000E+00 0.  1.
          2   -1    0    0  501    0  0.00000000000E+00 -0.00000000000E+00 -0.80333555854E+02  0.80333555854E+02  0.00000000000E+00 0. -1.
         25    2    1    2    0    0 -0.33532098586E+01 -0.40477721971E+02  0.50488021606E+02  0.14087642852E+03  0.12508971898E+03 0.  0.
          5    1    3    3  502    0 -0.47411773548E+01 -0.75175115956E+02  0.68176405154E+02  0.10168220809E+03  0.41800000000E+01 0. -1.
         -5    1    3    3    0  502  0.13879674961E+01  0.34697393985E+02 -0.17688383547E+02  0.39194220436E+02  0.41800000000E+01 0. -1.
        -11    1    1    2    0    0 -0.61391310559E-02  0.61935918405E+02  0.58170744657E+02  0.84969956810E+02  0.00000000000E+00 0.  1.
         11    1    1    2    0    0  0.33593489897E+01 -0.21458196434E+02 -0.16314896681E+02  0.27164595958E+02  0.00000000000E+00 0. -1.
</event>
<event>
 7    1  0.2601031E-009  0.1004070E+03  0.7561462E-02  0.1279442E+00
         -1   -1    0    0    0  501 -0.00000000000E+00  0.00000000000E+00  0.27783007629E+03  0.27783007629E+03  0.00000000000E+00 0.  1.
          1   -1    0    0  501    0  0.00000000000E+00 -0.00000000000E+00 -0.45137998551E+02  0.45137998551E+02  0.00000000000E+00 0. -1.
         25    2    1    2    0    0  0.19086264670E+02 -0.20657567733E+02  0.14620963171E+03  0.19446565923E+03  0.12509442678E+03 0.  0.
          5    1    3    3  502    0  0.48524881536E+02 -0.47998812353E+02  0.13687739154E+03  0.15300798289E+03  0.41800000000E+01 0. -1.
         -5    1    3    3    0  502 -0.29438616866E+02  0.27341244620E+02  0.93322401750E+01  0.41457676335E+02  0.41800000000E+01 0. -1.
        -11    1    1    2    0    0 -0.50060583280E+02  0.31587013970E+02  0.70253056396E+02  0.91865626775E+02  0.00000000000E+00 0.  1.
         11    1    1    2    0    0  0.30974318610E+02 -0.10929446237E+02  0.16229389630E+02  0.36636788836E+02  0.00000000000E+00 0. -1.
</event>
<event>
 7    1  0.2601031E-009  0.7654792E+02  0.7561462E-02  0.1339144E+00
          3   -1    0    0  501    0  0.00000000000E+00  0.00000000000E+00  0.73909627111E+02  0.73909627111E+02  0.00000000000E+00 0. -1.
         -3   -1    0    0    0  501 -0.00000000000E+00 -0.00000000000E+00 -0.26060860096E+03  0.26060860096E+03  0.00000000000E+00 0.  1.
         25    2    1    2    0    0 -0.16514763556E+02 -0.50682228142E+02 -0.20135997614E+03  0.24297296900E+03  0.12509435643E+03 0.  0.
          5    1    3    3  502    0 -0.52872950839E+01 -0.64425066079E+02 -0.21212863598E+03  0.22179850142E+03  0.41800000000E+01 0.  1.
         -5    1    3    3    0  502 -0.11227468472E+02  0.13742837937E+02  0.10768659841E+02  0.21174467588E+02  0.41800000000E+01 0.  1.
        -11    1    1    2    0    0  0.26711404451E+02  0.10615242760E+02 -0.22071970272E+02  0.36240231488E+02  0.00000000000E+00 0.  1.
         11    1    1    2    0    0 -0.10196640895E+02  0.40066985382E+02  0.36732972557E+02  0.55305027584E+02  0.00000000000E+00 0. -1.
</event>
<event>
 7    1  0.2601031E-009  0.8560034E+02  0.7561462E-02  0.1313870E+00
          2   -1    0    0  501    0  0.00000000000E+00  0.00000000000E+00  0.73739295904E+02  0.73739295904E+02  0.00000000000E+00 0. -1.
         -2   -1    0    0    0  501 -0.00000000000E+00 -0.00000000000E+00 -0.17970274408E+03  0.17970274408E+03  0.00000000000E+00 0.  1.
         25    2    1    2    0    0 -0.15105635911E+02 -0.30604650423E+02 -0.81103886721E+02  0.15293584384E+03  0.12508679797E+03 0.  0.
          5    1    3    3  502    0 -0.28144468498E+02  0.10626679498E+02  0.24320672270E+02  0.38910216189E+02  0.41800000000E+01 0.  1.
         -5    1    3    3    0  502  0.13038832586E+02 -0.41231329921E+02 -0.10542455899E+03  0.11402562765E+03  0.41800000000E+01 0.  1.
        -11    1    1    2    0    0  0.48314758845E+02 -0.51452066081E+01 -0.12193231090E+02  0.50094550180E+02  0.00000000000E+00 0. -1.
         11    1    1    2    0    0 -0.33209122934E+02  0.35749857031E+02 -0.12666330362E+02  0.50411645962E+02  0.00000000000E+00 0.  1.
</event>
<event>
 7    1  0.2601031E-009  0.1327818E+03  0.7561462E-02  0.1223385E+00
         -1   -1    0    0    0  501 -0.00000000000E+00  0.00000000000E+00  0.38848851917E+03  0.38848851917E+03  0.00000000000E+00 0.  1.
          1   -1    0    0  501    0  0.00000000000E+00 -0.00000000000E+00 -0.11417937581E+03  0.11417937581E+03  0.00000000000E+00 0. -1.
         25    2    1    2    0    0 -0.68336572806E+02 -0.77816293898E+02  0.31937918826E+03  0.35829573839E+03  0.12508999751E+03 0.  0.
          5    1    3    3  502    0 -0.91578280239E+02 -0.46468893816E+02  0.13437588602E+03  0.16917532517E+03  0.41800000000E+01 0.  1.
         -5    1    3    3    0  502  0.23241707433E+02 -0.31347400082E+02  0.18500330224E+03  0.18912041322E+03  0.41800000000E+01 0.  1.
        -11    1    1    2    0    0  0.34115045930E+02 -0.44823396157E+01  0.14318492762E+02  0.37268578753E+02  0.00000000000E+00 0.  1.
         11    1    1    2    0    0  0.34221526876E+02  0.82298633514E+02 -0.59388537655E+02  0.10710357783E+03  0.00000000000E+00 0. -1.
</event>
<event>
 7    1  0.2601031E-009  0.1232953E+03  0.7561462E-02  0.1237758E+00
          2   -1    0    0  501    0  0.00000000000E+00  0.00000000000E+00  0.85988518129E+02  0.85988518129E+02  0.00000000000E+00 0. -1.
         -2   -1    0    0    0  501 -0.00000000000E+00 -0.00000000000E+00 -0.20852517749E+03  0.20852517749E+03  0.00000000000E+00 0.  1.
         25    2    1    2    0    0 -0.25643690097E+00 -0.68180338116E+02 -0.10672511298E+03  0.17800610864E+03  0.12508917101E+03 0.  0.
          5    1    3    3  502    0  0.24647647503E+02  0.25953949633E+02 -0.59839748029E+02  0.69852572416E+02  0.41800000000E+01 0. -1.
         -5    1    3    3    0  502 -0.24904084404E+02 -0.94134287748E+02 -0.46885364955E+02  0.10815353622E+03  0.41800000000E+01 0. -1.
        -11    1    1    2    0    0 -0.42469721914E+02  0.15376843039E+02  0.50562701944E+01  0.45449867432E+02  0.00000000000E+00 0.  1.
         11    1    1    2    0    0  0.42726158815E+02  0.52803495077E+02 -0.20867816572E+02  0.71057719552E+02  0.00000000000E+00 0. -1.
</event>
<event>
 7    1  0.2601031E-009  0.1916107E+03  0.7561462E-02  0.1157017E+00
         -1   -1    0    0    0  501 -0.00000000000E+00  0.00000000000E+00  0.10600026634E+03  0.10600026634E+03  0.00000000000E+00 0.  1.
          1   -1    0    0  501    0  0.00000000000E+00 -0.00000000000E+00 -0.61739494201E+03  0.61739494201E+03  0.00000000000E+00 0. -1.
         25    2    1    2    0    0  0.16061043940E+03 -0.54482363946E+02 -0.40976068335E+02  0.21468535383E+03  0.12508685682E+03 0.  0.
          5    1    3    3  502    0  0.86490608490E+02 -0.92792626192E+02 -0.30105959511E+02  0.13044132026E+03  0.41800000000E+01 0. -1.
         -5    1    3    3    0  502  0.74119830907E+02  0.38310262247E+02 -0.10870108824E+02  0.84244033575E+02  0.41800000000E+01 0. -1.
        -11    1    1    2    0    0 -0.11796885003E+03  0.24104081690E+02 -0.20143222685E+03  0.23467551714E+03  0.00000000000E+00 0.  1.
         11    1    1    2    0    0 -0.42641589371E+02  0.30378282256E+02 -0.26898638048E+03  0.27403433738E+03  0.00000000000E+00 0. -1.
</event>
<event>
 7    1  0.2601031E-009  0.7518401E+02  0.7561462E-02  0.1343302E+00
          3   -1    0    0  501    0  0.00000000000E+00  0.00000000000E+00  0.58583596167E+03  0.58583596167E+03  0.00000000000E+00 0. -1.
         -3   -1    0    0    0  501 -0.00000000000E+00 -0.00000000000E+00 -0.25565087899E+02  0.25565087899E+02  0.00000000000E+00 0.  1.
         25    2    1    2    0    0 -0.16540559489E+02  0.32504911682E+02  0.42361981404E+03  0.44320508411E+03  0.12508733086E+03 0.  0.
          5    1    3    3  502    0 -0.44140329669E+02  0.29815379101E+02  0.67994348967E+02  0.86475600175E+02  0.41800000000E+01 0.  1.
         -5    1    3    3    0  502  0.27599770181E+02  0.26895325807E+01  0.35562546507E+03  0.35672948393E+03  0.41800000000E+01 0.  1.
        -11    1    1    2    0    0  0.29986412194E+02 -0.42589175987E+02  0.14143494758E+03  0.15072115719E+03  0.00000000000E+00 0. -1.
         11    1    1    2    0    0 -0.13445852705E+02  0.10084264306E+02 -0.47838878398E+01  0.17474808280E+02  0.00000000000E+00 0.  1.
</event>
<event>
 7    1  0.2601031E-009  0.1769337E+03  0.7561462E-02  0.1170804E+00
          1   -1    0    0  501    0  0.00000000000E+00  0.00000000000E+00  0.11075997468E+03  0.11075997468E+03  0.00000000000E+00 0. -1.
         -1   -1    0    0    0  501 -0.00000000000E+00 -0.00000000000E+00 -0.38014200444E+03  0.38014200444E+03  0.00000000000E+00 0.  1.
         25    2    1    2    0    0 -0.12826250573E+03  0.82404748420E+02 -0.24004477748E+03  0.31066116271E+03  0.12508816845E+03 0.  0.
          5    1    3    3  502    0 -0.12250806458E+03  0.24084058314E+02 -0.10427305379E+03  0.16272249352E+03  0.41800000000E+01 0. -1.
         -5    1    3    3    0  502 -0.57544411444E+01  0.58320690106E+02 -0.13577172369E+03  0.14793866919E+03  0.41800000000E+01 0. -1.
        -11    1    1    2    0    0  0.78345609276E+02 -0.90414460332E+02  0.39660719153E+01  0.11970187491E+03  0.00000000000E+00 0. -1.
         11    1    1    2    0    0  0.49916896450E+02  0.80097119118E+01 -0.33303324191E+02  0.60538941503E+02  0.00000000000E+00 0.  1.
</event>
<event>
 7    1  0.2601031E-009  0.1049598E+03  0.7561462E-02  0.1270199E+00
         -1   -1    0    0    0  501 -0.00000000000E+00  0.00000000000E+00  0.15983134592E+03  0.15983134592E+03  0.00000000000E+00 0.  1.
          1   -1    0    0  501    0  0.00000000000E+00 -0.00000000000E+00 -0.14351867354E+03  0.14351867354E+03  0.00000000000E+00 0. -1.
         25    2    1    2    0    0  0.40891057412E+02 -0.28939942770E+02 -0.83429411632E+02  0.15848581020E+03  0.12509071287E+03 0.  0.
          5    1    3    3  502    0 -0.36644012272E+02 -0.91095685477E+01 -0.66486071353E+02  0.76574394927E+02  0.41800000000E+01 0.  1.
         -5    1    3    3    0  502  0.77535069684E+02 -0.19830374222E+02 -0.16943340279E+02  0.81911415276E+02  0.41800000000E+01 0.  1.
        -11    1    1    2    0    0 -0.61789371157E+02  0.81727560381E+01  0.30035432616E+02  0.69187047500E+02  0.00000000000E+00 0. -1.
         11    1    1    2    0    0  0.20898313745E+02  0.20767186732E+02  0.69706651399E+02  0.75677161756E+02  0.00000000000E+00 0.  1.
</event>
<event>
 7    1  0.3444629E-009  0.1251414E+03  0.7561462E-02  0.1234848E+00
          2   -1    0    0  501    0  0.00000000000E+00  0.00000000000E+00  0.27122511364E+03  0.27122511364E+03  0.00000000000E+00 0. -1.
         -2   -1    0    0    0  501 -0.00000000000E+00 -0.00000000000E+00 -0.70952263268E+02  0.70952263268E+02  0.00000000000E+00 0.  1.
         25    2    1    2    0    0 -0.85643453709E+02 -0.52578820890E+01  0.11586799346E+03  0.19087969701E+03  0.12508884976E+03 0.  0.
          5    1    3    3  502    0  0.48875177774E+01  0.44353112900E+02  0.55065655473E+02  0.70998487777E+02  0.41800000000E+01 0.  1.
         -5    1    3    3    0  502 -0.90530971487E+02 -0.49610994989E+02  0.60802337986E+02  0.11988120923E+03  0.41800000000E+01 0.  1.
        -11    1    1    2    0    0  0.72001196924E+02  0.26650937582E+02  0.16117330337E+02  0.78448793296E+02  0.00000000000E+00 0.  1.
         11    1    1    2    0    0  0.13642256785E+02 -0.21393055493E+02  0.68287526571E+02  0.72848886600E+02  0.00000000000E+00 0. -1.
</event>
<event>
 7    1  0.2601031E-009  0.1385206E+03  0.7561462E-02  0.1215334E+00
          2   -1    0    0  501    0  0.00000000000E+00  0.00000000000E+00  0.87521134648E+02  0.87521134648E+02  0.00000000000E+00 0. -1.
         -2   -1    0    0    0  501 -0.00000000000E+00 -0.00000000000E+00 -0.33901613329E+03  0.33901613329E+03  0.00000000000E+00 0.  1.
         25    2    1    2    0    0  0.10276261461E+03 -0.41035781538E+02 -0.40704871411E+02  0.17189448666E+03  0.12508692041E+03 0.  0.
          5    1    3    3  502    0 -0.27126452731E+02 -0.10741630756E+02 -0.22789489024E+02  0.37256680998E+02  0.41800000000E+01 0. -1.
         -5    1    3    3    0  502  0.12988906734E+03 -0.30294150782E+02 -0.17915382387E+02  0.13463780566E+03  0.41800000000E+01 0. -1.
        -11    1    1    2    0    0 -0.39463026263E+01  0.96825444455E+01  0.75791887766E+01  0.12913910092E+02  0.00000000000E+00 0. -1.
         11    1    1    2    0    0 -0.98816311987E+02  0.31353237092E+02 -0.21836931601E+03  0.24172887119E+03  0.00000000000E+00 0.  1.
</event>
<event>
 7    1  0.2601031E-009  0.1253336E+03  0.7561462E-02  0.1234549E+00
         -2   -1    0    0    0  501 -0.00000000000E+00  0.00000000000E+00  0.29454926011E+02  0.29454926011E+02  0.00000000000E+00 0.  1.
          2   -1    0    0  501    0  0.00000000000E+00 -0.00000000000E+00 -0.72233716340E+03  0.72233716340E+03  0.00000000000E+00 0. -1.
         25    2    1    2    0    0 -0.40298584836E+02 -0.79302620929E+02 -0.27450518591E+03  0.31450512669E+03  0.12508995161E+03 0.  0.
          5    1    3    3  502    0  0.35722813906E+02 -0.11426583335E+02 -0.25849805344E+02  0.45742442834E+02  0.41800000000E+01 0. -1.
         -5    1    3    3    0  502 -0.76021398742E+02 -0.67876037594E+02 -0.24865538057E+03  0.26876268385E+03  0.41800000000E+01 0. -1.
        -11    1    1    2    0    0  0.52122658746E+02  0.83457602549E+02 -0.41127465373E+03  0.42288152452E+03  0.00000000000E+00 0. -1.
         11    1    1    2    0    0 -0.11824073910E+02 -0.41549816198E+01 -0.71023977403E+01  0.14405438200E+02  0.00000000000E+00 0.  1.
</event>
<event>
 7    1  0.2601031E-009  0.1113361E+03  0.7561462E-02  0.1258115E+00
          2   -1    0    0  501    0  0.00000000000E+00  0.00000000000E+00  0.13173381796E+03  0.13173381796E+03  0.00000000000E+00 0.  1.
         -2   -1    0    0    0  501 -0.00000000000E+00 -0.00000000000E+00 -0.97401017055E+02  0.97401017055E+02  0.00000000000E+00 0. -1.
         25    2    1    2    0    0  0.22579218327E+02 -0.19974820481E+02  0.11785696711E+02  0.12920994001E+03  0.12508993324E+03 0.  0.
          5    1    3    3  502    0  0.19632068445E+02 -0.72526484721E+02  0.13146314664E+02  0.76392454383E+02  0.41800000000E+01 0.  1.
         -5    1    3    3    0  502  0.29471498818E+01  0.52551664241E+02 -0.13606179525E+01  0.52817485628E+02  0.41800000000E+01 0.  1.
        -11    1    1    2    0    0 -0.36095966702E+01  0.54823544515E+02  0.24592463168E+02  0.60195011969E+02  0.00000000000E+00 0.  1.
         11    1    1    2    0    0 -0.18969621657E+02 -0.34848724034E+02 -0.20453589733E+01  0.39729883034E+02  0.00000000000E+00 0. -1.
</event>
<event>
 7    1  0.2601031E-009  0.1288321E+03  0.7561462E-02  0.1229199E+00
          1   -1    0    0  501    0  0.00000000000E+00  0.00000000000E+00  0.48109509246E+03  0.48109509246E+03  0.00000000000E+00 0. -1.
         -1   -1    0    0    0  501 -0.00000000000E+00 -0.00000000000E+00 -0.36299674830E+02  0.36299674830E+02  0.00000000000E+00 0.  1.
         25    2    1    2    0    0  0.10676721414E+02  0.68552769827E+02  0.29375639247E+03  0.32673232758E+03  0.12509085154E+03 0.  0.
          5    1    3    3  502    0 -0.49137343840E+02  0.66740266069E+02  0.17559723509E+03  0.19421792669E+03  0.41800000000E+01 0. -1.
         -5    1    3    3    0  502  0.59814065254E+02  0.18125037584E+01  0.11815915738E+03  0.13251440090E+03  0.41800000000E+01 0. -1.
        -11    1    1    2    0    0 -0.28578205335E+02 -0.85434608973E+02  0.13069402649E+03  0.15873473089E+03  0.00000000000E+00 0.  1.
         11    1    1    2    0    0  0.17901483921E+02  0.16881839146E+02  0.20344998665E+02  0.31927708815E+02  0.00000000000E+00 0. -1.
</event>
<event>
 7    1  0.2601031E-009  0.1146284E+03  0.7561462E-02  0.1252231E+00
          1   -1    0    0  501    0  0.00000000000E+00  0.00000000000E+00  0.18605910576E+02  0.18605910576E+02  0.00000000000E+00 0. -1.
         -1   -1    0    0    0  501 -0.00000000000E+00 -0.00000000000E+00 -0.80433079013E+03  0.80433079013E+03  0.00000000000E+00 0.  1.
         25    2    1    2    0    0  0.12308393492E+02  0.30595174148E+02 -0.33370438225E+03  0.35790473471E+03  0.12509845389E+03 0.  0.
          5    1    3    3  502    0 -0.35524789175E+02 -0.33581566096E+02 -0.11821782060E+03  0.12799475667E+03  0.41800000000E+01 0.  1.
         -5    1    3    3    0  502  0.47833182668E+02  0.64176740244E+02 -0.21548656165E+03  0.22990997805E+03  0.41800000000E+01 0.  1.
        -11    1    1    2    0    0 -0.10323820339E+01 -0.64399315440E+02 -0.37059368898E+03  0.37614893321E+03  0.00000000000E+00 0.  1.
         11    1    1    2    0    0 -0.11276011458E+02  0.33804141292E+02 -0.81426808317E+02  0.88883032777E+02  0.00000000000E+00 0. -1.
</event>
<event>
 7    1  0.2601031E-009  0.7534586E+02  0.7561462E-02  0.1342803E+00
         -3   -1    0    0    0  501 -0.00000000000E+00  0.00000000000E+00  0.46884098148E+02  0.46884098148E+02  0.00000000000E+00 0.  1.
          3   -1    0    0  501    0  0.00000000000E+00 -0.00000000000E+00 -0.26030560464E+03  0.26030560464E+03  0.00000000000E+00 0. -1.
         25    2    1    2    0    0 -0.25195064536E+02  0.10777806809E+01 -0.11808312650E+03  0.17385733956E+03  0.12508715707E+03 0.  0.
          5    1    3    3  502    0  0.11693239061E+02 -0.13012598552E+02  0.21906600143E+02  0.28344860039E+02  0.41800000000E+01 0.  1.
         -5    1    3    3    0  502 -0.36888303597E+02  0.14090379232E+02 -0.13998972665E+03  0.14551247952E+03  0.41800000000E+01 0.  1.
        -11    1    1    2    0    0 -0.28780510861E+02  0.20004099106E+02 -0.31612291006E+02  0.47199774673E+02  0.00000000000E+00 0.  1.
         11    1    1    2    0    0  0.53975575398E+02 -0.21081879787E+02 -0.63726088987E+02  0.86132588562E+02  0.00000000000E+00 0. -1.
</event>
<event>
 7    1  0.2601031E-009  0.1100459E+03  0.7561462E-02  0.1260485E+00
         -1   -1    0    0    0  501 -0.00000000000E+00  0.00000000000E+00  0.13609938371E+03  0.13609938371E+03  0.00000000000E+00 0.  1.
          1   -1    0    0  501    0  0.00000000000E+00 -0.00000000000E+00 -0.17120280035E+03  0.17120280035E+03  0.00000000000E+00 0. -1.
         25    2    1    2    0    0 -0.59049644538E+02 -0.84227865424E+02 -0.47249202437E+02  0.16870605548E+03  0.12509217477E+03 0.  0.
          5    1    3    3  502    0 -0.30080615529E+02 -0.34436681569E+02  0.42113299235E+02  0.62303537946E+02  0.41800000000E+01 0. -1.
         -5    1    3    3    0  502 -0.28969029010E+02 -0.49791183855E+02 -0.89362501673E+02  0.10640251753E+03  0.41800000000E+01 0. -1.
        -11    1    1    2    0    0  0.23490857822E+02  0.76507636074E+02  0.43031884354E+02  0.90867936314E+02  0.00000000000E+00 0.  1.
         11    1    1    2    0    0  0.35558786716E+02  0.77202293505E+01 -0.30886098548E+02  0.47728192271E+02  0.00000000000E+00 0. -1.
</event>
<event>
 7    1  0.2601031E-009  0.2724654E+03  0.7561462E-02  0.1099877E+00
         -2   -1    0    0    0  501 -0.00000000000E+00  0.00000000000E+00  0.10103586512E+03  0.10103586512E+03  0.00000000000E+00 0.  1.
          2   -1    0    0  501    0  0.00000000000E+00 -0.00000000000E+00 -0.81895416263E+03  0.81895416263E+03  0.00000000000E+00 0. -1.
         25    2    1    2    0    0  0.35345479762E+02 -0.26477472771E+03 -0.33417507273E+03  0.44572980927E+03  0.12508846574E+03 0.  0.
          5    1    3    3  502    0 -0.10412293974E+02 -0.16054535841E+02 -0.97125869095E+02  0.99081132585E+02  0.41800000000E+01 0.  1.
         -5    1    3    3    0  502  0.45757773736E+02 -0.24872019187E+03 -0.23704920364E+03  0.34664867668E+03  0.41800000000E+01 0.  1.
        -11    1    1    2    0    0 -0.46554093530E+02  0.14909994823E+03 -0.16929150991E+03  0.23034255689E+03  0.00000000000E+00 0.  1.
         11    1    1    2    0    0  0.11208613768E+02  0.11567477948E+03 -0.21445171486E+03  0.24391766160E+03  0.00000000000E+00 0. -1.
</event>
<event>
 7    1  0.2601031E-009  0.1102342E+03  0.7561462E-02  0.1260137E+00
          2   -1    0    0  501    0  0.00000000000E+00  0.00000000000E+00  0.15722153646E+02  0.15722153646E+02  0.00000000000E+00 0. -1.
         -2   -1    0    0    0  501 -0.00000000000E+00 -0.00000000000E+00 -0.82815602770E+03  0.82815602770E+03  0.00000000000E+00 0.  1.
         25    2    1    2    0    0  0.31891385764E+02 -0.14177879645E+02 -0.45830788837E+03  0.47635313260E+03  0.12509242041E+03 0.  0.
          5    1    3    3  502    0  0.78714344909E+02 -0.21799925128E+02 -0.30859391350E+03  0.31924733465E+03  0.41800000000E+01 0. -1.
         -5    1    3    3    0  502 -0.46822959146E+02  0.76220454823E+01 -0.14971397487E+03  0.15710579795E+03  0.41800000000E+01 0. -1.
        -11    1    1    2    0    0 -0.57902205303E+02  0.24767853549E+02 -0.30008763929E+03  0.30662469438E+03  0.00000000000E+00 0.  1.
         11    1    1    2    0    0  0.26010819539E+02 -0.10589973904E+02 -0.54038346395E+02  0.60900354362E+02  0.00000000000E+00 0. -1.
</event>
<event>
 7    1  0.2601031E-009  0.8134307E+02  0.7561462E-02  0.1325283E+00
         -1   -1    0    0    0  501 -0.00000000000E+00  0.00000000000E+00  0.54939785552E+02  0.54939785552E+02  0.00000000000E+00 0.  1.
          1   -1    0    0  501    0  0.00000000000E+00 -0.00000000000E+00 -0.26030689808E+03  0.26030689808E+03  0.00000000000E+00 0. -1.
         25    2    1    2    0    0 -0.40929573799E+02 -0.15275390618E+02 -0.15298631095E+03  0.20238646942E+03  0.12508758570E+03 0.  0.
          5    1    3    3  502    0 -0.24405247484E+02 -0.43098897905E+02 -0.39965500467E+01  0.49865578485E+02  0.41800000000E+01 0.  1.
         -5    1    3    3    0  502 -0.16524326315E+02  0.27823507287E+02 -0.14898976091E+03  0.15252089094E+03  0.41800000000E+01 0.  1.
        -11    1    1    2    0    0  0.44496561002E+02 -0.17182112521E+02 -0.62548785212E+02  0.78660787329E+02  0.00000000000E+00 0. -1.
         11    1    1    2    0    0 -0.35669872031E+01  0.32457503140E+02  0.10167983635E+02  0.34199426881E+02  0.00000000000E+00 0.  1.
</event>
<event>
 7    1  0.2601031E-009  0.9154929E+02  0.7561462E-02  0.1299143E+00
         -1   -1    0    0    0  501 -0.00000000000E+00  0.00000000000E+00  0.38589430131E+03  0.38589430131E+03  0.00000000000E+00 0.  1.
          1   -1    0    0  501    0  0.00000000000E+00 -0.00000000000E+00 -0.94324963551E+02  0.94324963551E+02  0.00000000000E+00 0. -1.
         25    2    1    2    0    0  0.87672954325E+02 -0.11238232458E+02  0.31727557440E+03  0.35231426790E+03  0.12509479791E+03 0.  0.
          5    1    3    3  502    0  0.81040609906E+02 -0.67767851426E+01  0.77649707457E+02  0.11251868618E+03  0.41800000000E+01 0.  1.
         -5    1    3    3    0  502  0.66323444183E+01 -0.44614473153E+01  0.23962586694E+03  0.23979558172E+03  0.41800000000E+01 0.  1.
        -11    1    1    2    0    0 -0.74358881676E+02 -0.12839078682E+01  0.21391273080E+02  0.77385258722E+02  0.00000000000E+00 0.  1.
         11    1    1    2    0    0 -0.13314072649E+02  0.12522140326E+02 -0.47097509727E+02  0.50519738235E+02  0.00000000000E+00 0. -1.
</event>
<event>
 7    1  0.2601031E-009  0.7477121E+02  0.7561462E-02  0.1344581E+00
          1   -1    0    0  501    0  0.00000000000E+00  0.00000000000E+00  0.37650975568E+02  0.37650975568E+02  0.00000000000E+00 0. -1.
         -1   -1    0    0    0  501 -0.00000000000E+00 -0.00000000000E+00 -0.34580658007E+03  0.34580658007E+03  0.00000000000E+00 0.  1.
         25    2    1    2    0    0  0.19493102118E+02  0.56733952152E+01 -0.23084184547E+03  0.26333933104E+03  0.12508987653E+03 0.  0.
          5    1    3    3  502    0  0.29948371862E+02  0.43879534450E+02 -0.35626051382E+02  0.64101532414E+02  0.41800000000E+01 0. -1.
         -5    1    3    3    0  502 -0.10455269744E+02 -0.38206139235E+02 -0.19521579409E+03  0.19923779863E+03  0.41800000000E+01 0. -1.
        -11    1    1    2    0    0 -0.33346893477E+02  0.10655473078E+02  0.47298982653E+01  0.35326001028E+02  0.00000000000E+00 0. -1.
         11    1    1    2    0    0  0.13853791358E+02 -0.16328868293E+02 -0.82043657298E+02  0.84792223568E+02  0.00000000000E+00 0.  1.
</event>
<event>
 7    1  0.2601031E-009  0.7539272E+02  0.7561462E-02  0.1342659E+00
         -1   -1    0    0    0  501 -0.00000000000E+00  0.00000000000E+00  0.21878276957E+03  0.21878276957E+03  0.00000000000E+00 0.  1.
          1   -1    0    0  501    0  0.00000000000E+00 -0.00000000000E+00 -0.77112693301E+02  0.77112693301E+02  0.00000000000E+00 0. -1.
         25    2    1    2    0    0  0.21672474154E+02 -0.43213977914E+02  0.18861478503E+02  0.13542417128E+03  0.12508719668E+03 0.  0.
          5    1    3    3  502    0 -0.81761341702E+00 -0.11381717978E+02 -0.52563296568E+02  0.53949833567E+02  0.41800000000E+01 0.  1.
         -5    1    3    3    0  502  0.22490087571E+02 -0.31832259936E+02  0.71424775071E+02  0.81474337712E+02  0.41800000000E+01 0.  1.
        -11    1    1    2    0    0 -0.35879453880E+02 -0.15456951667E+02  0.27959681741E+02  0.48041610804E+02  0.00000000000E+00 0. -1.
         11    1    1    2    0    0  0.14206979726E+02  0.58670929581E+02  0.94848916022E+02  0.11242968079E+03  0.00000000000E+00 0.  1.
</event>
<event>
 7    1  0.2601031E-009  0.1222311E+03  0.7561462E-02  0.1239461E+00
         -1   -1    0    0    0  501 -0.00000000000E+00  0.00000000000E+00  0.40247180476E+02  0.40247180476E+02  0.00000000000E+00 0.  1.
          1   -1    0    0  501    0  0.00000000000E+00 -0.00000000000E+00 -0.45003785044E+03  0.45003785044E+03  0.00000000000E+00 0. -1.
         25    2    1    2    0    0  0.70582433759E+02 -0.32088892509E+02 -0.21846221392E+03  0.26341107614E+03  0.12509228251E+03 0.  0.
          5    1    3    3  502    0  0.20110504268E+02 -0.61153577608E+02 -0.40634753610E+02  0.76242035893E+02  0.41800000000E+01 0. -1.
         -5    1    3    3    0  502  0.50471929491E+02  0.29064685099E+02 -0.17782746031E+03  0.18716904024E+03  0.41800000000E+01 0. -1.
        -11    1    1    2    0    0  0.21661118254E+02 -0.48446730349E+01 -0.28517233187E+02  0.36137342036E+02  0.00000000000E+00 0. -1.
         11    1    1    2    0    0 -0.92243552012E+02  0.36933565544E+02 -0.16281122286E+03  0.19073661274E+03  0.00000000000E+00 0.  1.
</event>
<event>
 7    1  0.2601031E-009  0.2070619E+03  0.7561462E-02  0.1143914E+00
          1   -1    0    0  501    0  0.00000000000E+00  0.00000000000E+00  0.29567520354E+03  0.29567520354E+03  0.00000000000E+00 0. -1.
         -1   -1    0    0    0  501 -0.00000000000E+00 -0.00000000000E+00 -0.28883387569E+03  0.28883387569E+03  0.00000000000E+00 0.  1.
         25    2    1    2    0    0 -0.16723339725E+03  0.54078342900E+02  0.20932224757E+03  0.30059163850E+03  0.12509217995E+03 0.  0.
          5    1    3    3  502    0 -0.11738734880E+03  0.94877787338E+02  0.14083490649E+03  0.20647887901E+03  0.41800000000E+01 0.  1.
         -5    1    3    3    0  502 -0.49846048452E+02 -0.40799444438E+02  0.68487341073E+02  0.94112759497E+02  0.41800000000E+01 0.  1.
        -11    1    1    2    0    0  0.57288494543E+02  0.25651308757E+02 -0.55354902075E+02  0.83690659166E+02  0.00000000000E+00 0. -1.
         11    1    1    2    0    0  0.10994490271E+03 -0.79729651657E+02 -0.14712601765E+03  0.20022678156E+03  0.00000000000E+00 0.  1.
</event>
<event>
 7    1  0.2601031E-009  0.1790644E+03  0.7561462E-02  0.1168712E+00
          2   -1    0    0  501    0  0.00000000000E+00  0.00000000000E+00  0.90703879875E+03  0.90703879875E+03  0.00000000000E+00 0. -1.
         -2   -1    0    0    0  501 -0.00000000000E+00 -0.00000000000E+00 -0.10773623020E+03  0.10773623020E+03  0.00000000000E+00 0.  1.
         25    2    1    2    0    0 -0.13617244770E+03  0.96854143201E+02  0.79754532679E+03  0.82440873928E+03  0.12509020970E+03 0.  0.
          5    1    3    3  502    0 -0.83161380368E+01  0.26552334662E+01 -0.14375289102E+01  0.97850552362E+01  0.41800000000E+01 0.  1.
         -5    1    3    3    0  502 -0.12785630966E+03  0.94198909735E+02  0.79898285570E+03  0.81462368405E+03  0.41800000000E+01 0.  1.
        -11    1    1    2    0    0  0.13725889766E+03 -0.55242029149E+02  0.84772888205E+01  0.14820104992E+03  0.00000000000E+00 0. -1.
         11    1    1    2    0    0 -0.10864499642E+01 -0.41612114053E+02 -0.67200470577E+01  0.42165239735E+02  0.00000000000E+00 0.  1.
</event>
<event>
 7    1  0.2601031E-009  0.1328359E+03  0.7561462E-02  0.1223307E+00
          1   -1    0    0  501    0  0.00000000000E+00  0.00000000000E+00  0.51189716552E+03  0.51189716552E+03  0.00000000000E+00 0. -1.
         -1   -1    0    0    0  501 -0.00000000000E+00 -0.00000000000E+00 -0.39846780219E+02  0.39846780219E+02  0.00000000000E+00 0.  1.
         25    2    1    2    0    0  0.86426819553E+02  0.14785949886E+02  0.31712114855E+03  0.35199621091E+03  0.12508912895E+03 0.  0.
          5    1    3    3  502    0  0.33166224998E+02  0.66253727249E+02  0.20037090074E+03  0.21367153559E+03  0.41800000000E+01 0.  1.
         -5    1    3    3    0  502  0.53260594555E+02 -0.51467777363E+02  0.11675024781E+03  0.13832467532E+03  0.41800000000E+01 0.  1.
        -11    1    1    2    0    0 -0.51064377056E+01 -0.33456118478E+02  0.15417825268E+02  0.37190010831E+02  0.00000000000E+00 0.  1.
         11    1    1    2    0    0 -0.81320381848E+02  0.18670168592E+02  0.13951141148E+03  0.16255772400E+03  0.00000000000E+00 0. -1.
</event>
<event>
 7    1  0.2601031E-009  0.2115610E+03  0.7561462E-02  0.1140336E+00
          2   -1    0    0  501    0  0.00000000000E+00  0.00000000000E+00  0.12663687065E+04  0.12663687065E+04  0.00000000000E+00 0.  1.
         -2   -1    0    0    0  501 -0.00000000000E+00 -0.00000000000E+00 -0.45629712764E+02  0.45629712764E+02  0.00000000000E+00 0. -1.
         25    2    1    2    0    0 -0.38941146338E+02  0.20480785857E+03  0.50186264326E+03  0.55765422041E+03  0.12509774191E+03 0.  0.
          5    1    3    3  502    0 -0.43638346077E+02  0.10170069136E+03  0.38987847417E+03  0.40530239685E+03  0.41800000000E+01 0. -1.
         -5    1    3    3    0  502  0.46971997392E+01  0.10310716721E+03  0.11198416909E+03  0.15235182356E+03  0.41800000000E+01 0. -1.
        -11    1    1    2    0    0  0.23095332584E+02 -0.79998968820E+02  0.44805638019E+03  0.45572771391E+03  0.00000000000E+00 0.  1.
         11    1    1    2    0    0  0.15845813754E+02 -0.12480888975E+03  0.27081997027E+03  0.29861648492E+03  0.00000000000E+00 0. -1.
</event>
<event>
 7    1  0.2601031E-009  0.8032341E+02  0.7561462E-02  0.1328136E+00
          2   -1    0    0  501    0  0.00000000000E+00  0.00000000000E+00  0.23735483008E+03  0.23735483008E+03  0.00000000000E+00 0. -1.
         -2   -1    0    0    0  501 -0.00000000000E+00 -0.00000000000E+00 -0.56272306516E+02  0.56272306516E+02  0.00000000000E+00 0.  1.
         25    2    1    2    0    0  0.26018422337E+02  0.20994915207E+02  0.13932895283E+03  0.19020445809E+03  0.12508970387E+03 0.  0.
          5    1    3    3  502    0 -0.19687445092E+02 -0.33095177957E+02  0.10395228565E+03  0.11093437876E+03  0.41800000000E+01 0. -1.
         -5    1    3    3    0  502  0.45705867428E+02  0.54090093165E+02  0.35376667174E+02  0.79270079326E+02  0.41800000000E+01 0. -1.
        -11    1    1    2    0    0 -0.14242722129E+01  0.10734740495E+02 -0.24029854274E+02  0.26357107225E+02  0.00000000000E+00 0.  1.
         11    1    1    2    0    0 -0.24594150124E+02 -0.31729655703E+02  0.65783425012E+02  0.77065571286E+02  0.00000000000E+00 0. -1.
</event>
<event>
 7    1  0.2601031E-009  0.1420503E+03  0.7561462E-02  0.1210596E+00
          2   -1    0    0  501    0  0.00000000000E+00  0.00000000000E+00  0.16456506654E+03  0.16456506654E+03  0.00000000000E+00 0.  1.
         -2   -1    0    0    0  501 -0.00000000000E+00 -0.00000000000E+00 -0.13609879169E+03  0.13609879169E+03  0.00000000000E+00 0. -1.
         25    2    1    2    0    0  0.91547523176E+02  0.46806164158E+02  0.78050641384E+01  0.16211245840E+03  0.12509102342E+03 0.  0.
          5    1    3    3  502    0  0.10354539405E+03 -0.83780532375E+00 -0.19939525062E+02  0.10553391686E+03  0.41800000000E+01 0.  1.
         -5    1    3    3    0  502 -0.11997870876E+02  0.47643969481E+02  0.27744589200E+02  0.56578541545E+02  0.41800000000E+01 0.  1.
        -11    1    1    2    0    0 -0.88788926558E+02 -0.46482923122E+01  0.32519027875E+02  0.94670836453E+02  0.00000000000E+00 0.  1.
         11    1    1    2    0    0 -0.27585966178E+01 -0.42157871845E+02 -0.11857817166E+02  0.43880563371E+02  0.00000000000E+00 0. -1.
</event>
<event>
 7    1  0.2601031E-009  0.1053115E+03  0.7561462E-02  0.1269507E+00
         -1   -1    0    0    0  501 -0.00000000000E+00  0.00000000000E+00  0.62408323535E+03  0.62408323535E+03  0.00000000000E+00 0.  1.
          1   -1    0    0  501    0  0.00000000000E+00 -0.00000000000E+00 -0.41561552336E+02  0.41561552336E+02  0.00000000000E+00 0. -1.
         25    2    1    2    0    0  0.60600434950E+02  0.19259622195E+02  0.52154932192E+03  0.54009668644E+03  0.12508952692E+03 0.  0.
          5    1    3    3  502    0 -0.28183580584E+02 -0.23237334398E+02  0.85740330415E+02  0.93290752940E+02  0.41800000000E+01 0. -1.
         -5    1    3    3    0  502  0.88784015534E+02  0.42496956592E+02  0.43580899150E+03  0.44680593350E+03  0.41800000000E+01 0. -1.
        -11    1    1    2    0    0 -0.29970865414E+02  0.11337516058E+02 -0.17066087310E+02  0.36304867168E+02  0.00000000000E+00 0. -1.
         11    1    1    2    0    0 -0.30629569536E+02 -0.30597138253E+02  0.78038448404E+02  0.89243234077E+02  0.00000000000E+00 0.  1.
</event>
<event>
 7    1  0.2601031E-009  0.2393548E+03  0.7561462E-02  0.1120223E+00
          1   -1    0    0  501    0  0.00000000000E+00  0.00000000000E+00  0.40006137292E+03  0.40006137292E+03  0.00000000000E+00 0. -1.
         -1   -1    0    0    0  501 -0.00000000000E+00 -0.00000000000E+00 -0.18528684471E+03  0.18528684471E+03  0.00000000000E+00 0.  1.
         25    2    1    2    0    0  0.14996782811E+02  0.22106427388E+03  0.23261880045E+03  0.34475034343E+03  0.12508787428E+03 0.  0.
          5    1    3    3  502    0 -0.55123217569E+02  0.10399904995E+03  0.10201916333E+03  0.15581961877E+03  0.41800000000E+01 0. -1.
         -5    1    3    3    0  502  0.70120000380E+02  0.11706522393E+03  0.13059963712E+03  0.18893072467E+03  0.41800000000E+01 0. -1.
        -11    1    1    2    0    0 -0.25229805133E+02 -0.10921619027E+03  0.33659037283E+02  0.11703696030E+03  0.00000000000E+00 0.  1.
         11    1    1    2    0    0  0.10233022322E+02 -0.11184808361E+03 -0.51503309529E+02  0.12356091390E+03  0.00000000000E+00 0. -1.
</event>
<event>
 7    1  0.4267404E-009  0.2142102E+03  0.7561462E-02  0.1138275E+00
          1   -1    0    0  501    0  0.00000000000E+00  0.00000000000E+00  0.94618386538E+03  0.94618386538E+03  0.00000000000E+00 0. -1.
         -1   -1    0    0    0  501 -0.00000000000E+00 -0.00000000000E+00 -0.57491376877E+02  0.57491376877E+02  0.00000000000E+00 0.  1.
         25    2    1    2    0    0  0.20068496589E+03 -0.21937984526E+02  0.54823956442E+03  0.59746923616E+03  0.12508851851E+03 0.  0.
          5    1    3    3  502    0  0.20900164430E+03 -0.91839155366E+01  0.43031057993E+03  0.47848793007E+03  0.41800000000E+01 0.  1.
         -5    1    3    3    0  502 -0.83166784117E+01 -0.12754068989E+02  0.11792898449E+03  0.11898130609E+03  0.41800000000E+01 0.  1.
        -11    1    1    2    0    0 -0.13763420748E+03  0.34381426143E+01  0.29719627541E+03  0.32753720707E+03  0.00000000000E+00 0.  1.
         11    1    1    2    0    0 -0.63050758407E+02  0.18499841912E+02  0.43256648667E+02  0.78668799027E+02  0.00000000000E+00 0. -1.
</event>
<event>
 7    1  0.2601031E-009  0.8402781E+02  0.7561462E-02  0.1317995E+00
          2   -1    0    0  501    0  0.00000000000E+00  0.00000000000E+00  0.81681426534E+03  0.81681426534E+03  0.00000000000E+00 0. -1.
         -2   -1    0    0    0  501 -0.00000000000E+00 -0.00000000000E+00 -0.15788842993E+02  0.15788842993E+02  0.00000000000E+00 0.  1.
         25    2    1    2    0    0  0.79340484944E+01  0.29715674815E+02  0.41568060786E+03  0.43518307302E+03  0.12509184161E+03 0.  0.
          5    1    3    3  502    0 -0.26914328509E+02 -0.45443234437E+01  0.35968848282E+03  0.36074687667E+03  0.41800000000E+01 0. -1.
         -5    1    3    3    0  502  0.34848377003E+02  0.34259998259E+02  0.55992125040E+02  0.74436196349E+02  0.41800000000E+01 0. -1.
        -11    1    1    2    0    0 -0.46001574514E+02 -0.56231174829E+01  0.12732933405E+03  0.13550100966E+03  0.00000000000E+00 0.  1.
         11    1    1    2    0    0  0.38067526020E+02 -0.24092557332E+02  0.25801548044E+03  0.26191902566E+03  0.00000000000E+00 0. -1.
</event>
<event>
 7    1  0.2679753E-009  0.1150760E+03  0.7561462E-02  0.1251448E+00
         -3   -1    0    0    0  501 -0.00000000000E+00  0.00000000000E+00  0.51597543105E+02  0.51597543105E+02  0.00000000000E+00 0.  1.
          3   -1    0    0  501    0  0.00000000000E+00 -0.00000000000E+00 -0.37452023221E+03  0.37452023221E+03  0.00000000000E+00 0. -1.
         25    2    1    2    0    0 -0.71964819384E+02  0.48010493733E+02 -0.18588268800E+03  0.24017587603E+03  0.12509250575E+03 0.  0.
          5    1    3    3  502    0  0.11551120021E+01  0.33265823067E+02  0.61645869322E+01  0.34108998814E+02  0.41800000000E+01 0.  1.
         -5    1    3    3    0  502 -0.73119931386E+02  0.14744670666E+02 -0.19204727493E+03  0.20606687722E+03  0.41800000000E+01 0.  1.
        -11    1    1    2    0    0  0.91944228614E+01 -0.57659753491E+02 -0.43201327244E+02  0.72632907556E+02  0.00000000000E+00 0.  1.
         11    1    1    2    0    0  0.62770396523E+02  0.96492597583E+01 -0.93838673867E+02  0.11330899173E+03  0.00000000000E+00 0. -1.
</event>
<event>
 7    1  0.2601031E-009  0.1135774E+03  0.7561462E-02  0.1254085E+00
         -2   -1    0    0    0  501 -0.00000000000E+00  0.00000000000E+00  0.78556365028E+02  0.78556365028E+02  0.00000000000E+00 0. -1.
          2   -1    0    0  501    0  0.00000000000E+00 -0.00000000000E+00 -0.27185132736E+03  0.27185132736E+03  0.00000000000E+00 0.  1.
         25    2    1    2    0    0 -0.81648825755E+02 -0.31674463205E+02 -0.53064211770E+02  0.16166238767E+03  0.12509642141E+03 0.  0.
          5    1    3    3  502    0 -0.47492242082E+02 -0.63633298200E+02 -0.75472010003E+02  0.10962758043E+03  0.41800000000E+01 0. -1.
         -5    1    3    3    0  502 -0.34156583673E+02  0.31958834995E+02  0.22407798233E+02  0.52034807236E+02  0.41800000000E+01 0. -1.
        -11    1    1    2    0    0  0.30108993743E+01 -0.10864109345E+02  0.92396958265E+01  0.14576226051E+02  0.00000000000E+00 0. -1.
         11    1    1    2    0    0  0.78637926381E+02  0.42538572550E+02 -0.14947044639E+03  0.17416907866E+03  0.00000000000E+00 0.  1.
</event>
<event>
 7    1  0.2601031E-009  0.1310500E+03  0.7561462E-02  0.1225906E+00
         -1   -1    0    0    0  501 -0.00000000000E+00  0.00000000000E+00  0.52943420407E+02  0.52943420407E+02  0.00000000000E+00 0.  1.
          1   -1    0    0  501    0  0.00000000000E+00 -0.00000000000E+00 -0.49577525978E+03  0.49577525978E+03  0.00000000000E+00 0. -1.
         25    2    1    2    0    0  0.89977077771E+02 -0.52175693025E+02 -0.33747814147E+03  0.37464331963E+03  0.12509174036E+03 0.  0.
          5    1    3    3  502    0  0.12104660048E+01 -0.37426622082E+02 -0.16267347285E+02  0.41040422221E+02  0.41800000000E+01 0. -1.
         -5    1    3    3    0  502  0.88766611766E+02 -0.14749070944E+02 -0.32121079419E+03  0.33360289741E+03  0.41800000000E+01 0. -1.
        -11    1    1    2    0    0 -0.87934966324E+02  0.60209989578E+01 -0.47784631245E+02  0.10026056909E+03  0.00000000000E+00 0. -1.
         11    1    1    2    0    0 -0.20421114471E+01  0.46154694068E+02 -0.57569066655E+02  0.73814791466E+02  0.00000000000E+00 0.  1.
</event>
<event>
 7    1  0.2601031E-009  0.1103127E+03  0.7561462E-02  0.1259992E+00
          2   -1    0    0  501    0  0.00000000000E+00  0.00000000000E+00  0.37121096542E+03  0.37121096542E+03  0.00000000000E+00 0. -1.
         -2   -1    0    0    0  501 -0.00000000000E+00 -0.00000000000E+00 -0.48078096477E+02  0.48078096477E+02  0.00000000000E+00 0.  1.
         25    2    1    2    0    0  0.66807796413E+02  0.36133706189E+02  0.15425943479E+03  0.21263113737E+03  0.12508837265E+03 0.  0.
          5    1    3    3  502    0  0.39913053193E+02 -0.43667542794E+02  0.84295159335E+02  0.10306819294E+03  0.41800000000E+01 0.  1.
         -5    1    3    3    0  502  0.26894743220E+02  0.79801248982E+02  0.69964275458E+02  0.10956294443E+03  0.41800000000E+01 0.  1.
        -11    1    1    2    0    0 -0.44000781125E+02 -0.16783068553E+02  0.14298362463E+02  0.49215681431E+02  0.00000000000E+00 0.  1.
         11    1    1    2    0    0 -0.22807015288E+02 -0.19350637636E+02  0.15457507169E+03  0.15744224309E+03  0.00000000000E+00 0. -1.
</event>
<event>
 7    1  0.2601031E-009  0.7480431E+02  0.7561462E-02  0.1344478E+00
          2   -1    0    0  501    0  0.00000000000E+00  0.00000000000E+00  0.22315752033E+03  0.22315752033E+03  0.00000000000E+00 0. -1.
         -2   -1    0    0    0  501 -0.00000000000E+00 -0.00000000000E+00 -0.84108432891E+02  0.84108432891E+02  0.00000000000E+00 0.  1.
         25    2    1    2    0    0  0.18989184986E+02  0.43499959773E+02  0.15464466425E+03  0.20448798275E+03  0.12509007658E+03 0.  0.
          5    1    3    3  502    0  0.30398542669E+02  0.21350321200E+02 -0.93708236338E+01  0.38538193359E+02  0.41800000000E+01 0. -1.
         -5    1    3    3    0  502 -0.11409357683E+02  0.22149638573E+02  0.16401548789E+03  0.16594978939E+03  0.41800000000E+01 0. -1.
        -11    1    1    2    0    0 -0.46157077323E+02 -0.17512465030E+02  0.17813068250E+02  0.52483022197E+02  0.00000000000E+00 0. -1.
         11    1    1    2    0    0  0.27167892336E+02 -0.25987494743E+02 -0.33408645065E+02  0.50294948276E+02  0.00000000000E+00 0.  1.
</event>
<event>
 7    1  0.2601031E-009  0.9538573E+02  0.7561462E-02  0.1290310E+00
          1   -1    0    0  501    0  0.00000000000E+00  0.00000000000E+00  0.16800574798E+02  0.16800574798E+02  0.00000000000E+00 0.  1.
         -1   -1    0    0    0  501 -0.00000000000E+00 -0.00000000000E+00 -0.74701858559E+03  0.74701858559E+03  0.00000000000E+00 0. -1.
         25    2    1    2    0    0 -0.48257491739E+01  0.25549156326E+02 -0.47708651072E+03  0.49389804073E+03  0.12509072182E+03 0.  0.
          5    1    3    3  502    0 -0.31487262286E+02  0.51975648109E+02 -0.11766159769E+03  0.13249392308E+03  0.41800000000E+01 0. -1.
         -5    1    3    3    0  502  0.26661513112E+02 -0.26426491783E+02 -0.35942491303E+03  0.36140411765E+03  0.41800000000E+01 0. -1.
        -11    1    1    2    0    0  0.34192240104E+02  0.18706274753E+02 -0.13253505640E+03  0.13814693328E+03  0.00000000000E+00 0. -1.
         11    1    1    2    0    0 -0.29366490930E+02 -0.44255431079E+02 -0.12059644367E+03  0.13177418637E+03  0.00000000000E+00 0.  1.
</event>
<event>
 7    1  0.2601031E-009  0.1458372E+03  0.7561462E-02  0.1205684E+00
          2   -1    0    0  501    0  0.00000000000E+00  0.00000000000E+00  0.28023391550E+03  0.28023391550E+03  0.00000000000E+00 0. -1.
         -2   -1    0    0    0  501 -0.00000000000E+00 -0.00000000000E+00 -0.80085179331E+02  0.80085179331E+02  0.00000000000E+00 0.  1.
         25    2    1    2    0    0 -0.63150752198E+02  0.75897684698E+02  0.13934456591E+03  0.21168753731E+03  0.12508488860E+03 0.  0.
          5    1    3    3  502    0 -0.81024503813E+02  0.51415599985E+00  0.61764662353E+02  0.10196852696E+03  0.41800000000E+01 0. -1.
         -5    1    3    3    0  502  0.17873751615E+02  0.75383528698E+02  0.77579903556E+02  0.10971901035E+03  0.41800000000E+01 0. -1.
        -11    1    1    2    0    0  0.95830987129E-01 -0.69583980075E+02  0.17106985300E+02  0.71656042402E+02  0.00000000000E+00 0.  1.
         11    1    1    2    0    0  0.63054921211E+02 -0.63137046234E+01  0.43697184960E+02  0.76975515123E+02  0.00000000000E+00 0. -1.
</event>
<event>
 7    1  0.2601031E-009  0.1302246E+03  0.7561462E-02  0.1227123E+00
          1   -1    0    0  501    0  0.00000000000E+00  0.00000000000E+00  0.46673765022E+03  0.46673765022E+03  0.00000000000E+00 0. -1.
         -1   -1    0    0    0  501 -0.00000000000E+00 -0.00000000000E+00 -0.65180601106E+02  0.65180601106E+02  0.00000000000E+00 0.  1.
         25    2    1    2    0    0 -0.16192233393E+02 -0.78068533167E+02  0.42443703907E+02  0.15429150197E+03  0.12509002873E+03 0.  0.
          5    1    3    3  502    0  0.50264312859E+02 -0.11391514718E+02  0.20008845999E+01  0.51746919656E+02  0.41800000000E+01 0. -1.
         -5    1    3    3    0  502 -0.66456546252E+02 -0.66677018449E+02  0.40442819307E+02  0.10254458232E+03  0.41800000000E+01 0. -1.
        -11    1    1    2    0    0  0.25796239686E+01 -0.17644601374E+02  0.88093968968E+02  0.89880664138E+02  0.00000000000E+00 0.  1.
         11    1    1    2    0    0  0.13612609424E+02  0.95713134541E+02  0.27101937624E+03  0.28774608521E+03  0.00000000000E+00 0. -1.
</event>
<event>
 7    1  0.2601031E-009  0.1668855E+03  0.7561462E-02  0.1181135E+00
          2   -1    0    0  501    0  0.00000000000E+00  0.00000000000E+00  0.11786717596E+03  0.11786717596E+03  0.00000000000E+00 0. -1.
         -2   -1    0    0    0  501 -0.00000000000E+00 -0.00000000000E+00 -0.37047656002E+03  0.37047656002E+03  0.00000000000E+00 0.  1.
         25    2    1    2    0    0  0.88113563502E+01  0.16498959204E+03 -0.55041474401E+02  0.21442116615E+03  0.12509063556E+03 0.  0.
          5    1    3    3  502    0 -0.44349529539E+01  0.12101286548E+03 -0.94552123869E+02  0.15369241669E+03  0.41800000000E+01 0.  1.
         -5    1    3    3    0  502  0.13246309304E+02  0.43976726563E+02  0.39510649468E+02  0.60728749458E+02  0.41800000000E+01 0.  1.
        -11    1    1    2    0    0  0.64832349214E+01 -0.34521185472E+02 -0.11143685252E+03  0.11684141680E+03  0.00000000000E+00 0.  1.
         11    1    1    2    0    0 -0.15294591272E+02 -0.13046840657E+03 -0.86131057142E+02  0.15708115304E+03  0.00000000000E+00 0. -1.
</event>
<event>
 7    1  0.2601031E-009  0.1080119E+03  0.7561462E-02  0.1264297E+00
         -1   -1    0    0    0  501 -0.00000000000E+00  0.00000000000E+00  0.16609274035E+02  0.16609274035E+02  0.00000000000E+00 0.  1.
          1   -1    0    0  501    0  0.00000000000E+00 -0.00000000000E+00 -0.92026840428E+03  0.92026840428E+03  0.00000000000E+00 0. -1.
         25    2    1    2    0    0  0.57783144544E+02  0.58930069349E+01 -0.48845166449E+03  0.50754890182E+03  0.12508892786E+03 0.  0.
          5    1    3    3  502    0  0.73893130875E+02 -0.26362571145E+02 -0.44027255049E+03  0.44722765015E+03  0.41800000000E+01 0.  1.
         -5    1    3    3    0  502 -0.16109986332E+02  0.32255578080E+02 -0.48179114001E+02  0.60321251668E+02  0.41800000000E+01 0.  1.
        -11    1    1    2    0    0 -0.79375141407E+02 -0.37627334106E+01 -0.37795672617E+03  0.38621996077E+03  0.00000000000E+00 0. -1.
         11    1    1    2    0    0  0.21591996863E+02 -0.21302735242E+01 -0.37250739582E+02  0.43108815725E+02  0.00000000000E+00 0.  1.
</event>
<event>
 7    1  0.2601031E-009  0.1666569E+03  0.7561462E-02  0.1181380E+00
         -1   -1    0    0    0  501 -0.00000000000E+00  0.00000000000E+00  0.11734987966E+03  0.11734987966E+03  0.00000000000E+00 0.  1.
          1   -1    0    0  501    0  0.00000000000E+00 -0.00000000000E+00 -0.27834102283E+03  0.27834102283E+03  0.00000000000E+00 0. -1.
         25    2    1    2    0    0  0.11415092082E+03 -0.46565053720E+02 -0.12442205508E+02  0.17607113075E+03  0.12508995824E+03 0.  0.
          5    1    3    3  502    0  0.86597016060E+02 -0.86808842318E+02  0.81643925589E+01  0.12295913143E+03  0.41800000000E+01 0.  1.
         -5    1    3    3    0  502  0.27553904764E+02  0.40243788598E+02 -0.20606598067E+02  0.53111999325E+02  0.41800000000E+01 0.  1.
        -11    1    1    2    0    0 -0.89859484610E+02 -0.18919562627E+02 -0.87885163353E+02  0.12710813806E+03  0.00000000000E+00 0.  1.
         11    1    1    2    0    0 -0.24291436214E+02  0.65484616347E+02 -0.60663774309E+02  0.92511633673E+02  0.00000000000E+00 0. -1.
</event>
<event>
 7    1  0.2601031E-009  0.1038871E+03  0.7561462E-02  0.1272328E+00
         -3   -1    0    0    0  501 -0.00000000000E+00  0.00000000000E+00  0.13169551167E+03  0.13169551167E+03  0.00000000000E+00 0.  1.
          3   -1    0    0  501    0  0.00000000000E+00 -0.00000000000E+00 -0.12137542335E+03  0.12137542335E+03  0.00000000000E+00 0. -1.
         25    2    1    2    0    0  0.37562431038E+00  0.95825676549E+01 -0.58913822256E+02  0.13860233786E+03  0.12509117839E+03 0.  0.
          5    1    3    3  502    0 -0.56910641597E+02 -0.67301449398E+01 -0.41957127264E+01  0.57612432540E+02  0.41800000000E+01 0.  1.
         -5    1    3    3    0  502  0.57286265907E+02  0.16312712595E+02 -0.54718109530E+02  0.80989905323E+02  0.41800000000E+01 0.  1.
        -11    1    1    2    0    0 -0.39460282041E+02 -0.27001470739E+02  0.30227807143E+02  0.56567778863E+02  0.00000000000E+00 0.  1.
         11    1    1    2    0    0  0.39084657731E+02  0.17418903085E+02  0.39006103436E+02  0.57900818300E+02  0.00000000000E+00 0. -1.
</event>
<event>
 7    1  0.2601031E-009  0.7799919E+02  0.7561462E-02  0.1334827E+00
         -2   -1    0    0    0  501 -0.00000000000E+00  0.00000000000E+00  0.15331329982E+03  0.15331329982E+03  0.00000000000E+00 0. -1.
          2   -1    0    0  501    0  0.00000000000E+00 -0.00000000000E+00 -0.26868380174E+03  0.26868380174E+03  0.00000000000E+00 0.  1.
         25    2    1    2    0    0  0.20182348679E+02 -0.77923431599E+00  0.11583461088E+03  0.17166723190E+03  0.12507616489E+03 0.  0.
          5    1    3    3  502    0 -0.96297051629E+01  0.22515012068E+02 -0.19183125763E+02  0.31386648499E+02  0.41800000000E+01 0. -1.
         -5    1    3    3    0  502  0.29812053842E+02 -0.23294246384E+02  0.13501773665E+03  0.14028058340E+03  0.41800000000E+01 0. -1.
        -11    1    1    2    0    0  0.31961934789E+02 -0.19161274731E+02 -0.12373163462E+03  0.12922165890E+03  0.00000000000E+00 0.  1.
         11    1    1    2    0    0 -0.52144283467E+02  0.19940509047E+02 -0.10747347819E+03  0.12110821076E+03  0.00000000000E+00 0. -1.
</event>
<event>
 7    1  0.2601031E-009  0.1173622E+03  0.7561462E-02  0.1247513E+00
          2   -1    0    0  501    0  0.00000000000E+00  0.00000000000E+00  0.51951456451E+03  0.51951456451E+03  0.00000000000E+00 0. -1.
         -2   -1    0    0    0  501 -0.00000000000E+00 -0.00000000000E+00 -0.57214988854E+02  0.57214988854E+02  0.00000000000E+00 0.  1.
         25    2    1    2    0    0  0.37967185183E+02  0.77508314398E+02  0.41605015516E+03  0.44294127058E+03  0.12510072590E+03 0.  0.
          5    1    3    3  502    0 -0.24412816881E+02  0.79016333992E+01  0.25775721129E+03  0.25906499920E+03  0.41800000000E+01 0. -1.
         -5    1    3    3    0  502  0.62380002064E+02  0.69606680998E+02  0.15829294387E+03  0.18387627138E+03  0.41800000000E+01 0. -1.
        -11    1    1    2    0    0  0.16481387550E+02  0.41706535469E+01  0.29725278536E+02  0.34243578531E+02  0.00000000000E+00 0. -1.
         11    1    1    2    0    0 -0.54448572733E+02 -0.81678967944E+02  0.16524141957E+02  0.99544704252E+02  0.00000000000E+00 0.  1.
</event>
<event>
 7    1  0.3465277E-009  0.1146119E+03  0.7561462E-02  0.1252260E+00
         -4   -1    0    0    0  501 -0.00000000000E+00  0.00000000000E+00  0.92686545591E+02  0.92686545591E+02  0.00000000000E+00 0.  1.
          4   -1    0    0  501    0  0.00000000000E+00 -0.00000000000E+00 -0.21218233903E+03  0.21218233903E+03  0.00000000000E+00 0. -1.
         25    2    1    2    0    0  0.36525082459E+02 -0.64510088821E+02 -0.11819172650E+03  0.18738487362E+03  0.12509265941E+03 0.  0.
          5    1    3    3  502    0  0.65612494521E+02 -0.71970032989E+02 -0.12272690672E+03  0.15672922867E+03  0.41800000000E+01 0.  1.
         -5    1    3    3    0  502 -0.29087412062E+02  0.74599441676E+01  0.45351802193E+01  0.30655644946E+02  0.41800000000E+01 0.  1.
        -11    1    1    2    0    0 -0.43214149359E+02  0.72996029672E+01  0.28848555299E+02  0.52468905565E+02  0.00000000000E+00 0.  1.
         11    1    1    2    0    0  0.66890668998E+01  0.57210485854E+02 -0.30152622236E+02  0.65015105440E+02  0.00000000000E+00 0. -1.
</event>
<event>
 7    1  0.2601031E-009  0.1125751E+03  0.7561462E-02  0.1255874E+00
         -1   -1    0    0    0  501 -0.00000000000E+00  0.00000000000E+00  0.81903789989E+02  0.81903789989E+02  0.00000000000E+00 0.  1.
          1   -1    0    0  501    0  0.00000000000E+00 -0.00000000000E+00 -0.47001821489E+03  0.47001821489E+03  0.00000000000E+00 0. -1.
         25    2    1    2    0    0 -0.30949804587E+02 -0.33275070450E+02 -0.42305469506E+03  0.44349786619E+03  0.12509980650E+03 0.  0.
          5    1    3    3  502    0 -0.59700898768E+02  0.27132456633E+02 -0.22565575610E+03  0.23502842419E+03  0.41800000000E+01 0. -1.
         -5    1    3    3    0  502  0.28751094180E+02 -0.60407527083E+02 -0.19739893896E+03  0.20846944200E+03  0.41800000000E+01 0. -1.
        -11    1    1    2    0    0 -0.27202572626E+02  0.46655589877E+01  0.33757880922E+02  0.43604379625E+02  0.00000000000E+00 0.  1.
         11    1    1    2    0    0  0.58152377214E+02  0.28609511462E+02  0.11823892297E+01  0.64819759071E+02  0.00000000000E+00 0. -1.
</event>
<event>
 7    1  0.2601031E-009  0.8337393E+02  0.7561462E-02  0.1319740E+00
          1   -1    0    0  501    0  0.00000000000E+00  0.00000000000E+00  0.12384181204E+03  0.12384181204E+03  0.00000000000E+00 0. -1.
         -1   -1    0    0    0  501 -0.00000000000E+00 -0.00000000000E+00 -0.19734759549E+03  0.19734759549E+03  0.00000000000E+00 0.  1.
         25    2    1    2    0    0  0.87417733061E-01 -0.52000504504E+02  0.63243179603E+02  0.14950022567E+03  0.12508620067E+03 0.  0.
          5    1    3    3  502    0 -0.16275946006E+02 -0.45441422516E+02 -0.28348885875E+02  0.56133421676E+02  0.41800000000E+01 0. -1.
         -5    1    3    3    0  502  0.16363363739E+02 -0.65590819883E+01  0.91592065478E+02  0.93366803993E+02  0.41800000000E+01 0. -1.
        -11    1    1    2    0    0  0.38144986325E+02  0.33303554203E+01 -0.75288837451E+02  0.84466207999E+02  0.00000000000E+00 0.  1.
         11    1    1    2    0    0 -0.38232404058E+02  0.48670149084E+02 -0.61460125597E+02  0.87222973868E+02  0.00000000000E+00 0. -1.
</event>
<event>
 7    1  0.2601031E-009  0.8350918E+02  0.7561462E-02  0.1319378E+00
          1   -1    0    0  501    0  0.00000000000E+00  0.00000000000E+00  0.33969522164E+03  0.33969522164E+03  0.00000000000E+00 0. -1.
         -1   -1    0    0    0  501 -0.00000000000E+00 -0.00000000000E+00 -0.40007484359E+02  0.40007484359E+02  0.00000000000E+00 0.  1.
         25    2    1    2    0    0 -0.21514430340E+02 -0.30438939016E+02  0.14729129498E+03  0.19681049209E+03  0.12510093723E+03 0.  0.
          5    1    3    3  502    0 -0.44843169834E+02 -0.31161035780E+01  0.15359807664E+03  0.16009516398E+03  0.41800000000E+01 0. -1.
         -5    1    3    3    0  502  0.23328739494E+02 -0.27322835438E+02 -0.63067816618E+01  0.36715328102E+02  0.41800000000E+01 0. -1.
        -11    1    1    2    0    0  0.18655168085E+02  0.56492775592E+02  0.51629042312E+02  0.78771866809E+02  0.00000000000E+00 0.  1.
         11    1    1    2    0    0  0.28592622547E+01 -0.26053836577E+02  0.10076739999E+03  0.10412034710E+03  0.00000000000E+00 0. -1.
</event>
<event>
 7    1  0.2601031E-009  0.1140470E+03  0.7561462E-02  0.1253254E+00
          2   -1    0    0  501    0  0.00000000000E+00  0.00000000000E+00  0.86755387957E+02  0.86755387957E+02  0.00000000000E+00 0. -1.
         -2   -1    0    0    0  501 -0.00000000000E+00 -0.00000000000E+00 -0.21428975917E+03  0.21428975917E+03  0.00000000000E+00 0.  1.
         25    2    1    2    0    0 -0.51561338115E+02  0.57618191673E+02 -0.97422099949E+02  0.17640008231E+03  0.12508995116E+03 0.  0.
          5    1    3    3  502    0  0.30359674508E+02 -0.17811326781E+02 -0.19889707202E+02  0.40645123330E+02  0.41800000000E+01 0.  1.
         -5    1    3    3    0  502 -0.81921012623E+02  0.75429518454E+02 -0.77532392747E+02  0.13575495898E+03  0.41800000000E+01 0.  1.
        -11    1    1    2    0    0  0.10796997081E+02 -0.30230815904E+02 -0.59361009847E+02  0.67484863979E+02  0.00000000000E+00 0.  1.
         11    1    1    2    0    0  0.40764341033E+02 -0.27387375769E+02  0.29248738580E+02  0.57160200839E+02  0.00000000000E+00 0. -1.
</event>
<event>
 7    1  0.2601031E-009  0.1935952E+03  0.7561462E-02  0.1155258E+00
         -2   -1    0    0    0  501 -0.00000000000E+00  0.00000000000E+00  0.43827937784E+02  0.43827937784E+02  0.00000000000E+00 0.  1.
          2   -1    0    0  501    0  0.00000000000E+00 -0.00000000000E+00 -0.11317903275E+04  0.11317903275E+04  0.00000000000E+00 0. -1.
         25    2    1    2    0    0  0.10129038133E+03 -0.11229052568E+03 -0.77637993573E+03  0.80080089757E+03  0.12508944574E+03 0.  0.
          5    1    3    3  502    0  0.35549902921E+02  0.16724811527E+02 -0.30821476837E+03  0.31073675476E+03  0.41800000000E+01 0.  1.
         -5    1    3    3    0  502  0.65740478412E+02 -0.12901533721E+03 -0.46816516736E+03  0.49006414281E+03  0.41800000000E+01 0.  1.
        -11    1    1    2    0    0 -0.10253441917E+03  0.14085933142E+03 -0.29244135071E+03  0.34040652456E+03  0.00000000000E+00 0. -1.
         11    1    1    2    0    0  0.12440378317E+01 -0.28568805739E+02 -0.19141103273E+02  0.34410843146E+02  0.00000000000E+00 0.  1.
</event>
<event>
 7    1  0.2601031E-009  0.2073103E+03  0.7561462E-02  0.1143714E+00
          2   -1    0    0  501    0  0.00000000000E+00  0.00000000000E+00  0.10046556053E+04  0.10046556053E+04  0.00000000000E+00 0.  1.
         -2   -1    0    0    0  501 -0.00000000000E+00 -0.00000000000E+00 -0.46578353238E+02  0.46578353238E+02  0.00000000000E+00 0. -1.
         25    2    1    2    0    0  0.15841579101E+03 -0.10130235711E+03  0.40963768967E+03  0.46776878257E+03  0.12508743644E+03 0.  0.
          5    1    3    3  502    0  0.10792821282E+03 -0.22097253958E+00  0.15254294115E+03  0.18691005657E+03  0.41800000000E+01 0. -1.
         -5    1    3    3    0  502  0.50487578193E+02 -0.10108138457E+03  0.25709474851E+03  0.28085872600E+03  0.41800000000E+01 0. -1.
        -11    1    1    2    0    0 -0.14879620011E+02 -0.41368100903E+01  0.16960035616E+02  0.22938158110E+02  0.00000000000E+00 0.  1.
         11    1    1    2    0    0 -0.14353617100E+03  0.10543916720E+03  0.53147952681E+03  0.56052701788E+03  0.00000000000E+00 0. -1.
</event>
<event>
 7    1  0.2601031E-009  0.2008647E+03  0.7561462E-02  0.1149012E+00
          4   -1    0    0  501    0  0.00000000000E+00  0.00000000000E+00  0.98681182680E+02  0.98681182680E+02  0.00000000000E+00 0. -1.
         -4   -1    0    0    0  501 -0.00000000000E+00 -0.00000000000E+00 -0.50646225547E+03  0.50646225547E+03  0.00000000000E+00 0.  1.
         25    2    1    2    0    0  0.19102094838E+03 -0.87021126657E+01 -0.15910920298E+03  0.27843328604E+03  0.12507848264E+03 0.  0.
          5    1    3    3  502    0  0.11705125399E+02 -0.55959723387E+01 -0.82078480402E+02  0.83202609407E+02  0.41800000000E+01 0.  1.
         -5    1    3    3    0  502  0.17931582298E+03 -0.31061403270E+01 -0.77030722581E+02  0.19523067664E+03  0.41800000000E+01 0.  1.
        -11    1    1    2    0    0 -0.63428874631E+02 -0.36696269315E+02 -0.11542884384E+03  0.13672474651E+03  0.00000000000E+00 0.  1.
         11    1    1    2    0    0 -0.12759207375E+03  0.45398381981E+02 -0.13324302597E+03  0.18998540559E+03  0.00000000000E+00 0. -1.
</event>
<event>
 7    1  0.2601031E-009  0.7320162E+02  0.7561462E-02  0.1349532E+00
          1   -1    0    0  501    0  0.00000000000E+00  0.00000000000E+00  0.16112324991E+03  0.16112324991E+03  0.00000000000E+00 0. -1.
         -1   -1    0    0    0  501 -0.00000000000E+00 -0.00000000000E+00 -0.11946215933E+03  0.11946215933E+03  0.00000000000E+00 0.  1.
         25    2    1    2    0    0  0.33544478202E+02  0.25415978570E+02 -0.44004696558E+02  0.13912032486E+03  0.12508735942E+03 0.  0.
          5    1    3    3  502    0  0.15938356425E+02  0.37224744379E+01  0.43767300689E+02  0.46914145320E+02  0.41800000000E+01 0. -1.
         -5    1    3    3    0  502  0.17606121778E+02  0.21693504132E+02 -0.87771997247E+02  0.92206179545E+02  0.41800000000E+01 0. -1.
        -11    1    1    2    0    0 -0.41611745253E+02 -0.55922509127E+02  0.26809520555E+02  0.74683430307E+02  0.00000000000E+00 0.  1.
         11    1    1    2    0    0  0.80672670509E+01  0.30506530557E+02  0.58856266586E+02  0.66781654073E+02  0.00000000000E+00 0. -1.
</event>
<event>
 7    1  0.2601031E-009  0.8274644E+02  0.7561462E-02  0.1321433E+00
         -1   -1    0    0    0  501 -0.00000000000E+00  0.00000000000E+00  0.35849677180E+02  0.35849677180E+02  0.00000000000E+00 0.  1.
          1   -1    0    0  501    0  0.00000000000E+00 -0.00000000000E+00 -0.34838384118E+03  0.34838384118E+03  0.00000000000E+00 0. -1.
         25    2    1    2    0    0  0.10019652778E+01 -0.19397241042E+02 -0.21288875400E+03  0.24768514472E+03  0.12509617278E+03 0.  0.
          5    1    3    3  502    0  0.38834501764E+02 -0.29432128857E+02 -0.20055919102E+03  0.20643601972E+03  0.41800000000E+01 0.  1.
         -5    1    3    3    0  502 -0.37832536486E+02  0.10034887815E+02 -0.12329562982E+02  0.41249125006E+02  0.41800000000E+01 0.  1.
        -11    1    1    2    0    0  0.22614745941E+02  0.39955731886E+02 -0.18370403985E+02  0.49450571150E+02  0.00000000000E+00 0.  1.
         11    1    1    2    0    0 -0.23616711219E+02 -0.20558490844E+02 -0.81275006013E+02  0.87097802481E+02  0.00000000000E+00 0. -1.
</event>
<event>
 7    1  0.2601031E-009  0.6896415E+02  0.7561462E-02  0.1363651E+00
         -1   -1    0    0    0  501 -0.00000000000E+00  0.00000000000E+00  0.10850130539E+03  0.10850130539E+03  0.00000000000E+00 0.  1.
          1   -1    0    0  501    0  0.00000000000E+00 -0.00000000000E+00 -0.11723206036E+03  0.11723206036E+03  0.00000000000E+00 0. -1.
         25    2    1    2    0    0 -0.27129277891E+01 -0.63194178115E+01 -0.35271087404E+02  0.13014913137E+03  0.12508977484E+03 0.  0.
          5    1    3    3  502    0 -0.51798112220E+02  0.19177372584E+02  0.12681710506E+02  0.56825295689E+02  0.41800000000E+01 0.  1.
         -5    1    3    3    0  502  0.49085184431E+02 -0.25496790395E+02 -0.47952797910E+02  0.73323835678E+02  0.41800000000E+01 0.  1.
        -11    1    1    2    0    0  0.10719868099E+02 -0.60666619125E+01  0.58819416033E+02  0.60095288179E+02  0.00000000000E+00 0.  1.
         11    1    1    2    0    0 -0.80069403096E+01  0.12386079724E+02 -0.32279083602E+02  0.35488946197E+02  0.00000000000E+00 0. -1.
</event>
<event>
 7    1  0.2601031E-009  0.1039732E+03  0.7561462E-02  0.1272156E+00
          1   -1    0    0  501    0  0.00000000000E+00  0.00000000000E+00  0.12972901460E+04  0.12972901460E+04  0.00000000000E+00 0. -1.
         -1   -1    0    0    0  501 -0.00000000000E+00 -0.00000000000E+00 -0.12509641647E+02  0.12509641647E+02  0.00000000000E+00 0.  1.
         25    2    1    2    0    0  0.52745603065E+02 -0.43735875948E+01  0.91192117726E+03  0.92198075354E+03  0.12508816672E+03 0.  0.
          5    1    3    3  502    0  0.13723921590E+02  0.45815036036E+02  0.67302216496E+03  0.67473229541E+03  0.41800000000E+01 0.  1.
         -5    1    3    3    0  502  0.39021681475E+02 -0.50188623631E+02  0.23889901231E+03  0.24724845813E+03  0.41800000000E+01 0.  1.
        -11    1    1    2    0    0  0.19697240672E+02  0.12501323555E+02  0.34176701941E+02  0.41380083812E+02  0.00000000000E+00 0.  1.
         11    1    1    2    0    0 -0.72442843737E+02 -0.81277359597E+01  0.33868262515E+03  0.34643895029E+03  0.00000000000E+00 0. -1.
</event>
<event>
 7    1  0.2601031E-009  0.1445901E+03  0.7561462E-02  0.1207283E+00
         -2   -1    0    0    0  501 -0.00000000000E+00  0.00000000000E+00  0.83359030023E+02  0.83359030023E+02  0.00000000000E+00 0. -1.
          2   -1    0    0  501    0  0.00000000000E+00 -0.00000000000E+00 -0.33761970653E+03  0.33761970653E+03  0.00000000000E+00 0.  1.
         25    2    1    2    0    0  0.12390262472E+03  0.28549621309E+02 -0.15693187192E+03  0.23757463858E+03  0.12508858933E+03 0.  0.
          5    1    3    3  502    0  0.79142290895E+01  0.37072956323E+02 -0.10197751179E+03  0.10887572927E+03  0.41800000000E+01 0. -1.
         -5    1    3    3    0  502  0.11598839563E+03 -0.85233350138E+01 -0.54954360132E+02  0.12869890931E+03  0.41800000000E+01 0. -1.
        -11    1    1    2    0    0 -0.99026785441E+02 -0.30958931778E+01 -0.10769390298E+03  0.14633477211E+03  0.00000000000E+00 0.  1.
         11    1    1    2    0    0 -0.24875839276E+02 -0.25453728131E+02  0.10365098395E+02  0.37069325866E+02  0.00000000000E+00 0. -1.
</event>
<event>
 7    1  0.2601031E-009  0.1219370E+03  0.7561462E-02  0.1239935E+00
          1   -1    0    0  501    0  0.00000000000E+00  0.00000000000E+00  0.69780582450E+03  0.69780582450E+03  0.00000000000E+00 0. -1.
         -1   -1    0    0    0  501 -0.00000000000E+00 -0.00000000000E+00 -0.26353999186E+02  0.26353999186E+02  0.00000000000E+00 0.  1.
         25    2    1    2    0    0 -0.23913031859E+02  0.77841039889E+02  0.38699315413E+03  0.41478434522E+03  0.12510512023E+03 0.  0.
          5    1    3    3  502    0  0.20726753085E+02 -0.18185807258E+02  0.24516751519E+02  0.37133076685E+02  0.41800000000E+01 0.  1.
         -5    1    3    3    0  502 -0.44639784944E+02  0.96026847146E+02  0.36247640261E+03  0.37765126853E+03  0.41800000000E+01 0.  1.
        -11    1    1    2    0    0 -0.13836649082E+02  0.81754775598E+01  0.91747097752E+01  0.18505852874E+02  0.00000000000E+00 0.  1.
         11    1    1    2    0    0  0.37749680941E+02 -0.86016517448E+02  0.27528396141E+03  0.29086962559E+03  0.00000000000E+00 0. -1.
</event>
<event>
 7    1  0.2601031E-009  0.9554759E+02  0.7561462E-02  0.1289948E+00
          2   -1    0    0  501    0  0.00000000000E+00  0.00000000000E+00  0.10728512240E+04  0.10728512240E+04  0.00000000000E+00 0. -1.
         -2   -1    0    0    0  501 -0.00000000000E+00 -0.00000000000E+00 -0.17035968241E+02  0.17035968241E+02  0.00000000000E+00 0.  1.
         25    2    1    2    0    0 -0.43605343180E+02 -0.58035078255E+02  0.73999086209E+03  0.75399111019E+03  0.12508645809E+03 0.  0.
          5    1    3    3  502    0 -0.54324459341E+01 -0.35318363086E+02  0.45205512365E+02  0.57774639662E+02  0.41800000000E+01 0. -1.
         -5    1    3    3    0  502 -0.38172897246E+02 -0.22716715169E+02  0.69478534973E+03  0.69621647052E+03  0.41800000000E+01 0. -1.
        -11    1    1    2    0    0  0.68578562761E+02  0.47353728569E+02  0.27059295850E+03  0.28313591095E+03  0.00000000000E+00 0.  1.
         11    1    1    2    0    0 -0.24973219581E+02  0.10681349686E+02  0.45231435127E+02  0.52760171067E+02  0.00000000000E+00 0. -1.
</event>
<event>
 7    1  0.2601031E-009  0.1017936E+03  0.7561462E-02  0.1276569E+00
         -3   -1    0    0    0  501 -0.00000000000E+00  0.00000000000E+00  0.14509236641E+03  0.14509236641E+03  0.00000000000E+00 0.  1.
          3   -1    0    0  501    0  0.00000000000E+00 -0.00000000000E+00 -0.99501193550E+02  0.99501193550E+02  0.00000000000E+00 0. -1.
         25    2    1    2    0    0  0.18824937499E+02 -0.36274392822E+02  0.54924578763E+02  0.14259969699E+03  0.12509098442E+03 0.  0.
          5    1    3    3  502    0  0.63606552397E+02 -0.51496455721E+02  0.22092968531E+02  0.84871963087E+02  0.41800000000E+01 0. -1.
         -5    1    3    3    0  502 -0.44781614898E+02  0.15222062899E+02  0.32831610232E+02  0.57727733908E+02  0.41800000000E+01 0. -1.
        -11    1    1    2    0    0 -0.29827851506E+02  0.48982285340E+02  0.25922330000E+02  0.62935937232E+02  0.00000000000E+00 0.  1.
         11    1    1    2    0    0  0.11002914007E+02 -0.12707892518E+02 -0.35255735901E+02  0.39057925736E+02  0.00000000000E+00 0. -1.
</event>
<event>
 7    1  0.2601031E-009  0.1419934E+03  0.7561462E-02  0.1210672E+00
         -1   -1    0    0    0  501 -0.00000000000E+00  0.00000000000E+00  0.19909887673E+02  0.19909887673E+02  0.00000000000E+00 0.  1.
          1   -1    0    0  501    0  0.00000000000E+00 -0.00000000000E+00 -0.14151468817E+04  0.14151468817E+04  0.00000000000E+00 0. -1.
         25    2    1    2    0    0  0.33816590556E+02  0.12289083123E+03 -0.67812173159E+03  0.70124346658E+03  0.12509036083E+03 0.  0.
          5    1    3    3  502    0  0.28749281075E+02  0.12717010847E+03 -0.35799142374E+03  0.38101717746E+03  0.41800000000E+01 0. -1.
         -5    1    3    3    0  502  0.50673094814E+01 -0.42792772394E+01 -0.32013030785E+03  0.32022628912E+03  0.41800000000E+01 0. -1.
        -11    1    1    2    0    0 -0.56043902113E+02 -0.87663342411E+02 -0.61135948301E+03  0.62015014152E+03  0.00000000000E+00 0.  1.
         11    1    1    2    0    0  0.22227311556E+02 -0.35227488819E+02 -0.10575577948E+03  0.11366316131E+03  0.00000000000E+00 0. -1.
</event>
<event>
 7    1  0.2601031E-009  0.1033729E+03  0.7561462E-02  0.1273359E+00
          2   -1    0    0  501    0  0.00000000000E+00  0.00000000000E+00  0.78572481645E+03  0.78572481645E+03  0.00000000000E+00 0. -1.
         -2   -1    0    0    0  501 -0.00000000000E+00 -0.00000000000E+00 -0.21333858819E+02  0.21333858819E+02  0.00000000000E+00 0.  1.
         25    2    1    2    0    0  0.61384967089E+02 -0.34782023638E+02  0.44400324100E+03  0.46665332664E+03  0.12509414813E+03 0.  0.
          5    1    3    3  502    0  0.70718907011E+02  0.14991181985E+02  0.13215829510E+03  0.15069567581E+03  0.41800000000E+01 0. -1.
         -5    1    3    3    0  502 -0.93339399215E+01 -0.49773205623E+02  0.31184494590E+03  0.31595765083E+03  0.41800000000E+01 0. -1.
        -11    1    1    2    0    0 -0.67739919997E+02  0.25730935863E+02  0.32124190503E+03  0.32931313270E+03  0.00000000000E+00 0. -1.
         11    1    1    2    0    0  0.63549529074E+01  0.90510877745E+01 -0.85418839597E+00  0.11092215927E+02  0.00000000000E+00 0.  1.
</event>
<event>
 7    1  0.2601031E-009  0.9159899E+02  0.7561462E-02  0.1299025E+00
          2   -1    0    0  501    0  0.00000000000E+00  0.00000000000E+00  0.26984979503E+03  0.26984979503E+03  0.00000000000E+00 0. -1.
         -2   -1    0    0    0  501 -0.00000000000E+00 -0.00000000000E+00 -0.49791310784E+02  0.49791310784E+02  0.00000000000E+00 0.  1.
         25    2    1    2    0    0  0.22085655538E+02  0.84329712926E+01  0.16212699581E+03  0.20613129092E+03  0.12508419221E+03 0.  0.
          5    1    3    3  502    0 -0.30016760858E+02  0.49144981942E+02  0.52496487418E+02  0.78035817249E+02  0.41800000000E+01 0.  1.
         -5    1    3    3    0  502  0.52102416396E+02 -0.40712010649E+02  0.10963050839E+03  0.12809547367E+03  0.41800000000E+01 0.  1.
        -11    1    1    2    0    0 -0.37187917031E+02 -0.18013334244E+02 -0.10619882330E+02  0.42663840479E+02  0.00000000000E+00 0.  1.
         11    1    1    2    0    0  0.15102261493E+02  0.95803629514E+01  0.68551370762E+02  0.70845974408E+02  0.00000000000E+00 0. -1.
</event>
<event>
 7    1  0.2601031E-009  0.1445630E+03  0.7561462E-02  0.1207318E+00
         -2   -1    0    0    0  501 -0.00000000000E+00  0.00000000000E+00  0.50651913502E+02  0.50651913502E+02  0.00000000000E+00 0.  1.
          2   -1    0    0  501    0  0.00000000000E+00 -0.00000000000E+00 -0.64200885556E+03  0.64200885556E+03  0.00000000000E+00 0. -1.
         25    2    1    2    0    0  0.14308773225E+03  0.17860759436E+02 -0.29167711058E+03  0.34859143177E+03  0.12508934255E+03 0.  0.
          5    1    3    3  502    0  0.81459162736E+02  0.42671806148E+01 -0.43615690119E+02  0.92593762472E+02  0.41800000000E+01 0.  1.
         -5    1    3    3    0  502  0.61628569510E+02  0.13593578821E+02 -0.24806142046E+03  0.25599766929E+03  0.41800000000E+01 0.  1.
        -11    1    1    2    0    0 -0.61608882345E+02 -0.73282810032E+01 -0.45492205244E+02  0.76934379989E+02  0.00000000000E+00 0.  1.
         11    1    1    2    0    0 -0.81478849901E+02 -0.10532478433E+02 -0.25418762624E+03  0.26713495731E+03  0.00000000000E+00 0. -1.
</event>
<event>
 7    1  0.2601031E-009  0.1093001E+03  0.7561462E-02  0.1261871E+00
          2   -1    0    0  501    0  0.00000000000E+00  0.00000000000E+00  0.36555818883E+02  0.36555818883E+02  0.00000000000E+00 0. -1.
         -2   -1    0    0    0  501 -0.00000000000E+00 -0.00000000000E+00 -0.39528905375E+03  0.39528905375E+03  0.00000000000E+00 0.  1.
         25    2    1    2    0    0 -0.31646833949E+02 -0.24591474968E+02 -0.25466495620E+03  0.28654506967E+03  0.12509026459E+03 0.  0.
          5    1    3    3  502    0 -0.39220337285E+02  0.38244360926E+02 -0.18190042765E+03  0.19001606242E+03  0.41800000000E+01 0.  1.
         -5    1    3    3    0  502  0.75735033359E+01 -0.62835835894E+02 -0.72764528557E+02  0.96529007254E+02  0.41800000000E+01 0.  1.
        -11    1    1    2    0    0  0.59268328000E+02 -0.53340107049E+01 -0.50761835089E+02  0.78217327209E+02  0.00000000000E+00 0. -1.
         11    1    1    2    0    0 -0.27621494051E+02  0.29925485673E+02 -0.53306443573E+02  0.67082475751E+02  0.00000000000E+00 0.  1.
</event>
<event>
 7    1  0.2601031E-009  0.2752680E+03  0.7561462E-02  0.1098302E+00
          1   -1    0    0  501    0  0.00000000000E+00  0.00000000000E+00  0.59569045882E+02  0.59569045882E+02  0.00000000000E+00 0. -1.
         -1   -1    0    0    0  501 -0.00000000000E+00 -0.00000000000E+00 -0.13709562562E+04  0.13709562562E+04  0.00000000000E+00 0.  1.
         25    2    1    2    0    0  0.17694447310E+03  0.19317128493E+03 -0.74376108154E+03  0.79840656858E+03  0.12509200797E+03 0.  0.
          5    1    3    3  502    0  0.11176501571E+03  0.36111928614E+02 -0.35828433527E+03  0.37706846517E+03  0.41800000000E+01 0.  1.
         -5    1    3    3    0  502  0.65179457394E+02  0.15705935632E+03 -0.38547674626E+03  0.42133810341E+03  0.41800000000E+01 0.  1.
        -11    1    1    2    0    0 -0.70154724622E+02 -0.92977432703E+02 -0.35754758715E+03  0.37604090928E+03  0.00000000000E+00 0.  1.
         11    1    1    2    0    0 -0.10678974848E+03 -0.10019385223E+03 -0.21007854166E+03  0.25607782424E+03  0.00000000000E+00 0. -1.
</event>
<event>
 7    1  0.2601031E-009  0.8180304E+02  0.7561462E-02  0.1324011E+00
          2   -1    0    0  501    0  0.00000000000E+00  0.00000000000E+00  0.11606975983E+03  0.11606975983E+03  0.00000000000E+00 0. -1.
         -2   -1    0    0    0  501 -0.00000000000E+00 -0.00000000000E+00 -0.10961363825E+03  0.10961363825E+03  0.00000000000E+00 0.  1.
         25    2    1    2    0    0  0.22597658865E+02 -0.25770480548E+02 -0.27327796535E+01  0.12973058490E+03  0.12509110568E+03 0.  0.
          5    1    3    3  502    0  0.41294518241E+02 -0.57375134551E+02 -0.36501907947E+02  0.79668092642E+02  0.41800000000E+01 0. -1.
         -5    1    3    3    0  502 -0.18696859376E+02  0.31604654003E+02  0.33769128294E+02  0.50062492256E+02  0.41800000000E+01 0. -1.
        -11    1    1    2    0    0 -0.30962100437E+02  0.24499764280E+01 -0.34069592407E+02  0.46101964977E+02  0.00000000000E+00 0.  1.
         11    1    1    2    0    0  0.83644415721E+01  0.23320504120E+02  0.43258493642E+02  0.49850848211E+02  0.00000000000E+00 0. -1.
</event>
<event>
 7    1  0.2601031E-009  0.3943408E+03  0.7561462E-02  0.1045757E+00
         -2   -1    0    0    0  501 -0.00000000000E+00  0.00000000000E+00  0.31602582132E+03  0.31602582132E+03  0.00000000000E+00 0.  1.
          2   -1    0    0  501    0  0.00000000000E+00 -0.00000000000E+00 -0.79724434513E+03  0.79724434513E+03  0.00000000000E+00 0. -1.
         25    2    1    2    0    0 -0.34742158361E+02 -0.38829542822E+03 -0.57142423560E+03  0.70296078554E+03  0.12509137392E+03 0.  0.
          5    1    3    3  502    0 -0.35990870499E+02 -0.26613375861E+03 -0.48100737461E+03  0.55091568053E+03  0.41800000000E+01 0.  1.
         -5    1    3    3    0  502  0.12487121383E+01 -0.12216166961E+03 -0.90416860998E+02  0.15204510501E+03  0.41800000000E+01 0.  1.
        -11    1    1    2    0    0  0.10789873575E+02  0.36246792462E+03  0.68819883820E+02  0.36910106226E+03  0.00000000000E+00 0. -1.
         11    1    1    2    0    0  0.23952284786E+02  0.25827503595E+02  0.21385827970E+02  0.41208318655E+02  0.00000000000E+00 0.  1.
</event>
<event>
 7    1  0.2601031E-009  0.1120063E+03  0.7561462E-02  0.1256899E+00
         -1   -1    0    0    0  501 -0.00000000000E+00  0.00000000000E+00  0.13008105029E+02  0.13008105029E+02  0.00000000000E+00 0.  1.
          1   -1    0    0  501    0  0.00000000000E+00 -0.00000000000E+00 -0.10872909032E+04  0.10872909032E+04  0.00000000000E+00 0. -1.
         25    2    1    2    0    0 -0.35110884206E+02  0.32415103056E+02 -0.60007469628E+03  0.61483240001E+03  0.12508287606E+03 0.  0.
          5    1    3    3  502    0 -0.69581555688E+02  0.48145193938E+02 -0.28111663955E+03  0.29360447889E+03  0.41800000000E+01 0. -1.
         -5    1    3    3    0  502  0.34470671481E+02 -0.15730090882E+02 -0.31895805673E+03  0.32122792112E+03  0.41800000000E+01 0. -1.
        -11    1    1    2    0    0 -0.27310323025E+02  0.58897070986E+01 -0.86432818003E+02  0.90835975370E+02  0.00000000000E+00 0.  1.
         11    1    1    2    0    0  0.62421207232E+02 -0.38304810155E+02 -0.38777528385E+03  0.39463063282E+03  0.00000000000E+00 0. -1.
</event>
<event>
 7    1  0.2601031E-009  0.1296973E+03  0.7561462E-02  0.1227906E+00
         -2   -1    0    0    0  501 -0.00000000000E+00  0.00000000000E+00  0.38205063289E+02  0.38205063289E+02  0.00000000000E+00 0.  1.
          2   -1    0    0  501    0  0.00000000000E+00 -0.00000000000E+00 -0.45916595875E+03  0.45916595875E+03  0.00000000000E+00 0. -1.
         25    2    1    2    0    0  0.53773102069E+02 -0.49473155817E+02 -0.26394858117E+03  0.30108944473E+03  0.12508741173E+03 0.  0.
          5    1    3    3  502    0  0.88828554316E+02 -0.11339438545E+02 -0.13490411721E+03  0.16197434417E+03  0.41800000000E+01 0. -1.
         -5    1    3    3    0  502 -0.35055452247E+02 -0.38133717272E+02 -0.12904446397E+03  0.13911510057E+03  0.41800000000E+01 0. -1.
        -11    1    1    2    0    0 -0.24588803825E+01  0.64316145030E+02 -0.84877974989E+02  0.10652175009E+03  0.00000000000E+00 0.  1.
         11    1    1    2    0    0 -0.51314221686E+02 -0.14842989212E+02 -0.72134339299E+02  0.89759827218E+02  0.00000000000E+00 0. -1.
</event>
<event>
 7    1  0.2601031E-009  0.1851461E+03  0.7561462E-02  0.1162913E+00
          3   -1    0    0  501    0  0.00000000000E+00  0.00000000000E+00  0.76767628771E+03  0.76767628771E+03  0.00000000000E+00 0. -1.
         -3   -1    0    0    0  501 -0.00000000000E+00 -0.00000000000E+00 -0.51909125025E+02  0.51909125025E+02  0.00000000000E+00 0.  1.
         25    2    1    2    0    0  0.59658220561E+02  0.15414330749E+03  0.42533109261E+03  0.47315140396E+03  0.12508577137E+03 0.  0.
          5    1    3    3  502    0 -0.31701498796E+02  0.41456143945E+02  0.57708709321E+02  0.77918960646E+02  0.41800000000E+01 0.  1.
         -5    1    3    3    0  502  0.91359719356E+02  0.11268716355E+03  0.36762238329E+03  0.39523244331E+03  0.41800000000E+01 0.  1.
        -11    1    1    2    0    0 -0.21080437437E+02 -0.11825133127E+03  0.25791616360E+03  0.28451451569E+03  0.00000000000E+00 0. -1.
         11    1    1    2    0    0 -0.38577783124E+02 -0.35891976222E+02  0.32519906472E+02  0.61919493093E+02  0.00000000000E+00 0.  1.
</event>
<event>
 7    1  0.2601031E-009  0.1551681E+03  0.7561462E-02  0.1194263E+00
         -2   -1    0    0    0  501 -0.00000000000E+00  0.00000000000E+00  0.42764453461E+02  0.42764453461E+02  0.00000000000E+00 0.  1.
          2   -1    0    0  501    0  0.00000000000E+00 -0.00000000000E+00 -0.60927925802E+03  0.60927925802E+03  0.00000000000E+00 0. -1.
         25    2    1    2    0    0 -0.10883642685E+03 -0.48792325490E+02 -0.28937761116E+03  0.33706567734E+03  0.12509120738E+03 0.  0.
          5    1    3    3  502    0 -0.12638827038E+03 -0.62614461989E+01 -0.20928091048E+03  0.24460002554E+03  0.41800000000E+01 0. -1.
         -5    1    3    3    0  502  0.17551843529E+02 -0.42530879291E+02 -0.80096700673E+02  0.92465651802E+02  0.41800000000E+01 0. -1.
        -11    1    1    2    0    0  0.92544692120E+02  0.71642931025E+01 -0.12061022446E+03  0.15219288216E+03  0.00000000000E+00 0. -1.
         11    1    1    2    0    0  0.16291734735E+02  0.41628032387E+02 -0.15652696894E+03  0.16278515198E+03  0.00000000000E+00 0.  1.
</event>
<event>
 7    1  0.2601031E-009  0.1192630E+03  0.7561462E-02  0.1244318E+00
         -2   -1    0    0    0  501 -0.00000000000E+00  0.00000000000E+00  0.10814061819E+03  0.10814061819E+03  0.00000000000E+00 0.  1.
          2   -1    0    0  501    0  0.00000000000E+00 -0.00000000000E+00 -0.53257621290E+03  0.53257621290E+03  0.00000000000E+00 0. -1.
         25    2    1    2    0    0  0.84884478320E+01 -0.10071680661E+03  0.32085288354E+02  0.16399178191E+03  0.12509160613E+03 0.  0.
          5    1    3    3  502    0  0.28253549509E+02 -0.65184533472E+02  0.75917672341E+02  0.10405888639E+03  0.41800000000E+01 0. -1.
         -5    1    3    3    0  502 -0.19765101677E+02 -0.35532273139E+02 -0.43832383988E+02  0.59932895514E+02  0.41800000000E+01 0. -1.
        -11    1    1    2    0    0  0.32128065277E+02  0.64534686921E+02 -0.16334389538E+03  0.17854457861E+03  0.00000000000E+00 0.  1.
         11    1    1    2    0    0 -0.40616513109E+02  0.36182119690E+02 -0.29317698768E+03  0.29818047057E+03  0.00000000000E+00 0. -1.
</event>
<event>
 7    1  0.2601031E-009  0.1173628E+03  0.7561462E-02  0.1247512E+00
          1   -1    0    0  501    0  0.00000000000E+00  0.00000000000E+00  0.63980266566E+03  0.63980266566E+03  0.00000000000E+00 0. -1.
         -1   -1    0    0    0  501 -0.00000000000E+00 -0.00000000000E+00 -0.25021128669E+02  0.25021128669E+02  0.00000000000E+00 0.  1.
         25    2    1    2    0    0  0.61657448204E+02 -0.23529145776E+01  0.29568964389E+03  0.32693591636E+03  0.12509017060E+03 0.  0.
          5    1    3    3  502    0  0.94440195290E+02  0.22847952715E+02  0.22121763276E+03  0.24165200780E+03  0.41800000000E+01 0.  1.
         -5    1    3    3    0  502 -0.32782747086E+02 -0.25200867292E+02  0.74472011123E+02  0.85283908562E+02  0.41800000000E+01 0.  1.
        -11    1    1    2    0    0 -0.78637207784E+02  0.46581664833E+01  0.30692302220E+03  0.31687103137E+03  0.00000000000E+00 0. -1.
         11    1    1    2    0    0  0.16979759580E+02 -0.23052519057E+01  0.12168870900E+02  0.21016846594E+02  0.00000000000E+00 0.  1.
</event>
<event>
 7    1  0.2601031E-009  0.1391232E+03  0.7561462E-02  0.1214514E+00
          4   -1    0    0  501    0  0.00000000000E+00  0.00000000000E+00  0.12390771304E+03  0.12390771304E+03  0.00000000000E+00 0. -1.
         -4   -1    0    0    0  501 -0.00000000000E+00 -0.00000000000E+00 -0.25474592251E+03  0.25474592251E+03  0.00000000000E+00 0.  1.
         25    2    1    2    0    0  0.50544700127E+02 -0.86185641744E+02 -0.14754539831E+03  0.21771482480E+03  0.12508944328E+03 0.  0.
          5    1    3    3  502    0  0.24689705184E+02 -0.92981396743E+02 -0.16092068198E+03  0.18753149061E+03  0.41800000000E+01 0.  1.
         -5    1    3    3    0  502  0.25854994943E+02  0.67957549984E+01  0.13375283669E+02  0.30183334188E+02  0.41800000000E+01 0.  1.
        -11    1    1    2    0    0 -0.89599179902E+02  0.58059763885E+02 -0.75707285264E+01  0.10703394392E+03  0.00000000000E+00 0.  1.
         11    1    1    2    0    0  0.39054479774E+02  0.28125877860E+02  0.24277917371E+02  0.53904866827E+02  0.00000000000E+00 0. -1.
</event>
<event>
 7    1  0.2601031E-009  0.1270751E+03  0.7561462E-02  0.1231861E+00
          3   -1    0    0  501    0  0.00000000000E+00  0.00000000000E+00  0.76498943780E+02  0.76498943780E+02  0.00000000000E+00 0. -1.
         -3   -1    0    0    0  501 -0.00000000000E+00 -0.00000000000E+00 -0.24902553103E+03  0.24902553103E+03  0.00000000000E+00 0.  1.
         25    2    1    2    0    0 -0.73471140987E+01  0.87064228984E+02 -0.11336293759E+03  0.19008592299E+03  0.12508933785E+03 0.  0.
          5    1    3    3  502    0  0.57655369557E+02  0.40931069527E+02 -0.38329275330E+02  0.80536326206E+02  0.41800000000E+01 0.  1.
         -5    1    3    3    0  502 -0.65002483655E+02  0.46133159457E+02 -0.75033662261E+02  0.10954959678E+03  0.41800000000E+01 0.  1.
        -11    1    1    2    0    0  0.31602589979E+02 -0.46050119610E+02 -0.66917238590E+02  0.87162228229E+02  0.00000000000E+00 0.  1.
         11    1    1    2    0    0 -0.24255475880E+02 -0.41014109375E+02  0.77535889336E+01  0.48276323590E+02  0.00000000000E+00 0. -1.
</event>
<event>
 7    1  0.2601031E-009  0.9394122E+02  0.7561462E-02  0.1293579E+00
          1   -1    0    0  501    0  0.00000000000E+00  0.00000000000E+00  0.67359004593E+03  0.67359004593E+03  0.00000000000E+00 0. -1.
         -1   -1    0    0    0  501 -0.00000000000E+00 -0.00000000000E+00 -0.20932172254E+02  0.20932172254E+02  0.00000000000E+00 0.  1.
         25    2    1    2    0    0  0.34897800930E+01  0.18271523695E+02  0.44573509117E+03  0.46332824048E+03  0.12508900744E+03 0.  0.
          5    1    3    3  502    0 -0.46880985763E+02  0.23924528042E+02  0.92974758061E+02  0.10692047467E+03  0.41800000000E+01 0. -1.
         -5    1    3    3    0  502  0.50370765856E+02 -0.56530043477E+01  0.35276033311E+03  0.35640776581E+03  0.41800000000E+01 0. -1.
        -11    1    1    2    0    0 -0.37327411249E+02  0.11600212202E+02  0.16508541592E+03  0.16964991925E+03  0.00000000000E+00 0. -1.
         11    1    1    2    0    0  0.33837631156E+02 -0.29871735897E+02  0.41837366588E+02  0.61544058452E+02  0.00000000000E+00 0.  1.
</event>
<event>
 7    1  0.2601031E-009  0.2109170E+03  0.7561462E-02  0.1140842E+00
          1   -1    0    0  501    0  0.00000000000E+00  0.00000000000E+00  0.15306381359E+03  0.15306381359E+03  0.00000000000E+00 0. -1.
         -1   -1    0    0    0  501 -0.00000000000E+00 -0.00000000000E+00 -0.32394938792E+03  0.32394938792E+03  0.00000000000E+00 0.  1.
         25    2    1    2    0    0 -0.53102935197E+02 -0.18007591692E+03 -0.14433754543E+03  0.26781313108E+03  0.12507313291E+03 0.  0.
          5    1    3    3  502    0 -0.84266918286E+02 -0.13988930928E+03 -0.70186534418E+02  0.17780200893E+03  0.41800000000E+01 0.  1.
         -5    1    3    3    0  502  0.31163983089E+02 -0.40186607644E+02 -0.74151011012E+02  0.90011122146E+02  0.41800000000E+01 0.  1.
        -11    1    1    2    0    0  0.77160728744E+02  0.11926878909E+03 -0.15776695406E+02  0.14292559683E+03  0.00000000000E+00 0.  1.
         11    1    1    2    0    0 -0.24057793547E+02  0.60807127833E+02 -0.10771333496E+02  0.66274473599E+02  0.00000000000E+00 0. -1.
</event>
<event>
 7    1  0.2601031E-009  0.1249328E+03  0.7561462E-02  0.1235174E+00
         -1   -1    0    0    0  501 -0.00000000000E+00  0.00000000000E+00  0.45044752675E+03  0.45044752675E+03  0.00000000000E+00 0.  1.
          1   -1    0    0  501    0  0.00000000000E+00 -0.00000000000E+00 -0.44804262008E+02  0.44804262008E+02  0.00000000000E+00 0. -1.
         25    2    1    2    0    0 -0.74472056656E+02  0.31707769801E+02  0.19958977557E+03  0.24906892666E+03  0.12509109411E+03 0.  0.
          5    1    3    3  502    0 -0.66467244083E+02 -0.17896742360E+02  0.35811562312E+02  0.77705394397E+02  0.41800000000E+01 0.  1.
         -5    1    3    3    0  502 -0.80048125732E+01  0.49604512160E+02  0.16377821326E+03  0.17136353226E+03  0.41800000000E+01 0.  1.
        -11    1    1    2    0    0 -0.50836632685E+01  0.29608272773E+02  0.24784100892E+02  0.38945411872E+02  0.00000000000E+00 0.  1.
         11    1    1    2    0    0  0.79555719925E+02 -0.61316042574E+02  0.18126938828E+03  0.20723745022E+03  0.00000000000E+00 0. -1.
</event>
<event>
 7    1  0.2601031E-009  0.9806832E+02  0.7561462E-02  0.1284411E+00
         -1   -1    0    0    0  501 -0.00000000000E+00  0.00000000000E+00  0.11428627291E+03  0.11428627291E+03  0.00000000000E+00 0.  1.
          1   -1    0    0  501    0  0.00000000000E+00 -0.00000000000E+00 -0.17034656643E+03  0.17034656643E+03  0.00000000000E+00 0. -1.
         25    2    1    2    0    0  0.22060177412E+02 -0.18985664707E+02 -0.98892869602E+02  0.16209673450E+03  0.12509374399E+03 0.  0.
          5    1    3    3  502    0 -0.46524292440E+02 -0.24861869557E+02 -0.68948372936E+02  0.86913594307E+02  0.41800000000E+01 0.  1.
         -5    1    3    3    0  502  0.68584469851E+02  0.58762048495E+01 -0.29944496666E+02  0.75183140190E+02  0.41800000000E+01 0.  1.
        -11    1    1    2    0    0  0.21153218240E+02  0.22524630766E+02  0.66363198257E+02  0.73204451476E+02  0.00000000000E+00 0.  1.
         11    1    1    2    0    0 -0.43213395652E+02 -0.35389660582E+01 -0.23530622168E+02  0.49331653369E+02  0.00000000000E+00 0. -1.
</event>
<event>
 7    1  0.2601031E-009  0.1729957E+03  0.7561462E-02  0.1174759E+00
         -2   -1    0    0    0  501 -0.00000000000E+00  0.00000000000E+00  0.40162125367E+03  0.40162125367E+03  0.00000000000E+00 0.  1.
          2   -1    0    0  501    0  0.00000000000E+00 -0.00000000000E+00 -0.83331705290E+02  0.83331705290E+02  0.00000000000E+00 0. -1.
         25    2    1    2    0    0 -0.30888426303E+02 -0.14330108670E+03  0.15783398347E+03  0.24909456754E+03  0.12508893201E+03 0.  0.
          5    1    3    3  502    0 -0.47963843347E+02 -0.14876712916E+03  0.16678888986E+03  0.22862238554E+03  0.41800000000E+01 0.  1.
         -5    1    3    3    0  502  0.17075417044E+02  0.54660424608E+01 -0.89549063913E+01  0.20472182001E+02  0.41800000000E+01 0.  1.
        -11    1    1    2    0    0  0.33510195625E+02  0.15533151631E+03  0.13899775300E+03  0.21111889662E+03  0.00000000000E+00 0.  1.
         11    1    1    2    0    0 -0.26217693220E+01 -0.12030429611E+02  0.21457811908E+02  0.24739494799E+02  0.00000000000E+00 0. -1.
</event>
<event>
 7    1  0.2601031E-009  0.1524543E+03  0.7561462E-02  0.1197489E+00
          1   -1    0    0  501    0  0.00000000000E+00  0.00000000000E+00  0.10907408821E+03  0.10907408821E+03  0.00000000000E+00 0.  1.
         -1   -1    0    0    0  501 -0.00000000000E+00 -0.00000000000E+00 -0.72770290709E+03  0.72770290709E+03  0.00000000000E+00 0. -1.
         25    2    1    2    0    0 -0.13525827671E+03  0.25612283726E+02 -0.64345362801E+03  0.66979945616E+03  0.12509176464E+03 0.  0.
          5    1    3    3  502    0 -0.91175760556E+02  0.27921331111E+02 -0.17572168364E+03  0.19997050419E+03  0.41800000000E+01 0.  1.
         -5    1    3    3    0  502 -0.44082516154E+02 -0.23090473848E+01 -0.46773194437E+03  0.46982895197E+03  0.41800000000E+01 0.  1.
        -11    1    1    2    0    0 -0.11268782095E+02  0.91632915593E+01  0.20694202891E+01  0.14670850774E+02  0.00000000000E+00 0.  1.
         11    1    1    2    0    0  0.14652705881E+03 -0.34775575285E+02  0.22755388842E+02  0.15230668836E+03  0.00000000000E+00 0. -1.
</event>
<event>
 7    1  0.2601031E-009  0.1411111E+03  0.7561462E-02  0.1211842E+00
         -1   -1    0    0    0  501 -0.00000000000E+00  0.00000000000E+00  0.12950682352E+03  0.12950682352E+03  0.00000000000E+00 0.  1.
          1   -1    0    0  501    0  0.00000000000E+00 -0.00000000000E+00 -0.22993146999E+03  0.22993146999E+03  0.00000000000E+00 0. -1.
         25    2    1    2    0    0  0.21476784935E+02  0.13117649027E+03 -0.41033675588E+02  0.18707929199E+03  0.12508547105E+03 0.  0.
          5    1    3    3  502    0 -0.22089030589E+01  0.10095904785E+03  0.30683153781E+02  0.10562450909E+03  0.41800000000E+01 0. -1.
         -5    1    3    3    0  502  0.23685687994E+02  0.30217442422E+02 -0.71716829369E+02  0.81454782899E+02  0.41800000000E+01 0. -1.
        -11    1    1    2    0    0  0.10187218761E+02 -0.90067299200E+02  0.36424310709E+01  0.90714745855E+02  0.00000000000E+00 0.  1.
         11    1    1    2    0    0 -0.31664003697E+02 -0.41109191071E+02 -0.63033401953E+02  0.81644255660E+02  0.00000000000E+00 0. -1.
</event>
<event>
 7    1  0.2601031E-009  0.2416594E+03  0.7561462E-02  0.1118692E+00
         -2   -1    0    0    0  501 -0.00000000000E+00  0.00000000000E+00  0.87000267937E+02  0.87000267937E+02  0.00000000000E+00 0.  1.
          2   -1    0    0  501    0  0.00000000000E+00 -0.00000000000E+00 -0.94305789583E+03  0.94305789583E+03  0.00000000000E+00 0. -1.
         25    2    1    2    0    0  0.22645109971E+03  0.34851658689E+02 -0.68189221288E+03  0.73014917146E+03  0.12508430726E+03 0.  0.
          5    1    3    3  502    0  0.19987162385E+03  0.68096589347E+02 -0.49047485528E+03  0.53401204815E+03  0.41800000000E+01 0.  1.
         -5    1    3    3    0  502  0.26579475861E+02 -0.33244930658E+02 -0.19141735760E+03  0.19613712332E+03  0.41800000000E+01 0.  1.
        -11    1    1    2    0    0 -0.99253892140E+02 -0.20523144405E+02 -0.12926215398E+03  0.16425966947E+03  0.00000000000E+00 0.  1.
         11    1    1    2    0    0 -0.12719720757E+03 -0.14328514284E+02 -0.44903261031E+02  0.13564932284E+03  0.00000000000E+00 0. -1.
</event>
<event>
 7    1  0.2601031E-009  0.9750355E+02  0.7561462E-02  0.1285635E+00
         -1   -1    0    0    0  501 -0.00000000000E+00  0.00000000000E+00  0.49517749463E+03  0.49517749463E+03  0.00000000000E+00 0.  1.
          1   -1    0    0  501    0  0.00000000000E+00 -0.00000000000E+00 -0.32983890398E+02  0.32983890398E+02  0.00000000000E+00 0. -1.
         25    2    1    2    0    0  0.25160069227E+02  0.60361506832E+02  0.29097594057E+03  0.32340630037E+03  0.12509235206E+03 0.  0.
          5    1    3    3  502    0 -0.57588903747E+01 -0.64300895613E+01  0.22276301627E+03  0.22296938060E+03  0.41800000000E+01 0. -1.
         -5    1    3    3    0  502  0.30918959602E+02  0.66791596394E+02  0.68212924298E+02  0.10043691977E+03  0.41800000000E+01 0. -1.
        -11    1    1    2    0    0  0.34158288540E+02 -0.27718283334E+02  0.77899561635E+02  0.89461911504E+02  0.00000000000E+00 0.  1.
         11    1    1    2    0    0 -0.59318357767E+02 -0.32643223498E+02  0.93318102033E+02  0.11529317315E+03  0.00000000000E+00 0. -1.
</event>
<event>
 7    1  0.2601031E-009  0.1321779E+03  0.7561462E-02  0.1224259E+00
         -4   -1    0    0    0  501 -0.00000000000E+00  0.00000000000E+00  0.12562626135E+03  0.12562626135E+03  0.00000000000E+00 0.  1.
          4   -1    0    0  501    0  0.00000000000E+00 -0.00000000000E+00 -0.18845002528E+03  0.18845002528E+03  0.00000000000E+00 0. -1.
         25    2    1    2    0    0 -0.62538703950E+02  0.78005640617E+02  0.12675298943E+02  0.16063596998E+03  0.12508909700E+03 0.  0.
          5    1    3    3  502    0  0.19590962549E+02  0.34427324661E+02 -0.37669745908E+02  0.54822701992E+02  0.41800000000E+01 0. -1.
         -5    1    3    3    0  502 -0.82129666499E+02  0.43578315956E+02  0.50345044851E+02  0.10581326799E+03  0.41800000000E+01 0. -1.
        -11    1    1    2    0    0  0.83511488054E+02 -0.70132664696E+02 -0.51474316534E+02  0.12059172674E+03  0.00000000000E+00 0.  1.
         11    1    1    2    0    0 -0.20972784104E+02 -0.78729759206E+01 -0.24024746336E+02  0.32848589915E+02  0.00000000000E+00 0. -1.
</event>
<event>
 7    1  0.2601031E-009  0.1044538E+03  0.7561462E-02  0.1271200E+00
          2   -1    0    0  501    0  0.00000000000E+00  0.00000000000E+00  0.41927051455E+02  0.41927051455E+02  0.00000000000E+00 0. -1.
         -2   -1    0    0    0  501 -0.00000000000E+00 -0.00000000000E+00 -0.34521818373E+03  0.34521818373E+03  0.00000000000E+00 0.  1.
         25    2    1    2    0    0  0.37855907717E+02 -0.34766990593E+02 -0.17387922960E+03  0.22027948255E+03  0.12508897057E+03 0.  0.
          5    1    3    3  502    0 -0.12307054884E+02  0.23328675970E+02 -0.12800750648E+03  0.13076346905E+03  0.41800000000E+01 0.  1.
         -5    1    3    3    0  502  0.50162962601E+02 -0.58095666563E+02 -0.45871723125E+02  0.89516013499E+02  0.41800000000E+01 0.  1.
        -11    1    1    2    0    0  0.20586489902E+02  0.41676430871E+02 -0.58132164267E+02  0.74431693377E+02  0.00000000000E+00 0.  1.
         11    1    1    2    0    0 -0.58442397619E+02 -0.69094402779E+01 -0.71279738403E+02  0.92434059259E+02  0.00000000000E+00 0. -1.
</event>
<event>
 7    1  0.2601031E-009  0.1054938E+03  0.7561462E-02  0.1269150E+00
          3   -1    0    0  501    0  0.00000000000E+00  0.00000000000E+00  0.13114166779E+03  0.13114166779E+03  0.00000000000E+00 0. -1.
         -3   -1    0    0    0  501 -0.00000000000E+00 -0.00000000000E+00 -0.10302090110E+03  0.10302090110E+03  0.00000000000E+00 0.  1.
         25    2    1    2    0    0  0.32044445521E+02 -0.95264038673E+01  0.41240683146E+02  0.13588761910E+03  0.12508817778E+03 0.  0.
          5    1    3    3  502    0 -0.34580497829E+02  0.33879230471E+02  0.65431913365E+01  0.49029571080E+02  0.41800000000E+01 0. -1.
         -5    1    3    3    0  502  0.66624943350E+02 -0.43405634339E+02  0.34697491809E+02  0.86858048024E+02  0.41800000000E+01 0. -1.
        -11    1    1    2    0    0  0.73201652662E+01  0.35081929185E+02 -0.31654069366E+02  0.47815339403E+02  0.00000000000E+00 0.  1.
         11    1    1    2    0    0 -0.39364610787E+02 -0.25555525317E+02  0.18534152908E+02  0.50459610390E+02  0.00000000000E+00 0. -1.
</event>
<event>
 7    1  0.2601031E-009  0.8817515E+02  0.7561462E-02  0.1307332E+00
         -1   -1    0    0    0  501 -0.00000000000E+00  0.00000000000E+00  0.58217011718E+02  0.58217011718E+02  0.00000000000E+00 0.  1.
          1   -1    0    0  501    0  0.00000000000E+00 -0.00000000000E+00 -0.28639188241E+03  0.28639188241E+03  0.00000000000E+00 0. -1.
         25    2    1    2    0    0 -0.46583445872E+02 -0.29870987319E+02 -0.18251185262E+03  0.22807885812E+03  0.12508835222E+03 0.  0.
          5    1    3    3  502    0 -0.52060102051E+01  0.34838506709E+02 -0.65956712603E+01  0.36080456917E+02  0.41800000000E+01 0. -1.
         -5    1    3    3    0  502 -0.41377435667E+02 -0.64709494028E+02 -0.17591618136E+03  0.19199840120E+03  0.41800000000E+01 0. -1.
        -11    1    1    2    0    0  0.11069264958E+02 -0.67324531443E+01 -0.61717065213E+02  0.63062276288E+02  0.00000000000E+00 0. -1.
         11    1    1    2    0    0  0.35514180914E+02  0.36603440463E+02  0.16054047143E+02  0.53467759720E+02  0.00000000000E+00 0.  1.
</event>
<event>
 7    1  0.2601031E-009  0.1191371E+03  0.7561462E-02  0.1244527E+00
          2   -1    0    0  501    0  0.00000000000E+00  0.00000000000E+00  0.19575875734E+03  0.19575875734E+03  0.00000000000E+00 0.  1.
         -2   -1    0    0    0  501 -0.00000000000E+00 -0.00000000000E+00 -0.83094570651E+02  0.83094570651E+02  0.00000000000E+00 0. -1.
         25    2    1    2    0    0  0.44080901460E+02  0.30734639303E+02  0.20401189487E+02  0.13766638327E+03  0.12509228843E+03 0.  0.
          5    1    3    3  502    0  0.32044455725E+01 -0.47483737865E+02  0.61180110819E+01  0.48165094131E+02  0.41800000000E+01 0.  1.
         -5    1    3    3    0  502  0.40876455887E+02  0.78218377169E+02  0.14283178405E+02  0.89501289143E+02  0.41800000000E+01 0.  1.
        -11    1    1    2    0    0 -0.68910958702E+02 -0.96753302698E+01  0.80882314894E+02  0.10669714667E+03  0.00000000000E+00 0.  1.
         11    1    1    2    0    0  0.24830057242E+02 -0.21059309034E+02  0.11380682310E+02  0.34489798049E+02  0.00000000000E+00 0. -1.
</event>
<event>
 7    1  0.2601031E-009  0.7477350E+02  0.7561462E-02  0.1344574E+00
          1   -1    0    0  501    0  0.00000000000E+00  0.00000000000E+00  0.52514008166E+03  0.52514008166E+03  0.00000000000E+00 0. -1.
         -1   -1    0    0    0  501 -0.00000000000E+00 -0.00000000000E+00 -0.27419277138E+02  0.27419277138E+02  0.00000000000E+00 0.  1.
         25    2    1    2    0    0  0.49514984386E+02  0.14102588218E+02  0.29989568514E+03  0.32899203274E+03  0.12509084285E+03 0.  0.
          5    1    3    3  502    0  0.40505152068E+02  0.19290469216E+02  0.31038775625E+03  0.31364123003E+03  0.41800000000E+01 0.  1.
         -5    1    3    3    0  502  0.90098323176E+01 -0.51878809981E+01 -0.10492071106E+02  0.15350802706E+02  0.41800000000E+01 0.  1.
        -11    1    1    2    0    0 -0.56108960558E+02  0.19223644871E+02  0.72241305210E+02  0.93469621565E+02  0.00000000000E+00 0.  1.
         11    1    1    2    0    0  0.65939761717E+01 -0.33326233089E+02  0.12558381417E+03  0.13009770450E+03  0.00000000000E+00 0. -1.
</event>
<event>
 7    1  0.2601031E-009  0.1197079E+03  0.7561462E-02  0.1243580E+00
         -1   -1    0    0    0  501 -0.00000000000E+00  0.00000000000E+00  0.42375687919E+02  0.42375687919E+02  0.00000000000E+00 0.  1.
          1   -1    0    0  501    0  0.00000000000E+00 -0.00000000000E+00 -0.70508755253E+03  0.70508755253E+03  0.00000000000E+00 0. -1.
         25    2    1    2    0    0  0.64895828730E+02 -0.25944293706E+02 -0.59977331499E+03  0.61665280493E+03  0.12509227591E+03 0.  0.
          5    1    3    3  502    0  0.95799842374E+02 -0.21438154930E+02 -0.54210398607E+03  0.55093684610E+03  0.41800000000E+01 0. -1.
         -5    1    3    3    0  502 -0.30904013645E+02 -0.45061387762E+01 -0.57669328925E+02  0.65715958828E+02  0.41800000000E+01 0. -1.
        -11    1    1    2    0    0 -0.45061482273E+02 -0.27398625067E+02 -0.11236419236E+02  0.53921043735E+02  0.00000000000E+00 0.  1.
         11    1    1    2    0    0 -0.19834346457E+02  0.53342918773E+02 -0.51702130386E+02  0.76889391785E+02  0.00000000000E+00 0. -1.
</event>
<event>
 7    1  0.2601031E-009  0.1155310E+03  0.7561462E-02  0.1250657E+00
          1   -1    0    0  501    0  0.00000000000E+00  0.00000000000E+00  0.96040989646E+02  0.96040989646E+02  0.00000000000E+00 0. -1.
         -1   -1    0    0    0  501 -0.00000000000E+00 -0.00000000000E+00 -0.21557195903E+03  0.21557195903E+03  0.00000000000E+00 0.  1.
         25    2    1    2    0    0  0.64159898746E+02  0.25746475283E+02  0.79251665141E+00  0.14292439120E+03  0.12508948765E+03 0.  0.
          5    1    3    3  502    0  0.37948856099E+02 -0.38423919232E+02  0.36027696079E+02  0.65053674248E+02  0.41800000000E+01 0.  1.
         -5    1    3    3    0  502  0.26211042647E+02  0.64170394515E+02 -0.35235179428E+02  0.77870716949E+02  0.41800000000E+01 0.  1.
        -11    1    1    2    0    0 -0.54552659089E+02  0.21946473014E+02 -0.99907837264E+02  0.11592763363E+03  0.00000000000E+00 0. -1.
         11    1    1    2    0    0 -0.96072396568E+01 -0.47692948297E+02 -0.20415648771E+02  0.52760923853E+02  0.00000000000E+00 0.  1.
</event>
<event>
 7    1  0.2601031E-009  0.7777172E+02  0.7561462E-02  0.1335497E+00
          2   -1    0    0  501    0  0.00000000000E+00  0.00000000000E+00  0.44519471061E+02  0.44519471061E+02  0.00000000000E+00 0. -1.
         -2   -1    0    0    0  501 -0.00000000000E+00 -0.00000000000E+00 -0.38252810078E+03  0.38252810078E+03  0.00000000000E+00 0.  1.
         25    2    1    2    0    0  0.53085207940E+02 -0.53360160322E+02 -0.20019811864E+03  0.24777210127E+03  0.12508549656E+03 0.  0.
          5    1    3    3  502    0  0.18202059477E+02 -0.88975115993E+01 -0.18884947468E+03  0.18997914930E+03  0.41800000000E+01 0.  1.
         -5    1    3    3    0  502  0.34883148463E+02 -0.44462648722E+02 -0.11348643964E+02  0.57792951974E+02  0.41800000000E+01 0.  1.
        -11    1    1    2    0    0 -0.34347700643E+02  0.19519009861E+02 -0.36787603301E+01  0.39677317991E+02  0.00000000000E+00 0. -1.
         11    1    1    2    0    0 -0.18737507297E+02  0.33841150461E+02 -0.13413175074E+03  0.13959815257E+03  0.00000000000E+00 0.  1.
</event>
<event>
 7    1  0.2601031E-009  0.1782573E+03  0.7561462E-02  0.1169500E+00
         -2   -1    0    0    0  501 -0.00000000000E+00  0.00000000000E+00  0.24709296355E+02  0.24709296355E+02  0.00000000000E+00 0.  1.
          2   -1    0    0  501    0  0.00000000000E+00 -0.00000000000E+00 -0.23709844117E+04  0.23709844117E+04  0.00000000000E+00 0. -1.
         25    2    1    2    0    0  0.81350443116E+02  0.15005430675E+03 -0.18688403291E+04  0.18807832995E+04  0.12508978470E+03 0.  0.
          5    1    3    3  502    0  0.54386984003E+02  0.29121670518E+02 -0.26327809166E+03  0.27044193771E+03  0.41800000000E+01 0.  1.
         -5    1    3    3    0  502  0.26963459113E+02  0.12093263623E+03 -0.16055622375E+04  0.16103413618E+04  0.41800000000E+01 0.  1.
        -11    1    1    2    0    0 -0.76014609584E+02 -0.13877936376E+03 -0.47685543946E+03  0.50242317106E+03  0.00000000000E+00 0. -1.
         11    1    1    2    0    0 -0.53358335319E+01 -0.11274942989E+02 -0.57934678330E+00  0.12487237548E+02  0.00000000000E+00 0.  1.
</event>
<event>
 7    1  0.2601031E-009  0.2516876E+03  0.7561462E-02  0.1112243E+00
          1   -1    0    0  501    0  0.00000000000E+00  0.00000000000E+00  0.10515054915E+04  0.10515054915E+04  0.00000000000E+00 0. -1.
         -1   -1    0    0    0  501 -0.00000000000E+00 -0.00000000000E+00 -0.65279802307E+02  0.65279802307E+02  0.00000000000E+00 0.  1.
         25    2    1    2    0    0 -0.22488250098E+03  0.74568637309E+02  0.55962446583E+03  0.62045130967E+03  0.12509062313E+03 0.  0.
          5    1    3    3  502    0 -0.21442056839E+03  0.28401849995E+02  0.49523956533E+03  0.54042811243E+03  0.41800000000E+01 0. -1.
         -5    1    3    3    0  502 -0.10461932590E+02  0.46166787314E+02  0.64384900503E+02  0.80023197244E+02  0.41800000000E+01 0. -1.
        -11    1    1    2    0    0  0.12418709920E+03 -0.22678492743E+02  0.14191658564E+03  0.18993964020E+03  0.00000000000E+00 0.  1.
         11    1    1    2    0    0  0.10069540178E+03 -0.51890144566E+02  0.28468463776E+03  0.30639434397E+03  0.00000000000E+00 0. -1.
</event>
<event>
 7    1  0.2601031E-009  0.9208586E+02  0.7561462E-02  0.1297878E+00
         -1   -1    0    0    0  501 -0.00000000000E+00  0.00000000000E+00  0.22697615460E+02  0.22697615460E+02  0.00000000000E+00 0.  1.
          1   -1    0    0  501    0  0.00000000000E+00 -0.00000000000E+00 -0.61126886435E+03  0.61126886435E+03  0.00000000000E+00 0. -1.
         25    2    1    2    0    0  0.28695381667E+02  0.14049524960E+02 -0.41721584693E+03  0.43673470153E+03  0.12508925820E+03 0.  0.
          5    1    3    3  502    0 -0.37021634401E+01  0.42729894663E+02 -0.46188769565E+02  0.63169808817E+02  0.41800000000E+01 0.  1.
         -5    1    3    3    0  502  0.32397545107E+02 -0.28680369703E+02 -0.37102707736E+03  0.37356489272E+03  0.41800000000E+01 0.  1.
        -11    1    1    2    0    0 -0.56333190596E+02 -0.31870209900E+02 -0.11665283705E+03  0.13340548352E+03  0.00000000000E+00 0.  1.
         11    1    1    2    0    0  0.27637808928E+02  0.17820684940E+02 -0.54702564915E+02  0.63826294757E+02  0.00000000000E+00 0. -1.
</event>
<event>
 7    1  0.2601031E-009  0.1670042E+03  0.7561462E-02  0.1181008E+00
         -3   -1    0    0    0  501 -0.00000000000E+00  0.00000000000E+00  0.29294983897E+03  0.29294983897E+03  0.00000000000E+00 0.  1.
          3   -1    0    0  501    0  0.00000000000E+00 -0.00000000000E+00 -0.13073357484E+03  0.13073357484E+03  0.00000000000E+00 0. -1.
         25    2    1    2    0    0  0.14246256768E+03 -0.23306193609E+01  0.16851228323E+03  0.25366267187E+03  0.12508935417E+03 0.  0.
          5    1    3    3  502    0  0.10178455810E+03 -0.60292806050E+02  0.98519108716E+02  0.15400910983E+03  0.41800000000E+01 0. -1.
         -5    1    3    3    0  502  0.40678009578E+02  0.57962186689E+02  0.69993174510E+02  0.99653562038E+02  0.41800000000E+01 0. -1.
        -11    1    1    2    0    0 -0.26393495067E+02  0.10353613821E+02 -0.39874252593E+02  0.48926168059E+02  0.00000000000E+00 0. -1.
         11    1    1    2    0    0 -0.11606907261E+03 -0.80229944602E+01  0.33578233503E+02  0.12109457388E+03  0.00000000000E+00 0.  1.
</event>
<event>
 7    1  0.2601031E-009  0.9217975E+02  0.7561462E-02  0.1297657E+00
          2   -1    0    0  501    0  0.00000000000E+00  0.00000000000E+00  0.61558528053E+02  0.61558528053E+02  0.00000000000E+00 0. -1.
         -2   -1    0    0    0  501 -0.00000000000E+00 -0.00000000000E+00 -0.21701293252E+03  0.21701293252E+03  0.00000000000E+00 0.  1.
         25    2    1    2    0    0 -0.37781470729E+02 -0.10339380729E+02 -0.87032988602E+02  0.15734334769E+03  0.12509134915E+03 0.  0.
          5    1    3    3  502    0 -0.38294268742E+02 -0.65370467990E+02 -0.51455381652E+02  0.91678120643E+02  0.41800000000E+01 0. -1.
         -5    1    3    3    0  502  0.51279801335E+00  0.55031087261E+02 -0.35577606951E+02  0.65665227048E+02  0.41800000000E+01 0. -1.
        -11    1    1    2    0    0  0.18012956684E+02 -0.13361913679E+02 -0.83797326506E+02  0.86746753687E+02  0.00000000000E+00 0.  1.
         11    1    1    2    0    0  0.19768514045E+02  0.23701294408E+02  0.15375910639E+02  0.34481359198E+02  0.00000000000E+00 0. -1.
</event>
<event>
 7    1  0.2601031E-009  0.1471109E+03  0.7561462E-02  0.1204069E+00
          1   -1    0    0  501    0  0.00000000000E+00  0.00000000000E+00  0.55073875305E+03  0.55073875305E+03  0.00000000000E+00 0. -1.
         -1   -1    0    0    0  501 -0.00000000000E+00 -0.00000000000E+00 -0.71564756559E+02  0.71564756559E+02  0.00000000000E+00 0.  1.
         25    2    1    2    0    0 -0.61448856161E+02  0.98566190885E+02  0.61309538365E+02  0.18137292282E+03  0.12508405865E+03 0.  0.
          5    1    3    3  502    0 -0.98927928029E+02  0.74062446819E+02  0.57116191932E+02  0.13620467229E+03  0.41800000000E+01 0.  1.
         -5    1    3    3    0  502  0.37479071868E+02  0.24503744067E+02  0.41933464332E+01  0.45168250527E+02  0.41800000000E+01 0.  1.
        -11    1    1    2    0    0 -0.13711680173E+01 -0.39010623105E+02  0.52322951928E+02  0.65279400390E+02  0.00000000000E+00 0.  1.
         11    1    1    2    0    0  0.62820024178E+02 -0.59555567780E+02  0.36554150620E+03  0.37565118640E+03  0.00000000000E+00 0. -1.
</event>
<event>
 7    1  0.2601031E-009  0.1108611E+03  0.7561462E-02  0.1258984E+00
         -2   -1    0    0    0  501 -0.00000000000E+00  0.00000000000E+00  0.86725132117E+02  0.86725132117E+02  0.00000000000E+00 0.  1.
          2   -1    0    0  501    0  0.00000000000E+00 -0.00000000000E+00 -0.16577069551E+03  0.16577069551E+03  0.00000000000E+00 0. -1.
         25    2    1    2    0    0  0.27007973033E+02 -0.11405740722E+02 -0.82595722917E+02  0.15274062913E+03  0.12509246506E+03 0.  0.
          5    1    3    3  502    0  0.37054244913E+02  0.50649580957E+02 -0.56504682651E+02  0.84549681718E+02  0.41800000000E+01 0.  1.
         -5    1    3    3    0  502 -0.10046271881E+02 -0.62055321678E+02 -0.26091040266E+02  0.68190947416E+02  0.41800000000E+01 0.  1.
        -11    1    1    2    0    0  0.25423665276E+02  0.30784986296E+02  0.15082209511E+02  0.42679634266E+02  0.00000000000E+00 0.  1.
         11    1    1    2    0    0 -0.52431638308E+02 -0.19379245575E+02 -0.11532049986E+02  0.57075564225E+02  0.00000000000E+00 0. -1.
</event>
<event>
 7    1  0.2601031E-009  0.1037584E+03  0.7561462E-02  0.1272585E+00
         -1   -1    0    0    0  501 -0.00000000000E+00  0.00000000000E+00  0.28358118888E+02  0.28358118888E+02  0.00000000000E+00 0.  1.
          1   -1    0    0  501    0  0.00000000000E+00 -0.00000000000E+00 -0.54078165144E+03  0.54078165144E+03  0.00000000000E+00 0. -1.
         25    2    1    2    0    0  0.14189882105E+01  0.62346002492E+02 -0.35517843904E+03  0.38169254590E+03  0.12509371879E+03 0.  0.
          5    1    3    3  502    0  0.60989222554E+02  0.43499077078E+02 -0.16007506616E+03  0.17678618210E+03  0.41800000000E+01 0.  1.
         -5    1    3    3    0  502 -0.59570234344E+02  0.18846925415E+02 -0.19510337288E+03  0.20490636380E+03  0.41800000000E+01 0.  1.
        -11    1    1    2    0    0  0.11475243398E+02 -0.79393293563E+01  0.57772764055E+01  0.15102684673E+02  0.00000000000E+00 0.  1.
         11    1    1    2    0    0 -0.12894231608E+02 -0.54406673136E+02 -0.16302236992E+03  0.17234453976E+03  0.00000000000E+00 0. -1.
</event>
<event>
 7    1  0.2601031E-009  0.1239997E+03  0.7561462E-02  0.1236641E+00
          1   -1    0    0  501    0  0.00000000000E+00  0.00000000000E+00  0.75209730917E+03  0.75209730917E+03  0.00000000000E+00 0. -1.
         -1   -1    0    0    0  501 -0.00000000000E+00 -0.00000000000E+00 -0.25654430583E+02  0.25654430583E+02  0.00000000000E+00 0.  1.
         25    2    1    2    0    0  0.47117014712E+01 -0.76653822687E+02  0.28508059529E+03  0.32065317804E+03  0.12509798606E+03 0.  0.
          5    1    3    3  502    0 -0.58630958282E+02 -0.23672834992E+02  0.13979807173E+03  0.15348930140E+03  0.41800000000E+01 0.  1.
         -5    1    3    3    0  502  0.63342659753E+02 -0.52980987695E+02  0.14528252356E+03  0.16716387664E+03  0.41800000000E+01 0.  1.
        -11    1    1    2    0    0 -0.33599344660E+02  0.22097432134E+02  0.70752824585E+02  0.81382889204E+02  0.00000000000E+00 0.  1.
         11    1    1    2    0    0  0.28887643189E+02  0.54556390553E+02  0.37060945871E+03  0.37571567250E+03  0.00000000000E+00 0. -1.
</event>
<event>
 7    1  0.2601031E-009  0.1187842E+03  0.7561462E-02  0.1245116E+00
          2   -1    0    0  501    0  0.00000000000E+00  0.00000000000E+00  0.73693196942E+03  0.73693196942E+03  0.00000000000E+00 0. -1.
         -2   -1    0    0    0  501 -0.00000000000E+00 -0.00000000000E+00 -0.23924346965E+02  0.23924346965E+02  0.00000000000E+00 0.  1.
         25    2    1    2    0    0 -0.32951996644E+02  0.64975373850E+02  0.31431882943E+03  0.34605097928E+03  0.12508924988E+03 0.  0.
          5    1    3    3  502    0 -0.67928105720E+02  0.33598351645E+02  0.27295635788E+03  0.28331205849E+03  0.41800000000E+01 0. -1.
         -5    1    3    3    0  502  0.34976109077E+02  0.31377022204E+02  0.41362471551E+02  0.62738920786E+02  0.41800000000E+01 0. -1.
        -11    1    1    2    0    0  0.61692453210E+02 -0.28224488584E+02  0.23817539282E+03  0.24764914352E+03  0.00000000000E+00 0. -1.
         11    1    1    2    0    0 -0.28740456566E+02 -0.36750885266E+02  0.16051340021E+03  0.16715619360E+03  0.00000000000E+00 0.  1.
</event>
<event>
 7    1  0.2601031E-009  0.1935985E+03  0.7561462E-02  0.1155255E+00
          1   -1    0    0  501    0  0.00000000000E+00  0.00000000000E+00  0.69300541982E+03  0.69300541982E+03  0.00000000000E+00 0. -1.
         -1   -1    0    0    0  501 -0.00000000000E+00 -0.00000000000E+00 -0.55955502060E+02  0.55955502060E+02  0.00000000000E+00 0.  1.
         25    2    1    2    0    0 -0.13122259398E+03  0.94650792451E+02  0.27530797818E+03  0.34295804059E+03  0.12509033964E+03 0.  0.
          5    1    3    3  502    0  0.48325821226E+01 -0.22736140685E+02  0.21420875345E+02  0.31884357353E+02  0.41800000000E+01 0. -1.
         -5    1    3    3    0  502 -0.13605517611E+03  0.11738693314E+03  0.25388710283E+03  0.31107368324E+03  0.41800000000E+01 0. -1.
        -11    1    1    2    0    0  0.49681271295E+02  0.10494004322E+02  0.11378651714E+03  0.12460226454E+03  0.00000000000E+00 0. -1.
         11    1    1    2    0    0  0.81541322687E+02 -0.10514479677E+03  0.24795542243E+03  0.28140061675E+03  0.00000000000E+00 0.  1.
</event>
<event>
 7    1  0.2601031E-009  0.1222491E+03  0.7561462E-02  0.1239432E+00
         -1   -1    0    0    0  501 -0.00000000000E+00  0.00000000000E+00  0.86214258683E+02  0.86214258683E+02  0.00000000000E+00 0.  1.
          1   -1    0    0  501    0  0.00000000000E+00 -0.00000000000E+00 -0.56640804062E+03  0.56640804062E+03  0.00000000000E+00 0. -1.
         25    2    1    2    0    0 -0.40648018311E+02 -0.10887104625E+03 -0.23122433792E+02  0.17229615791E+03  0.12508458331E+03 0.  0.
          5    1    3    3  502    0 -0.21467007986E+02 -0.10868209625E+02 -0.60768175281E+02  0.65491937972E+02  0.41800000000E+01 0.  1.
         -5    1    3    3    0  502 -0.19181010325E+02 -0.98002836625E+02  0.37645741490E+02  0.10680421994E+03  0.41800000000E+01 0.  1.
        -11    1    1    2    0    0  0.45451888570E+02  0.92473006464E+02 -0.45031253432E+03  0.46195076541E+03  0.00000000000E+00 0. -1.
         11    1    1    2    0    0 -0.48038702591E+01  0.16398039786E+02 -0.67588138278E+01  0.18375375987E+02  0.00000000000E+00 0.  1.
</event>
<event>
 7    1  0.2601031E-009  0.9218031E+02  0.7561462E-02  0.1297656E+00
         -2   -1    0    0    0  501 -0.00000000000E+00  0.00000000000E+00  0.24228257694E+02  0.24228257694E+02  0.00000000000E+00 0.  1.
          2   -1    0    0  501    0  0.00000000000E+00 -0.00000000000E+00 -0.78256227926E+03  0.78256227926E+03  0.00000000000E+00 0. -1.
         25    2    1    2    0    0  0.55468900316E+02 -0.52496038595E+02 -0.52489147454E+03  0.54496817119E+03  0.12508642847E+03 0.  0.
          5    1    3    3  502    0  0.46569579670E+02 -0.61561187670E+02 -0.14065161513E+03  0.16049565357E+03  0.41800000000E+01 0. -1.
         -5    1    3    3    0  502  0.88993206462E+01  0.90651490750E+01 -0.38423985942E+03  0.38447251761E+03  0.41800000000E+01 0. -1.
        -11    1    1    2    0    0 -0.32480312968E+02  0.61051460880E+02 -0.22576672383E+03  0.23612044637E+03  0.00000000000E+00 0. -1.
         11    1    1    2    0    0 -0.22988587348E+02 -0.85554222851E+01 -0.76758231882E+01  0.25701919391E+02  0.00000000000E+00 0.  1.
</event>
<event>
 7    1  0.2601031E-009  0.8190773E+02  0.7561462E-02  0.1323723E+00
          1   -1    0    0  501    0  0.00000000000E+00  0.00000000000E+00  0.59862443813E+03  0.59862443813E+03  0.00000000000E+00 0. -1.
         -1   -1    0    0    0  501 -0.00000000000E+00 -0.00000000000E+00 -0.24118758114E+02  0.24118758114E+02  0.00000000000E+00 0.  1.
         25    2    1    2    0    0  0.65886629128E+01 -0.44729328446E+02  0.39422757503E+03  0.41606249409E+03  0.12509394379E+03 0.  0.
          5    1    3    3  502    0 -0.22487079293E+02 -0.91884165939E+01  0.35404353591E+03  0.35490054023E+03  0.41800000000E+01 0. -1.
         -5    1    3    3    0  502  0.29075742206E+02 -0.35540911852E+02  0.40184039117E+02  0.61161953859E+02  0.41800000000E+01 0. -1.
        -11    1    1    2    0    0 -0.33769130479E+02 -0.71240548990E+01  0.10959252905E+03  0.11489834095E+03  0.00000000000E+00 0. -1.
         11    1    1    2    0    0  0.27180467566E+02  0.51853383345E+02  0.70685575948E+02  0.91782361206E+02  0.00000000000E+00 0.  1.
</event>
<event>
 7    1  0.2601031E-009  0.1179348E+03  0.7561462E-02  0.1246543E+00
          1   -1    0    0  501    0  0.00000000000E+00  0.00000000000E+00  0.26373905748E+02  0.26373905748E+02  0.00000000000E+00 0. -1.
         -1   -1    0    0    0  501 -0.00000000000E+00 -0.00000000000E+00 -0.83402385818E+03  0.83402385818E+03  0.00000000000E+00 0.  1.
         25    2    1    2    0    0 -0.79245591074E+02 -0.22445937047E+02 -0.26803287274E+03  0.30703817483E+03  0.12508851322E+03 0.  0.
          5    1    3    3  502    0 -0.45817655502E+02  0.40959218273E+02 -0.56256669406E+02  0.83421821904E+02  0.41800000000E+01 0. -1.
         -5    1    3    3    0  502 -0.33427935572E+02 -0.63405155320E+02 -0.21177620333E+03  0.22361635293E+03  0.41800000000E+01 0. -1.
        -11    1    1    2    0    0  0.86218818286E+02  0.30831572174E+02 -0.53254864369E+03  0.54036314490E+03  0.00000000000E+00 0.  1.
         11    1    1    2    0    0 -0.69732272114E+01 -0.83856351271E+01 -0.70684359979E+01  0.12996444194E+02  0.00000000000E+00 0. -1.
</event>
<event>
 7    1  0.2601031E-009  0.1657706E+03  0.7561462E-02  0.1182332E+00
          2   -1    0    0  501    0  0.00000000000E+00  0.00000000000E+00  0.17286082633E+03  0.17286082633E+03  0.00000000000E+00 0. -1.
         -2   -1    0    0    0  501 -0.00000000000E+00 -0.00000000000E+00 -0.18243770954E+03  0.18243770954E+03  0.00000000000E+00 0.  1.
         25    2    1    2    0    0 -0.10913499011E+02  0.13180494346E+03 -0.46977416427E+02  0.18800191463E+03  0.12508474994E+03 0.  0.
          5    1    3    3  502    0 -0.56198639030E+02  0.30941223530E+02 -0.42892198701E+02  0.77284276873E+02  0.41800000000E+01 0. -1.
         -5    1    3    3    0  502  0.45285140020E+02  0.10086371993E+03 -0.40852177263E+01  0.11071763775E+03  0.41800000000E+01 0. -1.
        -11    1    1    2    0    0  0.21965260420E+02 -0.14071156708E+03  0.47216919425E+02  0.15003884582E+03  0.00000000000E+00 0. -1.
         11    1    1    2    0    0 -0.11051761409E+02  0.89066236122E+01 -0.98163862038E+01  0.17257775422E+02  0.00000000000E+00 0.  1.
</event>
<event>
 7    1  0.3055100E-009  0.1072202E+03  0.7561462E-02  0.1265806E+00
         -1   -1    0    0    0  501 -0.00000000000E+00  0.00000000000E+00  0.25620570124E+02  0.25620570124E+02  0.00000000000E+00 0.  1.
          1   -1    0    0  501    0  0.00000000000E+00 -0.00000000000E+00 -0.57668234101E+03  0.57668234101E+03  0.00000000000E+00 0. -1.
         25    2    1    2    0    0 -0.22975224363E+02 -0.49089210125E+02 -0.32190103730E+03  0.34957743640E+03  0.12508594943E+03 0.  0.
          5    1    3    3  502    0  0.34211631600E+02 -0.52660465101E+02 -0.24861252566E+03  0.25645510452E+03  0.41800000000E+01 0.  1.
         -5    1    3    3    0  502 -0.57186855963E+02  0.35712549752E+01 -0.73288511640E+02  0.93122331884E+02  0.41800000000E+01 0.  1.
        -11    1    1    2    0    0 -0.28568638091E+02  0.19923757161E+02 -0.33604481557E+02  0.48398185529E+02  0.00000000000E+00 0.  1.
         11    1    1    2    0    0  0.51543862454E+02  0.29165452965E+02 -0.19555625204E+03  0.20432728920E+03  0.00000000000E+00 0. -1.
</event>
<event>
 7    1  0.2601031E-009  0.1919237E+03  0.7561462E-02  0.1156738E+00
         -3   -1    0    0    0  501 -0.00000000000E+00  0.00000000000E+00  0.11115588333E+03  0.11115588333E+03  0.00000000000E+00 0.  1.
          3   -1    0    0  501    0  0.00000000000E+00 -0.00000000000E+00 -0.34424827592E+03  0.34424827592E+03  0.00000000000E+00 0. -1.
         25    2    1    2    0    0 -0.11197932614E+03 -0.15106678075E+02 -0.60779386571E+02  0.17918733650E+03  0.12508551685E+03 0.  0.
          5    1    3    3  502    0 -0.84238968502E+02  0.49332743406E+02 -0.42597631269E+02  0.10659246679E+03  0.41800000000E+01 0. -1.
         -5    1    3    3    0  502 -0.27740357638E+02 -0.64439421481E+02 -0.18181755302E+02  0.72594869712E+02  0.41800000000E+01 0. -1.
        -11    1    1    2    0    0  0.12129428872E+03 -0.63354473317E+02 -0.10724872329E+03  0.17386311401E+03  0.00000000000E+00 0. -1.
         11    1    1    2    0    0 -0.93149625845E+01  0.78461151392E+02 -0.65064282733E+02  0.10235370874E+03  0.00000000000E+00 0.  1.
</event>
<event>
 7    1  0.2601031E-009  0.2296647E+03  0.7561462E-02  0.1126876E+00
         -2   -1    0    0    0  501 -0.00000000000E+00  0.00000000000E+00  0.48819021938E+02  0.48819021938E+02  0.00000000000E+00 0.  1.
          2   -1    0    0  501    0  0.00000000000E+00 -0.00000000000E+00 -0.12721745928E+04  0.12721745928E+04  0.00000000000E+00 0. -1.
         25    2    1    2    0    0 -0.20468735772E+03 -0.97406228816E+02 -0.65847047122E+03  0.70754173684E+03  0.12508820922E+03 0.  0.
          5    1    3    3  502    0 -0.16690912419E+03 -0.76333883487E+02 -0.34252334028E+03  0.38861964508E+03  0.41800000000E+01 0.  1.
         -5    1    3    3    0  502 -0.37778233531E+02 -0.21072345329E+02 -0.31594713093E+03  0.31892209176E+03  0.41800000000E+01 0.  1.
        -11    1    1    2    0    0  0.79298627863E+02  0.65627884819E+02 -0.17927179285E+03  0.20672123103E+03  0.00000000000E+00 0.  1.
         11    1    1    2    0    0  0.12538872986E+03  0.31778343997E+02 -0.38561330680E+03  0.40673064688E+03  0.00000000000E+00 0. -1.
</event>
<event>
 7    1  0.2601031E-009  0.8024237E+02  0.7561462E-02  0.1328365E+00
         -2   -1    0    0    0  501 -0.00000000000E+00  0.00000000000E+00  0.55110341269E+02  0.55110341269E+02  0.00000000000E+00 0.  1.
          2   -1    0    0  501    0  0.00000000000E+00 -0.00000000000E+00 -0.24846968912E+03  0.24846968912E+03  0.00000000000E+00 0. -1.
         25    2    1    2    0    0  0.44061805862E+02  0.77489966461E+00 -0.12354196050E+03  0.18124882416E+03  0.12508587871E+03 0.  0.
          5    1    3    3  502    0  0.72123888101E+02  0.18755727799E+02 -0.12717792797E+03  0.14746297950E+03  0.41800000000E+01 0. -1.
         -5    1    3    3    0  502 -0.28062082239E+02 -0.17980828134E+02  0.36359674758E+01  0.33785844661E+02  0.41800000000E+01 0. -1.
        -11    1    1    2    0    0 -0.29166945502E+02  0.13031571252E+02 -0.88898592608E+02  0.94464238349E+02  0.00000000000E+00 0. -1.
         11    1    1    2    0    0 -0.14894860360E+02 -0.13806470917E+02  0.19081205258E+02  0.27866967873E+02  0.00000000000E+00 0.  1.
</event>
<event>
 7    1  0.2601031E-009  0.1407861E+03  0.7561462E-02  0.1212275E+00
          1   -1    0    0  501    0  0.00000000000E+00  0.00000000000E+00  0.55498443653E+03  0.55498443653E+03  0.00000000000E+00 0. -1.
         -1   -1    0    0    0  501 -0.00000000000E+00 -0.00000000000E+00 -0.38763973815E+02  0.38763973815E+02  0.00000000000E+00 0.  1.
         25    2    1    2    0    0  0.89005705701E+02 -0.28061696990E+02  0.34546395642E+03  0.37908008004E+03  0.12508751899E+03 0.  0.
          5    1    3    3  502    0 -0.12650510520E+01  0.39532194584E+02  0.58653728094E+02  0.70866966791E+02  0.41800000000E+01 0.  1.
         -5    1    3    3    0  502  0.90270756753E+02 -0.67593891574E+02  0.28681022833E+03  0.30821311325E+03  0.41800000000E+01 0.  1.
        -11    1    1    2    0    0 -0.20191982030E+02  0.52243842761E+02  0.60272771948E+02  0.82279658987E+02  0.00000000000E+00 0.  1.
         11    1    1    2    0    0 -0.68813723670E+02 -0.24182145771E+02  0.11048373434E+03  0.13238867132E+03  0.00000000000E+00 0. -1.
</event>
<event>
 7    1  0.2601031E-009  0.1060189E+03  0.7561462E-02  0.1268125E+00
         -2   -1    0    0    0  501 -0.00000000000E+00  0.00000000000E+00  0.37115900018E+02  0.37115900018E+02  0.00000000000E+00 0.  1.
          2   -1    0    0  501    0  0.00000000000E+00 -0.00000000000E+00 -0.61349582297E+03  0.61349582297E+03  0.00000000000E+00 0. -1.
         25    2    1    2    0    0 -0.48525187742E+02  0.27328622891E+02 -0.50102461379E+03  0.51939787471E+03  0.12508773381E+03 0.  0.
          5    1    3    3  502    0 -0.67451442977E+02 -0.31723801009E+02 -0.26268911168E+03  0.27309181332E+03  0.41800000000E+01 0. -1.
         -5    1    3    3    0  502  0.18926255235E+02  0.59052423900E+02 -0.23833550212E+03  0.24630606139E+03  0.41800000000E+01 0. -1.
        -11    1    1    2    0    0  0.51152468021E+02 -0.35168248200E+01 -0.89679114852E+02  0.10330192003E+03  0.00000000000E+00 0. -1.
         11    1    1    2    0    0 -0.26272802795E+01 -0.23811798071E+02  0.14323805693E+02  0.27911928249E+02  0.00000000000E+00 0.  1.
</event>
<event>
 7    1  0.2601031E-009  0.1732089E+03  0.7561462E-02  0.1174542E+00
          1   -1    0    0  501    0  0.00000000000E+00  0.00000000000E+00  0.11248700104E+04  0.11248700104E+04  0.00000000000E+00 0. -1.
         -1   -1    0    0    0  501 -0.00000000000E+00 -0.00000000000E+00 -0.37236090817E+02  0.37236090817E+02  0.00000000000E+00 0.  1.
         25    2    1    2    0    0  0.17119260485E+03 -0.24802378394E+02  0.60479378297E+03  0.64136180898E+03  0.12508950463E+03 0.  0.
          5    1    3    3  502    0  0.13867699466E+03 -0.22285139199E+02  0.58777559605E+03  0.60433894462E+03  0.41800000000E+01 0.  1.
         -5    1    3    3    0  502  0.32515610192E+02 -0.25172391948E+01  0.17018186925E+02  0.37022864362E+02  0.41800000000E+01 0.  1.
        -11    1    1    2    0    0 -0.56384237503E+02  0.64078176006E+01  0.61612134892E+02  0.83763342407E+02  0.00000000000E+00 0.  1.
         11    1    1    2    0    0 -0.11480836735E+03  0.18394560793E+02  0.42122800175E+03  0.43698094986E+03  0.00000000000E+00 0. -1.
</event>
<event>
 7    1  0.2601031E-009  0.1008237E+03  0.7561462E-02  0.1278573E+00
          2   -1    0    0  501    0  0.00000000000E+00  0.00000000000E+00  0.43432164464E+03  0.43432164464E+03  0.00000000000E+00 0. -1.
         -2   -1    0    0    0  501 -0.00000000000E+00 -0.00000000000E+00 -0.68059619167E+02  0.68059619167E+02  0.00000000000E+00 0.  1.
         25    2    1    2    0    0  0.62354169512E+02 -0.56641442590E+02  0.34588102339E+03  0.37732892882E+03  0.12508853948E+03 0.  0.
          5    1    3    3  502    0  0.16712969818E+02 -0.12283960600E+02 -0.41264644966E+01  0.21557345788E+02  0.41800000000E+01 0. -1.
         -5    1    3    3    0  502  0.45641199694E+02 -0.44357481990E+02  0.35000748789E+03  0.35577158303E+03  0.41800000000E+01 0. -1.
        -11    1    1    2    0    0 -0.30961367997E+02 -0.17942729467E+02 -0.12215448023E+02  0.37812233726E+02  0.00000000000E+00 0.  1.
         11    1    1    2    0    0 -0.31392801515E+02  0.74584172057E+02  0.32596450109E+02  0.87240101261E+02  0.00000000000E+00 0. -1.
</event>
<event>
 7    1  0.2601031E-009  0.6984430E+02  0.7561462E-02  0.1360623E+00
          1   -1    0    0  501    0  0.00000000000E+00  0.00000000000E+00  0.27206616317E+03  0.27206616317E+03  0.00000000000E+00 0. -1.
         -1   -1    0    0    0  501 -0.00000000000E+00 -0.00000000000E+00 -0.65059267559E+02  0.65059267559E+02  0.00000000000E+00 0.  1.
         25    2    1    2    0    0 -0.54410064184E+02  0.33068415143E+02  0.16984645110E+03  0.22033870501E+03  0.12508937929E+03 0.  0.
          5    1    3    3  502    0 -0.42371565981E+02  0.12648811993E+02  0.18607911732E+03  0.19130669708E+03  0.41800000000E+01 0. -1.
         -5    1    3    3    0  502 -0.12038498203E+02  0.20419603150E+02 -0.16232666215E+02  0.29032007927E+02  0.41800000000E+01 0. -1.
        -11    1    1    2    0    0  0.56575685843E+02 -0.23281510234E+02 -0.15556246176E+02  0.63125539542E+02  0.00000000000E+00 0.  1.
         11    1    1    2    0    0 -0.21656216587E+01 -0.97869049095E+01  0.52716690686E+02  0.53661186175E+02  0.00000000000E+00 0. -1.
</event>
<event>
 7    1  0.2601031E-009  0.2340918E+03  0.7561462E-02  0.1123792E+00
          2   -1    0    0  501    0  0.00000000000E+00  0.00000000000E+00  0.11487784353E+04  0.11487784353E+04  0.00000000000E+00 0. -1.
         -2   -1    0    0    0  501 -0.00000000000E+00 -0.00000000000E+00 -0.50322865742E+02  0.50322865742E+02  0.00000000000E+00 0.  1.
         25    2    1    2    0    0 -0.19430114431E+03 -0.78445558819E+02  0.67601732530E+03  0.71871670680E+03  0.12509052785E+03 0.  0.
          5    1    3    3  502    0 -0.43085164023E+02  0.34320366085E+02  0.16255216981E+03  0.17168255357E+03  0.41800000000E+01 0. -1.
         -5    1    3    3    0  502 -0.15121598028E+03 -0.11276592490E+03  0.51346515548E+03  0.54703415324E+03  0.41800000000E+01 0. -1.
        -11    1    1    2    0    0  0.13005372354E+03  0.91091792612E+02  0.25258683707E+03  0.29834844720E+03  0.00000000000E+00 0.  1.
         11    1    1    2    0    0  0.64247420771E+02 -0.12646233793E+02  0.16985140723E+03  0.18203614708E+03  0.00000000000E+00 0. -1.
</event>
<event>
 7    1  0.2601031E-009  0.1792323E+03  0.7561462E-02  0.1168548E+00
          1   -1    0    0  501    0  0.00000000000E+00  0.00000000000E+00  0.27150011395E+03  0.27150011395E+03  0.00000000000E+00 0. -1.
         -1   -1    0    0    0  501 -0.00000000000E+00 -0.00000000000E+00 -0.17037153208E+03  0.17037153208E+03  0.00000000000E+00 0.  1.
         25    2    1    2    0    0 -0.15953765819E+03  0.78040617647E+02  0.11013753295E+03  0.24355772086E+03  0.12508990703E+03 0.  0.
          5    1    3    3  502    0 -0.72951216860E+02  0.53010858840E+02 -0.12678302814E+02  0.91160533997E+02  0.41800000000E+01 0.  1.
         -5    1    3    3    0  502 -0.86586441330E+02  0.25029758807E+02  0.12281583577E+03  0.15239718686E+03  0.41800000000E+01 0.  1.
        -11    1    1    2    0    0  0.10553093901E+03 -0.57511778645E+02 -0.47128673158E+02  0.12909490929E+03  0.00000000000E+00 0.  1.
         11    1    1    2    0    0  0.54006719176E+02 -0.20528839002E+02  0.38119722080E+02  0.69219015873E+02  0.00000000000E+00 0. -1.
</event>
<event>
 7    1  0.2601031E-009  0.2662478E+03  0.7561462E-02  0.1103446E+00
          2   -1    0    0  501    0  0.00000000000E+00  0.00000000000E+00  0.84511807901E+02  0.84511807901E+02  0.00000000000E+00 0. -1.
         -2   -1    0    0    0  501 -0.00000000000E+00 -0.00000000000E+00 -0.94612021116E+03  0.94612021116E+03  0.00000000000E+00 0.  1.
         25    2    1    2    0    0  0.12015423342E+03  0.22980651928E+03 -0.49818233900E+03  0.57539543956E+03  0.12508474276E+03 0.  0.
          5    1    3    3  502    0  0.42951026786E+02  0.14617359493E+03 -0.17154573550E+03  0.22947096183E+03  0.41800000000E+01 0. -1.
         -5    1    3    3    0  502  0.77203206635E+02  0.83632924350E+02 -0.32663660350E+03  0.34592447773E+03  0.41800000000E+01 0. -1.
        -11    1    1    2    0    0 -0.34956492730E+02 -0.21267331026E+02 -0.10339334700E+03  0.11119550331E+03  0.00000000000E+00 0.  1.
         11    1    1    2    0    0 -0.85197740691E+02 -0.20853918825E+03 -0.26003271726E+03  0.34404107619E+03  0.00000000000E+00 0. -1.
</event>
<event>
 7    1  0.2601031E-009  0.1388231E+03  0.7561462E-02  0.1214921E+00
         -1   -1    0    0    0  501 -0.00000000000E+00  0.00000000000E+00  0.75802155677E+03  0.75802155677E+03  0.00000000000E+00 0.  1.
          1   -1    0    0  501    0  0.00000000000E+00 -0.00000000000E+00 -0.29434075165E+02  0.29434075165E+02  0.00000000000E+00 0. -1.
         25    2    1    2    0    0  0.59553743681E+01 -0.99266624757E+02  0.36380073471E+03  0.39734990321E+03  0.12508653698E+03 0.  0.
          5    1    3    3  502    0 -0.53037539533E+02 -0.82633063211E+02  0.21748246304E+03  0.23865728119E+03  0.41800000000E+01 0. -1.
         -5    1    3    3    0  502  0.58992913901E+02 -0.16633561546E+02  0.14631827167E+03  0.15869262203E+03  0.41800000000E+01 0. -1.
        -11    1    1    2    0    0 -0.33503286281E+02  0.37414084431E+02  0.61741253214E+02  0.79588103720E+02  0.00000000000E+00 0. -1.
         11    1    1    2    0    0  0.27547911912E+02  0.61852540326E+02  0.30304549369E+03  0.31051762500E+03  0.00000000000E+00 0.  1.
</event>
<event>
 7    1  0.2601031E-009  0.8131059E+02  0.7561462E-02  0.1325373E+00
          3   -1    0    0  501    0  0.00000000000E+00  0.00000000000E+00  0.77984593501E+02  0.77984593501E+02  0.00000000000E+00 0. -1.
         -3   -1    0    0    0  501 -0.00000000000E+00 -0.00000000000E+00 -0.21139450456E+03  0.21139450456E+03  0.00000000000E+00 0.  1.
         25    2    1    2    0    0 -0.53717759376E+02  0.28811934278E+02 -0.36820266781E+02  0.14393951081E+03  0.12508847068E+03 0.  0.
          5    1    3    3  502    0 -0.71505398524E+02  0.55205599416E+01 -0.69422629179E+02  0.99902314499E+02  0.41800000000E+01 0. -1.
         -5    1    3    3    0  502  0.17787639148E+02  0.23291374337E+02  0.32602362398E+02  0.44037196311E+02  0.41800000000E+01 0. -1.
        -11    1    1    2    0    0  0.23549727404E+02 -0.97241862057E+01  0.14110945210E+02  0.29125044771E+02  0.00000000000E+00 0. -1.
         11    1    1    2    0    0  0.30168031972E+02 -0.19087748073E+02 -0.11070058949E+03  0.11631454248E+03  0.00000000000E+00 0.  1.
</event>
<event>
 7    1  0.2601031E-009  0.8413934E+02  0.7561462E-02  0.1317699E+00
          1   -1    0    0  501    0  0.00000000000E+00  0.00000000000E+00  0.49646163829E+02  0.49646163829E+02  0.00000000000E+00 0. -1.
         -1   -1    0    0    0  501 -0.00000000000E+00 -0.00000000000E+00 -0.37662464849E+03  0.37662464849E+03  0.00000000000E+00 0.  1.
         25    2    1    2    0    0  0.41407487402E+02  0.31192714458E+02 -0.77779301522E+02  0.15615512036E+03  0.12508891406E+03 0.  0.
          5    1    3    3  502    0 -0.53836616533E+01 -0.14240953985E+01  0.31797872714E+02  0.32551328232E+02  0.41800000000E+01 0. -1.
         -5    1    3    3    0  502  0.46791149055E+02  0.32616809856E+02 -0.10957717424E+03  0.12360379213E+03  0.41800000000E+01 0. -1.
        -11    1    1    2    0    0 -0.61082709057E+02 -0.48441687442E+02 -0.19151575509E+03  0.20677518922E+03  0.00000000000E+00 0.  1.
         11    1    1    2    0    0  0.19675221655E+02  0.17248972984E+02 -0.57683428052E+02  0.63340502746E+02  0.00000000000E+00 0. -1.
</event>
<event>
 7    1  0.2601031E-009  0.1313080E+03  0.7561462E-02  0.1225528E+00
         -2   -1    0    0    0  501 -0.00000000000E+00  0.00000000000E+00  0.43507172508E+02  0.43507172508E+02  0.00000000000E+00 0.  1.
          2   -1    0    0  501    0  0.00000000000E+00 -0.00000000000E+00 -0.66122932435E+03  0.66122932435E+03  0.00000000000E+00 0. -1.
         25    2    1    2    0    0 -0.63635849748E+02 -0.93164603681E+02 -0.46842112607E+03  0.49778884611E+03  0.12508484807E+03 0.  0.
          5    1    3    3  502    0  0.98965269613E+01  0.13586300078E+02 -0.73342636783E+01  0.18809375838E+02  0.41800000000E+01 0.  1.
         -5    1    3    3    0  502 -0.73532376709E+02 -0.10675090376E+03 -0.46108686239E+03  0.47897947028E+03  0.41800000000E+01 0.  1.
        -11    1    1    2    0    0  0.14897981507E+02  0.66727853712E+01  0.10072461539E+02  0.19181511907E+02  0.00000000000E+00 0.  1.
         11    1    1    2    0    0  0.48737868241E+02  0.86491818310E+02 -0.15937348731E+03  0.18776613883E+03  0.00000000000E+00 0. -1.
</event>
<event>
 7    1  0.2601031E-009  0.1037105E+03  0.7561462E-02  0.1272681E+00
         -2   -1    0    0    0  501 -0.00000000000E+00  0.00000000000E+00  0.88928073358E+02  0.88928073358E+02  0.00000000000E+00 0.  1.
          2   -1    0    0  501    0  0.00000000000E+00 -0.00000000000E+00 -0.22594994418E+03  0.22594994418E+03  0.00000000000E+00 0. -1.
         25    2    1    2    0    0  0.13333274258E+02 -0.47786867045E+02  0.10528786746E+02  0.13497891307E+03  0.12508833183E+03 0.  0.
          5    1    3    3  502    0  0.37671663308E+02  0.30041208386E+02  0.20869432344E+02  0.52674794960E+02  0.41800000000E+01 0.  1.
         -5    1    3    3    0  502 -0.24338389051E+02 -0.77828075431E+02 -0.10340645599E+02  0.82304118113E+02  0.41800000000E+01 0.  1.
        -11    1    1    2    0    0 -0.35363224990E+02  0.16207146625E+02 -0.14706710761E+02  0.41587457543E+02  0.00000000000E+00 0.  1.
         11    1    1    2    0    0  0.22029950732E+02  0.31579720420E+02 -0.13284394681E+03  0.13831164692E+03  0.00000000000E+00 0. -1.
</event>
<event>
 7    1  0.2601031E-009  0.1785278E+03  0.7561462E-02  0.1169235E+00
          2   -1    0    0  501    0  0.00000000000E+00  0.00000000000E+00  0.44564031960E+03  0.44564031960E+03  0.00000000000E+00 0. -1.
         -2   -1    0    0    0  501 -0.00000000000E+00 -0.00000000000E+00 -0.98987082803E+02  0.98987082803E+02  0.00000000000E+00 0.  1.
         25    2    1    2    0    0  0.14341791656E+03 -0.69762236290E+02  0.29264213638E+03  0.35598104779E+03  0.12509043928E+03 0.  0.
          5    1    3    3  502    0  0.12772552883E+03 -0.18560806973E+02  0.26672360805E+03  0.29633978768E+03  0.41800000000E+01 0. -1.
         -5    1    3    3    0  502  0.15692387726E+02 -0.51201429318E+02  0.25918528330E+02  0.59641260110E+02  0.41800000000E+01 0. -1.
        -11    1    1    2    0    0 -0.13879352976E+03  0.40501959798E+02  0.24152374668E+02  0.14658577643E+03  0.00000000000E+00 0.  1.
         11    1    1    2    0    0 -0.46243868020E+01  0.29260276492E+02  0.29858725753E+02  0.42060578185E+02  0.00000000000E+00 0. -1.
</event>
<event>
 7    1  0.2601031E-009  0.1066850E+03  0.7561462E-02  0.1266835E+00
          1   -1    0    0  501    0  0.00000000000E+00  0.00000000000E+00  0.98395888316E+02  0.98395888316E+02  0.00000000000E+00 0. -1.
         -1   -1    0    0    0  501 -0.00000000000E+00 -0.00000000000E+00 -0.12745963589E+03  0.12745963589E+03  0.00000000000E+00 0.  1.
         25    2    1    2    0    0 -0.13963583093E+02 -0.18350809727E+02 -0.29078980528E+02  0.13046709706E+03  0.12507734582E+03 0.  0.
          5    1    3    3  502    0  0.42847306600E+02  0.26189587073E+02 -0.29033413659E+02  0.58156664817E+02  0.41800000000E+01 0. -1.
         -5    1    3    3    0  502 -0.56810889693E+02 -0.44540396800E+02 -0.45566869153E-01  0.72310432243E+02  0.41800000000E+01 0. -1.
        -11    1    1    2    0    0  0.32718104211E+02  0.46491965077E+02 -0.14369258146E+02  0.58638321425E+02  0.00000000000E+00 0.  1.
         11    1    1    2    0    0 -0.18754521118E+02 -0.28141155350E+02  0.14384491096E+02  0.36750105726E+02  0.00000000000E+00 0. -1.
</event>
<event>
 7    1  0.2601031E-009  0.8671481E+02  0.7561462E-02  0.1311008E+00
          1   -1    0    0  501    0  0.00000000000E+00  0.00000000000E+00  0.21239085309E+03  0.21239085309E+03  0.00000000000E+00 0. -1.
         -1   -1    0    0    0  501 -0.00000000000E+00 -0.00000000000E+00 -0.67629952358E+02  0.67629952358E+02  0.00000000000E+00 0.  1.
         25    2    1    2    0    0 -0.38341968618E+02  0.96788184754E+01  0.46975850526E+02  0.13934800091E+03  0.12508936301E+03 0.  0.
          5    1    3    3  502    0 -0.65560994414E+02 -0.19556482744E+02 -0.10383800428E+02  0.69325289161E+02  0.41800000000E+01 0. -1.
         -5    1    3    3    0  502  0.27219025796E+02  0.29235301220E+02  0.57359650954E+02  0.70022711746E+02  0.41800000000E+01 0. -1.
        -11    1    1    2    0    0  0.97542175463E+01  0.20776914915E+02  0.96169528041E+02  0.98870638093E+02  0.00000000000E+00 0. -1.
         11    1    1    2    0    0  0.28587751072E+02 -0.30455733391E+02  0.16155221624E+01  0.41802166446E+02  0.00000000000E+00 0.  1.
</event>
<event>
 7    1  0.2601031E-009  0.1026310E+03  0.7561462E-02  0.1274859E+00
         -2   -1    0    0    0  501 -0.00000000000E+00  0.00000000000E+00  0.87061505476E+02  0.87061505476E+02  0.00000000000E+00 0.  1.
          2   -1    0    0  501    0  0.00000000000E+00 -0.00000000000E+00 -0.18443361575E+03  0.18443361575E+03  0.00000000000E+00 0. -1.
         25    2    1    2    0    0 -0.20941714100E+02  0.27112564475E+02  0.57014348670E+01  0.12982168280E+03  0.12509003327E+03 0.  0.
          5    1    3    3  502    0 -0.56638226678E+02 -0.18512795530E+02 -0.24255537216E+02  0.64470270708E+02  0.41800000000E+01 0. -1.
         -5    1    3    3    0  502  0.35696512577E+02  0.45625360005E+02  0.29956972083E+02  0.65351412090E+02  0.41800000000E+01 0. -1.
        -11    1    1    2    0    0  0.10757859837E+02 -0.55892885675E+02 -0.34366390797E+02  0.66489059504E+02  0.00000000000E+00 0.  1.
         11    1    1    2    0    0  0.10183854263E+02  0.28780321201E+02 -0.68707154340E+02  0.75184378920E+02  0.00000000000E+00 0. -1.
</event>
<event>
 7    1  0.2601031E-009  0.8711353E+02  0.7561462E-02  0.1309996E+00
         -1   -1    0    0    0  501 -0.00000000000E+00  0.00000000000E+00  0.18591939490E+03  0.18591939490E+03  0.00000000000E+00 0.  1.
          1   -1    0    0  501    0  0.00000000000E+00 -0.00000000000E+00 -0.97122280354E+02  0.97122280354E+02  0.00000000000E+00 0. -1.
         25    2    1    2    0    0  0.89857536945E+01  0.58407855458E+02 -0.82786461306E+01  0.13859084003E+03  0.12508662442E+03 0.  0.
          5    1    3    3  502    0 -0.20391893352E+02 -0.20903218075E+02 -0.38656202075E+02  0.48626620274E+02  0.41800000000E+01 0. -1.
         -5    1    3    3    0  502  0.29377647047E+02  0.79311073534E+02  0.30377555945E+02  0.89964219756E+02  0.41800000000E+01 0. -1.
        -11    1    1    2    0    0 -0.60583601691E+00 -0.37737214148E+02 -0.66765566210E+01  0.38328067747E+02  0.00000000000E+00 0. -1.
         11    1    1    2    0    0 -0.83799176776E+01 -0.20670641310E+02  0.10375231730E+03  0.10612276748E+03  0.00000000000E+00 0.  1.
</event>
<event>
 7    1  0.2601031E-009  0.1313970E+03  0.7561462E-02  0.1225397E+00
          1   -1    0    0  501    0  0.00000000000E+00  0.00000000000E+00  0.16544117646E+03  0.16544117646E+03  0.00000000000E+00 0.  1.
         -1   -1    0    0    0  501 -0.00000000000E+00 -0.00000000000E+00 -0.20016424095E+03  0.20016424095E+03  0.00000000000E+00 0. -1.
         25    2    1    2    0    0 -0.10615827102E+03  0.79302814412E+01  0.80321166198E+02  0.18284184908E+03  0.12508870520E+03 0.  0.
          5    1    3    3  502    0 -0.30134917215E+02  0.56877952738E+02  0.64002282380E+02  0.90867922245E+02  0.41800000000E+01 0.  1.
         -5    1    3    3    0  502 -0.76023353806E+02 -0.48947671297E+02  0.16318883818E+02  0.91973926840E+02  0.41800000000E+01 0.  1.
        -11    1    1    2    0    0  0.43940617989E+02  0.50150904972E+01  0.73707432964E+01  0.44835888512E+02  0.00000000000E+00 0.  1.
         11    1    1    2    0    0  0.62217653032E+02 -0.12945371938E+02 -0.12241497399E+03  0.13792767982E+03  0.00000000000E+00 0. -1.
</event>
<event>
 7    1  0.2601031E-009  0.1049463E+03  0.7561462E-02  0.1270226E+00
          1   -1    0    0  501    0  0.00000000000E+00  0.00000000000E+00  0.56104076199E+03  0.56104076199E+03  0.00000000000E+00 0. -1.
         -1   -1    0    0    0  501 -0.00000000000E+00 -0.00000000000E+00 -0.25791632589E+02  0.25791632589E+02  0.00000000000E+00 0.  1.
         25    2    1    2    0    0  0.55140400382E+02  0.11945046395E+01  0.29196605629E+03  0.32238791061E+03  0.12509155160E+03 0.  0.
          5    1    3    3  502    0 -0.38940787813E+02  0.73838320510E+01  0.60795747595E+02  0.72694575154E+02  0.41800000000E+01 0. -1.
         -5    1    3    3    0  502  0.94081188196E+02 -0.61893274115E+01  0.23117030870E+03  0.24969333545E+03  0.41800000000E+01 0. -1.
        -11    1    1    2    0    0 -0.25946807419E+02 -0.26455248278E+02  0.29947982639E+02  0.47644502734E+02  0.00000000000E+00 0.  1.
         11    1    1    2    0    0 -0.29193592964E+02  0.25260743638E+02  0.21333509047E+03  0.21679998124E+03  0.00000000000E+00 0. -1.
</event>
<event>
 7    1  0.2601031E-009  0.9170929E+02  0.7561462E-02  0.1298764E+00
          2   -1    0    0  501    0  0.00000000000E+00  0.00000000000E+00  0.30343972804E+03  0.30343972804E+03  0.00000000000E+00 0.  1.
         -2   -1    0    0    0  501 -0.00000000000E+00 -0.00000000000E+00 -0.40542218999E+02  0.40542218999E+02  0.00000000000E+00 0. -1.
         25    2    1    2    0    0  0.14668883031E+02 -0.24016646195E+02  0.13430750500E+03  0.18568312451E+03  0.12509093254E+03 0.  0.
          5    1    3    3  502    0  0.18043870219E+02  0.43341338826E+02  0.98532168212E+02  0.10922505883E+03  0.41800000000E+01 0.  1.
         -5    1    3    3    0  502 -0.33749871882E+01 -0.67357985021E+02  0.35775336791E+02  0.76458065677E+02  0.41800000000E+01 0.  1.
        -11    1    1    2    0    0  0.92939960740E+01 -0.18049062136E+02 -0.62639479590E+00  0.20311065395E+02  0.00000000000E+00 0. -1.
         11    1    1    2    0    0 -0.23962879105E+02  0.42065708332E+02  0.12921639884E+03  0.13798775714E+03  0.00000000000E+00 0.  1.
</event>
<event>
 7    1  0.2601031E-009  0.8663809E+02  0.7561462E-02  0.1311203E+00
          2   -1    0    0  501    0  0.00000000000E+00  0.00000000000E+00  0.25513201877E+03  0.25513201877E+03  0.00000000000E+00 0. -1.
         -2   -1    0    0    0  501 -0.00000000000E+00 -0.00000000000E+00 -0.49266210995E+02  0.49266210995E+02  0.00000000000E+00 0.  1.
         25    2    1    2    0    0  0.16723370017E+02  0.22449816871E+02  0.14252922962E+03  0.19169168967E+03  0.12508979659E+03 0.  0.
          5    1    3    3  502    0 -0.14602186927E+02 -0.40096224826E+02  0.10222086745E+03  0.11084903811E+03  0.41800000000E+01 0.  1.
         -5    1    3    3    0  502  0.31325556945E+02  0.62546041697E+02  0.40308362172E+02  0.80842651557E+02  0.41800000000E+01 0.  1.
        -11    1    1    2    0    0  0.16417913198E+02 -0.21650813751E+02 -0.12523727573E+02  0.29919046813E+02  0.00000000000E+00 0.  1.
         11    1    1    2    0    0 -0.33141283215E+02 -0.79900311938E+00  0.75860305729E+02  0.82787493285E+02  0.00000000000E+00 0. -1.
</event>
<event>
 7    1  0.2601031E-009  0.9938209E+02  0.7561462E-02  0.1281601E+00
         -2   -1    0    0    0  501 -0.00000000000E+00  0.00000000000E+00  0.53514533124E+02  0.53514533124E+02  0.00000000000E+00 0.  1.
          2   -1    0    0  501    0  0.00000000000E+00 -0.00000000000E+00 -0.25534220998E+03  0.25534220998E+03  0.00000000000E+00 0. -1.
         25    2    1    2    0    0 -0.42360673071E+02 -0.79249255060E+01 -0.10147829033E+03  0.16674064385E+03  0.12508943935E+03 0.  0.
          5    1    3    3  502    0 -0.68668542336E+02 -0.25489455474E+02 -0.15435320070E+02  0.74972011795E+02  0.41800000000E+01 0. -1.
         -5    1    3    3    0  502  0.26307869266E+02  0.17564529968E+02 -0.86042970262E+02  0.91768632058E+02  0.41800000000E+01 0. -1.
        -11    1    1    2    0    0  0.47656717210E+02 -0.29265453477E+02 -0.84529886323E+02  0.10135546924E+03  0.00000000000E+00 0. -1.
         11    1    1    2    0    0 -0.52960441387E+01  0.37190378983E+02 -0.15819500199E+02  0.40760630012E+02  0.00000000000E+00 0.  1.
</event>
<event>
 7    1  0.2601031E-009  0.1908677E+03  0.7561462E-02  0.1157681E+00
          1   -1    0    0  501    0  0.00000000000E+00  0.00000000000E+00  0.19594833054E+03  0.19594833054E+03  0.00000000000E+00 0. -1.
         -1   -1    0    0    0  501 -0.00000000000E+00 -0.00000000000E+00 -0.47471612906E+03  0.47471612906E+03  0.00000000000E+00 0.  1.
         25    2    1    2    0    0  0.73955648384E+02  0.15602926169E+03 -0.39071559433E+03  0.44510865573E+03  0.12509385007E+03 0.  0.
          5    1    3    3  502    0 -0.33900179321E+01  0.12576674980E+03 -0.19077876267E+03  0.22856678732E+03  0.41800000000E+01 0.  1.
         -5    1    3    3    0  502  0.77345666316E+02  0.30262511883E+02 -0.19993683166E+03  0.21654186841E+03  0.41800000000E+01 0.  1.
        -11    1    1    2    0    0 -0.23272309222E+02 -0.46007011876E+02 -0.11259679304E+02  0.52773344562E+02  0.00000000000E+00 0.  1.
         11    1    1    2    0    0 -0.50683339162E+02 -0.11002224981E+03  0.12320747511E+03  0.17278245931E+03  0.00000000000E+00 0. -1.
</event>
<event>
 7    1  0.2601031E-009  0.2492838E+03  0.7561462E-02  0.1113758E+00
         -2   -1    0    0    0  501 -0.00000000000E+00  0.00000000000E+00  0.21908477998E+03  0.21908477998E+03  0.00000000000E+00 0.  1.
          2   -1    0    0  501    0  0.00000000000E+00 -0.00000000000E+00 -0.29242007488E+03  0.29242007488E+03  0.00000000000E+00 0. -1.
         25    2    1    2    0    0 -0.20594803424E+03  0.97328472818E+02 -0.57862121074E+02  0.26623792629E+03  0.12508870418E+03 0.  0.
          5    1    3    3  502    0 -0.77691617689E+01 -0.25276701897E+02 -0.48153882175E+01  0.27201689232E+02  0.41800000000E+01 0. -1.
         -5    1    3    3    0  502 -0.19817887247E+03  0.12260517471E+03 -0.53046732857E+02  0.23903623706E+03  0.41800000000E+01 0. -1.
        -11    1    1    2    0    0  0.15445206687E+03 -0.35914246890E+02  0.15532514834E+02  0.15933151950E+03  0.00000000000E+00 0.  1.
         11    1    1    2    0    0  0.51495967373E+02 -0.61414225928E+02 -0.31005688662E+02  0.85935409067E+02  0.00000000000E+00 0. -1.
</event>
<event>
 7    1  0.2601031E-009  0.1079904E+03  0.7561462E-02  0.1264337E+00
          2   -1    0    0  501    0  0.00000000000E+00  0.00000000000E+00  0.19265789238E+03  0.19265789238E+03  0.00000000000E+00 0. -1.
         -2   -1    0    0    0  501 -0.00000000000E+00 -0.00000000000E+00 -0.13276939623E+03  0.13276939623E+03  0.00000000000E+00 0.  1.
         25    2    1    2    0    0  0.59690995738E+02 -0.44978271306E+02  0.12543103672E+03  0.19226336630E+03  0.12508476001E+03 0.  0.
          5    1    3    3  502    0  0.83449476022E+01 -0.75538536863E+02  0.34953218637E+02  0.83755051161E+02  0.41800000000E+01 0.  1.
         -5    1    3    3    0  502  0.51346048136E+02  0.30560265557E+02  0.90477818082E+02  0.10850831514E+03  0.41800000000E+01 0.  1.
        -11    1    1    2    0    0  0.28076203498E+00  0.11073769922E+02 -0.63272015702E+02  0.64234376923E+02  0.00000000000E+00 0.  1.
         11    1    1    2    0    0 -0.59971757773E+02  0.33904501384E+02 -0.22705248645E+01  0.68929545389E+02  0.00000000000E+00 0. -1.
</event>
<event>
 7    1  0.2601031E-009  0.1625787E+03  0.7561462E-02  0.1185816E+00
         -1   -1    0    0    0  501 -0.00000000000E+00  0.00000000000E+00  0.12442416754E+03  0.12442416754E+03  0.00000000000E+00 0.  1.
          1   -1    0    0  501    0  0.00000000000E+00 -0.00000000000E+00 -0.43618580711E+03  0.43618580711E+03  0.00000000000E+00 0. -1.
         25    2    1    2    0    0  0.30651296725E+02 -0.14039941398E+03  0.16445902780E+02  0.19123244247E+03  0.12509149410E+03 0.  0.
          5    1    3    3  502    0 -0.11284542677E+02  0.15598221933E+02 -0.17227982445E+02  0.26170999408E+02  0.41800000000E+01 0.  1.
         -5    1    3    3    0  502  0.41935839402E+02 -0.15599763592E+03  0.33673885225E+02  0.16506144306E+03  0.41800000000E+01 0.  1.
        -11    1    1    2    0    0 -0.51146957343E+01  0.37434222997E+02 -0.18624884228E+02  0.42123241522E+02  0.00000000000E+00 0. -1.
         11    1    1    2    0    0 -0.25536600991E+02  0.10296519099E+03 -0.30958265813E+03  0.32725429066E+03  0.00000000000E+00 0.  1.
</event>
<event>
 7    1  0.2601031E-009  0.1275518E+03  0.7561462E-02  0.1231134E+00
         -2   -1    0    0    0  501 -0.00000000000E+00  0.00000000000E+00  0.19369208199E+03  0.19369208199E+03  0.00000000000E+00 0.  1.
          2   -1    0    0  501    0  0.00000000000E+00 -0.00000000000E+00 -0.89596226271E+02  0.89596226271E+02  0.00000000000E+00 0. -1.
         25    2    1    2    0    0  0.54618080706E+02  0.35582298123E+01  0.48879038450E+02  0.14503176725E+03  0.12509699186E+03 0.  0.
          5    1    3    3  502    0  0.91062758636E+02 -0.18106143843E+02  0.41543186074E+02  0.10180160689E+03  0.41800000000E+01 0.  1.
         -5    1    3    3    0  502 -0.36444677930E+02  0.21664373655E+02  0.73358523759E+01  0.43230160367E+02  0.41800000000E+01 0.  1.
        -11    1    1    2    0    0 -0.76508253956E+02 -0.32624529655E+02  0.58552716158E+02  0.10171673131E+03  0.00000000000E+00 0.  1.
         11    1    1    2    0    0  0.21890173250E+02  0.29066299843E+02 -0.33358988895E+01  0.36539809699E+02  0.00000000000E+00 0. -1.
</event>
<event>
 7    1  0.2601031E-009  0.1011196E+03  0.7561462E-02  0.1277959E+00
         -1   -1    0    0    0  501 -0.00000000000E+00  0.00000000000E+00  0.24786966940E+02  0.24786966940E+02  0.00000000000E+00 0.  1.
          1   -1    0    0  501    0  0.00000000000E+00 -0.00000000000E+00 -0.88870367973E+03  0.88870367973E+03  0.00000000000E+00 0. -1.
         25    2    1    2    0    0 -0.30267617625E+02  0.55020732243E+02 -0.71997737217E+03  0.73345697416E+03  0.12509319271E+03 0.  0.
          5    1    3    3  502    0 -0.54218583893E+02  0.84945612177E+02 -0.49043249242E+03  0.50069642888E+03  0.41800000000E+01 0.  1.
         -5    1    3    3    0  502  0.23950966268E+02 -0.29924879934E+02 -0.22954487975E+03  0.23276054529E+03  0.41800000000E+01 0.  1.
        -11    1    1    2    0    0  0.18589489967E+02 -0.31972075248E+02 -0.34007140881E+01  0.37139569050E+02  0.00000000000E+00 0.  1.
         11    1    1    2    0    0  0.11678127658E+02 -0.23048656995E+02 -0.14053862653E+03  0.14289410345E+03  0.00000000000E+00 0. -1.
</event>
<event>
 7    1  0.2601031E-009  0.8900098E+02  0.7561462E-02  0.1305289E+00
         -1   -1    0    0    0  501 -0.00000000000E+00  0.00000000000E+00  0.43895939644E+02  0.43895939644E+02  0.00000000000E+00 0.  1.
          1   -1    0    0  501    0  0.00000000000E+00 -0.00000000000E+00 -0.35256570690E+03  0.35256570690E+03  0.00000000000E+00 0. -1.
         25    2    1    2    0    0  0.38591017420E+02  0.24893708187E+02 -0.22058030692E+03  0.25770490780E+03  0.12508870602E+03 0.  0.
          5    1    3    3  502    0 -0.37866492325E+02  0.26792698603E+01 -0.22847375302E+02  0.44503086254E+02  0.41800000000E+01 0.  1.
         -5    1    3    3    0  502  0.76457509745E+02  0.22214438327E+02 -0.19773293162E+03  0.21320182155E+03  0.41800000000E+01 0.  1.
        -11    1    1    2    0    0 -0.35209237166E+01  0.10005234056E+02  0.18454599933E+02  0.21285531965E+02  0.00000000000E+00 0.  1.
         11    1    1    2    0    0 -0.35070093704E+02 -0.34898942244E+02 -0.10654406027E+03  0.11747120677E+03  0.00000000000E+00 0. -1.
</event>
<event>
 7    1  0.2601031E-009  0.1156319E+03  0.7561462E-02  0.1250482E+00
         -2   -1    0    0    0  501 -0.00000000000E+00  0.00000000000E+00  0.27973067769E+02  0.27973067769E+02  0.00000000000E+00 0.  1.
          2   -1    0    0  501    0  0.00000000000E+00 -0.00000000000E+00 -0.67230662204E+03  0.67230662204E+03  0.00000000000E+00 0. -1.
         25    2    1    2    0    0 -0.35476860836E+02 -0.73454472645E+02 -0.30316324271E+03  0.33794900711E+03  0.12508961775E+03 0.  0.
          5    1    3    3  502    0 -0.39876487599E+02 -0.10628382276E+03 -0.25693251806E+03  0.28092379123E+03  0.41800000000E+01 0. -1.
         -5    1    3    3    0  502  0.43996267628E+01  0.32829350111E+02 -0.46230724651E+02  0.57025215879E+02  0.41800000000E+01 0. -1.
        -11    1    1    2    0    0  0.96834229205E+01  0.45305959669E+01  0.24084764940E+01  0.10958820114E+02  0.00000000000E+00 0.  1.
         11    1    1    2    0    0  0.25793437915E+02  0.68923876678E+02 -0.34357878805E+03  0.35137186258E+03  0.00000000000E+00 0. -1.
</event>
<event>
 7    1  0.2601031E-009  0.1810084E+03  0.7561462E-02  0.1166831E+00
         -1   -1    0    0    0  501 -0.00000000000E+00  0.00000000000E+00  0.11538275070E+03  0.11538275070E+03  0.00000000000E+00 0.  1.
          1   -1    0    0  501    0  0.00000000000E+00 -0.00000000000E+00 -0.40966908764E+03  0.40966908764E+03  0.00000000000E+00 0. -1.
         25    2    1    2    0    0 -0.13563511564E+03  0.11591603523E+03 -0.22284037409E+03  0.31167279973E+03  0.12509472391E+03 0.  0.
          5    1    3    3  502    0 -0.19597673759E+02  0.40315864236E+02 -0.14695703010E+03  0.15369866239E+03  0.41800000000E+01 0. -1.
         -5    1    3    3    0  502 -0.11603744188E+03  0.75600170997E+02 -0.75883343990E+02  0.15797413734E+03  0.41800000000E+01 0. -1.
        -11    1    1    2    0    0  0.68335087242E+02 -0.60209639113E+02 -0.85465797975E+02  0.12489710731E+03  0.00000000000E+00 0. -1.
         11    1    1    2    0    0  0.67300028394E+02 -0.55706396120E+02  0.14019835130E+02  0.88481931305E+02  0.00000000000E+00 0.  1.
</event>
<event>
 7    1  0.2601031E-009  0.1246315E+03  0.7561462E-02  0.1235646E+00
          1   -1    0    0  501    0  0.00000000000E+00  0.00000000000E+00  0.71735050340E+03  0.71735050340E+03  0.00000000000E+00 0. -1.
         -1   -1    0    0    0  501 -0.00000000000E+00 -0.00000000000E+00 -0.36098338375E+02  0.36098338375E+02  0.00000000000E+00 0.  1.
         25    2    1    2    0    0  0.84401937437E+02  0.25700893033E+02  0.54403332018E+03  0.56515790069E+03  0.12508787429E+03 0.  0.
          5    1    3    3  502    0  0.78965849177E+02 -0.28034720467E+02  0.43934736758E+03  0.44728641013E+03  0.41800000000E+01 0.  1.
         -5    1    3    3    0  502  0.54360882603E+01  0.53735613500E+02  0.10468595261E+03  0.11787149056E+03  0.41800000000E+01 0.  1.
        -11    1    1    2    0    0 -0.85093382537E+02  0.38831445296E+00  0.53303010557E+02  0.10041038529E+03  0.00000000000E+00 0.  1.
         11    1    1    2    0    0  0.69144510002E+00 -0.26089207486E+02  0.83915834280E+02  0.87880555793E+02  0.00000000000E+00 0. -1.
</event>
<event>
 7    1  0.2601031E-009  0.1337643E+03  0.7561462E-02  0.1221975E+00
          1   -1    0    0  501    0  0.00000000000E+00  0.00000000000E+00  0.15376821432E+04  0.15376821432E+04  0.00000000000E+00 0. -1.
         -1   -1    0    0    0  501 -0.00000000000E+00 -0.00000000000E+00 -0.29712928585E+02  0.29712928585E+02  0.00000000000E+00 0.  1.
         25    2    1    2    0    0 -0.66491234512E+02  0.37549711451E+02  0.13735882578E+04  0.13813848087E+04  0.12509285576E+03 0.  0.
          5    1    3    3  502    0 -0.25117551376E+02 -0.45750519176E+02  0.41630227523E+03  0.41958200409E+03  0.41800000000E+01 0.  1.
         -5    1    3    3    0  502 -0.41373683136E+02  0.83300230627E+02  0.95728598259E+03  0.96180280460E+03  0.41800000000E+01 0.  1.
        -11    1    1    2    0    0  0.37423746590E+02  0.30364777467E+02  0.83164321147E+02  0.96118993083E+02  0.00000000000E+00 0. -1.
         11    1    1    2    0    0  0.29067487922E+02 -0.67914488918E+02  0.51216635670E+02  0.89891270034E+02  0.00000000000E+00 0.  1.
</event>
<event>
 7    1  0.2601031E-009  0.2102315E+03  0.7561462E-02  0.1141383E+00
          1   -1    0    0  501    0  0.00000000000E+00  0.00000000000E+00  0.14281669011E+04  0.14281669011E+04  0.00000000000E+00 0. -1.
         -1   -1    0    0    0  501 -0.00000000000E+00 -0.00000000000E+00 -0.32217701521E+02  0.32217701521E+02  0.00000000000E+00 0.  1.
         25    2    1    2    0    0 -0.11648233163E+03 -0.14163548076E+03  0.77845549584E+03  0.80948721641E+03  0.12509137271E+03 0.  0.
          5    1    3    3  502    0 -0.14245781407E+03 -0.12134476782E+03  0.62254354026E+03  0.65007439066E+03  0.41800000000E+01 0.  1.
         -5    1    3    3    0  502  0.25975482446E+02 -0.20290712933E+02  0.15591195558E+03  0.15941282575E+03  0.41800000000E+01 0.  1.
        -11    1    1    2    0    0  0.72102757598E+02  0.26760444887E+02  0.31595319009E+03  0.32517894672E+03  0.00000000000E+00 0.  1.
         11    1    1    2    0    0  0.44379574029E+02  0.11487503587E+03  0.30154051369E+03  0.32571843953E+03  0.00000000000E+00 0. -1.
</event>
<event>
 7    1  0.2601031E-009  0.1705731E+03  0.7561462E-02  0.1177251E+00
         -3   -1    0    0    0  501 -0.00000000000E+00  0.00000000000E+00  0.14798788969E+04  0.14798788969E+04  0.00000000000E+00 0.  1.
          3   -1    0    0  501    0  0.00000000000E+00 -0.00000000000E+00 -0.22665887440E+02  0.22665887440E+02  0.00000000000E+00 0. -1.
         25    2    1    2    0    0  0.12876828531E+03  0.64039813660E+02  0.89360226444E+03  0.91370389771E+03  0.12508971439E+03 0.  0.
          5    1    3    3  502    0  0.20269093986E+02 -0.24404731852E+02  0.56188415138E+02  0.64660942643E+02  0.41800000000E+01 0. -1.
         -5    1    3    3    0  502  0.10849919133E+03  0.88444545511E+02  0.83741384930E+03  0.84904295507E+03  0.41800000000E+01 0. -1.
        -11    1    1    2    0    0 -0.50267033800E+02  0.20004339927E+02  0.21732312862E+03  0.22395600134E+03  0.00000000000E+00 0. -1.
         11    1    1    2    0    0 -0.78501251513E+02 -0.84044153586E+02  0.34628761644E+03  0.36488488533E+03  0.00000000000E+00 0.  1.
</event>
<event>
 7    1  0.2601031E-009  0.8678890E+02  0.7561462E-02  0.1310820E+00
          1   -1    0    0  501    0  0.00000000000E+00  0.00000000000E+00  0.37439363602E+02  0.37439363602E+02  0.00000000000E+00 0. -1.
         -1   -1    0    0    0  501 -0.00000000000E+00 -0.00000000000E+00 -0.37110495797E+03  0.37110495797E+03  0.00000000000E+00 0.  1.
         25    2    1    2    0    0  0.23561296521E+02 -0.87415391682E+01 -0.26015617137E+03  0.28975871605E+03  0.12508929140E+03 0.  0.
          5    1    3    3  502    0  0.51760353445E+02 -0.29117708706E+02 -0.53151780385E+02  0.79809518901E+02  0.41800000000E+01 0. -1.
         -5    1    3    3    0  502 -0.28199056924E+02  0.20376169538E+02 -0.20700439098E+03  0.20994919715E+03  0.41800000000E+01 0. -1.
        -11    1    1    2    0    0 -0.45500285733E+02  0.24794143458E+02 -0.14487925911E+02  0.53804512346E+02  0.00000000000E+00 0. -1.
         11    1    1    2    0    0  0.21938989212E+02 -0.16052604290E+02 -0.59021497091E+02  0.64981093181E+02  0.00000000000E+00 0.  1.
</event>
<event>
 7    1  0.2601031E-009  0.6059467E+02  0.7561462E-02  0.1395353E+00
          1   -1    0    0  501    0  0.00000000000E+00  0.00000000000E+00  0.78902115866E+02  0.78902115866E+02  0.00000000000E+00 0. -1.
         -1   -1    0    0    0  501 -0.00000000000E+00 -0.00000000000E+00 -0.15236183739E+03  0.15236183739E+03  0.00000000000E+00 0.  1.
         25    2    1    2    0    0  0.11349953950E+01  0.52469941360E+01 -0.26803386058E+02  0.12804983356E+03  0.12509803838E+03 0.  0.
          5    1    3    3  502    0 -0.15083653428E+02 -0.28946483671E+02  0.39610150500E+02  0.51496135197E+02  0.41800000000E+01 0.  1.
         -5    1    3    3    0  502  0.16218648823E+02  0.34193477807E+02 -0.66413536558E+02  0.76553698358E+02  0.41800000000E+01 0.  1.
        -11    1    1    2    0    0 -0.10230683922E+02  0.20494313557E+02 -0.65929664417E+02  0.69795447070E+02  0.00000000000E+00 0.  1.
         11    1    1    2    0    0  0.90956885267E+01 -0.25741307693E+02  0.19273328951E+02  0.33418672630E+02  0.00000000000E+00 0. -1.
</event>
<event>
 7    1  0.2601031E-009  0.1233595E+03  0.7561462E-02  0.1237656E+00
         -2   -1    0    0    0  501 -0.00000000000E+00  0.00000000000E+00  0.13041384861E+03  0.13041384861E+03  0.00000000000E+00 0. -1.
          2   -1    0    0  501    0  0.00000000000E+00 -0.00000000000E+00 -0.13315418558E+03  0.13315418558E+03  0.00000000000E+00 0.  1.
         25    2    1    2    0    0  0.68018406732E+02  0.65251953360E+01  0.31047046994E+02  0.14587644881E+03  0.12508771867E+03 0.  0.
          5    1    3    3  502    0  0.99178627818E+02  0.20430676211E+02  0.28053975890E+01  0.10138616968E+03  0.41800000000E+01 0. -1.
         -5    1    3    3    0  502 -0.31160221085E+02 -0.13905480875E+02  0.28241649405E+02  0.44490279136E+02  0.41800000000E+01 0. -1.
        -11    1    1    2    0    0 -0.54816066042E+02 -0.44617500004E+02 -0.31300294294E+02  0.77299617243E+02  0.00000000000E+00 0.  1.
         11    1    1    2    0    0 -0.13202340690E+02  0.38092304668E+02 -0.24870896662E+01  0.40391968133E+02  0.00000000000E+00 0. -1.
</event>
<event>
 7    1  0.2601031E-009  0.3868728E+03  0.7561462E-02  0.1048422E+00
          1   -1    0    0  501    0  0.00000000000E+00  0.00000000000E+00  0.97701569675E+03  0.97701569675E+03  0.00000000000E+00 0. -1.
         -1   -1    0    0    0  501 -0.00000000000E+00 -0.00000000000E+00 -0.16460777105E+03  0.16460777105E+03  0.00000000000E+00 0.  1.
         25    2    1    2    0    0  0.26859837378E+03 -0.27353252881E+03  0.47452563040E+03  0.62272476251E+03  0.12508567152E+03 0.  0.
          5    1    3    3  502    0  0.45417986943E+02 -0.91706310079E+02  0.20106969948E+03  0.22565313491E+03  0.41800000000E+01 0.  1.
         -5    1    3    3    0  502  0.22318038684E+03 -0.18182621873E+03  0.27345593092E+03  0.39707162760E+03  0.41800000000E+01 0.  1.
        -11    1    1    2    0    0 -0.40481936253E+02  0.37801701466E+02  0.12335927665E+02  0.56744435038E+02  0.00000000000E+00 0.  1.
         11    1    1    2    0    0 -0.22811643753E+03  0.23573082734E+03  0.32554636763E+03  0.46215427025E+03  0.00000000000E+00 0. -1.
</event>
<event>
 7    1  0.2977355E-009  0.1481708E+03  0.7561462E-02  0.1202739E+00
          1   -1    0    0  501    0  0.00000000000E+00  0.00000000000E+00  0.12312400552E+04  0.12312400552E+04  0.00000000000E+00 0. -1.
         -1   -1    0    0    0  501 -0.00000000000E+00 -0.00000000000E+00 -0.20932542249E+02  0.20932542249E+02  0.00000000000E+00 0.  1.
         25    2    1    2    0    0 -0.14990939807E+02 -0.11436342735E+03  0.75230108529E+03  0.77130281960E+03  0.12508954711E+03 0.  0.
          5    1    3    3  502    0 -0.48468355696E+02 -0.58229652768E+01  0.13480155413E+03  0.14342949426E+03  0.41800000000E+01 0.  1.
         -5    1    3    3    0  502  0.33477415889E+02 -0.10854046207E+03  0.61749953117E+03  0.62787332534E+03  0.41800000000E+01 0.  1.
        -11    1    1    2    0    0  0.42085248541E+02  0.67172873786E+02  0.16748202351E+03  0.18529325761E+03  0.00000000000E+00 0.  1.
         11    1    1    2    0    0 -0.27094308734E+02  0.47190553562E+02  0.29052440415E+03  0.29557652024E+03  0.00000000000E+00 0. -1.
</event>
<event>
 7    1  0.2601031E-009  0.1080010E+03  0.7561462E-02  0.1264317E+00
          1   -1    0    0  501    0  0.00000000000E+00  0.00000000000E+00  0.39110068805E+03  0.39110068805E+03  0.00000000000E+00 0. -1.
         -1   -1    0    0    0  501 -0.00000000000E+00 -0.00000000000E+00 -0.59017300612E+02  0.59017300612E+02  0.00000000000E+00 0.  1.
         25    2    1    2    0    0 -0.27945173482E+02  0.45341943990E+02  0.30243123692E+03  0.33158720090E+03  0.12509434091E+03 0.  0.
          5    1    3    3  502    0 -0.49602802364E+02 -0.19150763245E+02  0.21045446361E+03  0.21710767695E+03  0.41800000000E+01 0. -1.
         -5    1    3    3    0  502  0.21657628882E+02  0.64492707235E+02  0.91976773306E+02  0.11447952395E+03  0.41800000000E+01 0. -1.
        -11    1    1    2    0    0  0.55015966749E+02 -0.23947710152E+02 -0.15243223417E+02  0.61908038888E+02  0.00000000000E+00 0.  1.
         11    1    1    2    0    0 -0.27070793267E+02 -0.21394233838E+02  0.44895373935E+02  0.56622748877E+02  0.00000000000E+00 0. -1.
</event>
<event>
 7    1  0.2601031E-009  0.9430255E+02  0.7561462E-02  0.1292755E+00
          1   -1    0    0  501    0  0.00000000000E+00  0.00000000000E+00  0.51599301085E+02  0.51599301085E+02  0.00000000000E+00 0. -1.
         -1   -1    0    0    0  501 -0.00000000000E+00 -0.00000000000E+00 -0.23555178431E+03  0.23555178431E+03  0.00000000000E+00 0.  1.
         25    2    1    2    0    0  0.59657664946E+01 -0.13726815354E+02 -0.11367482094E+03  0.16968805389E+03  0.12509218555E+03 0.  0.
          5    1    3    3  502    0  0.60236835880E+02 -0.20035970326E+02 -0.31684589139E+02  0.71072512920E+02  0.41800000000E+01 0. -1.
         -5    1    3    3    0  502 -0.54271069386E+02  0.63091549715E+01 -0.81990231805E+02  0.98615540967E+02  0.41800000000E+01 0. -1.
        -11    1    1    2    0    0  0.14314634816E+02 -0.23661926362E+02  0.76406136406E+01  0.28691017860E+02  0.00000000000E+00 0. -1.
         11    1    1    2    0    0 -0.20280401310E+02  0.37388741716E+02 -0.77918275921E+02  0.88772013647E+02  0.00000000000E+00 0.  1.
</event>
<event>
 7    1  0.2601031E-009  0.7407562E+02  0.7561462E-02  0.1346758E+00
         -2   -1    0    0    0  501 -0.00000000000E+00  0.00000000000E+00  0.64838420829E+02  0.64838420829E+02  0.00000000000E+00 0.  1.
          2   -1    0    0  501    0  0.00000000000E+00 -0.00000000000E+00 -0.18740349682E+03  0.18740349682E+03  0.00000000000E+00 0. -1.
         25    2    1    2    0    0  0.77109147806E+01 -0.28605932726E+02 -0.67253255474E+02  0.14507955315E+03  0.12508924325E+03 0.  0.
          5    1    3    3  502    0 -0.18599551472E+02 -0.49390944258E+02  0.15937010714E+02  0.55288962734E+02  0.41800000000E+01 0.  1.
         -5    1    3    3    0  502  0.26310466253E+02  0.20785011533E+02 -0.83190266189E+02  0.89790590417E+02  0.41800000000E+01 0.  1.
        -11    1    1    2    0    0  0.20397218909E+02 -0.12228625977E+01 -0.62317651255E+02  0.65582250572E+02  0.00000000000E+00 0. -1.
         11    1    1    2    0    0 -0.28108133690E+02  0.29828795323E+02  0.70058307355E+01  0.41580113928E+02  0.00000000000E+00 0.  1.
</event>
<event>
 7    1  0.2601031E-009  0.1873463E+03  0.7561462E-02  0.1160877E+00
          2   -1    0    0  501    0  0.00000000000E+00  0.00000000000E+00  0.51354047841E+03  0.51354047841E+03  0.00000000000E+00 0. -1.
         -2   -1    0    0    0  501 -0.00000000000E+00 -0.00000000000E+00 -0.80268447676E+02  0.80268447676E+02  0.00000000000E+00 0.  1.
         25    2    1    2    0    0 -0.26858693309E+02 -0.16837441707E+03  0.22135826306E+03  0.30613575398E+03  0.12509310737E+03 0.  0.
          5    1    3    3  502    0 -0.56614268187E+02 -0.79912068270E+02  0.47862475180E+02  0.10908438453E+03  0.41800000000E+01 0.  1.
         -5    1    3    3    0  502  0.29755574878E+02 -0.88462348800E+02  0.17349578788E+03  0.19705136945E+03  0.41800000000E+01 0.  1.
        -11    1    1    2    0    0  0.49232425327E+02  0.12695953044E+03  0.19461365768E+03  0.23752269330E+03  0.00000000000E+00 0.  1.
         11    1    1    2    0    0 -0.22373732018E+02  0.41414886626E+02  0.17300109988E+02  0.50150478804E+02  0.00000000000E+00 0. -1.
</event>
<event>
 7    1  0.2601031E-009  0.5404295E+03  0.7561462E-02  0.1003734E+00
          1   -1    0    0  501    0  0.00000000000E+00  0.00000000000E+00  0.10549294803E+04  0.10549294803E+04  0.00000000000E+00 0. -1.
         -1   -1    0    0    0  501 -0.00000000000E+00 -0.00000000000E+00 -0.31991442168E+03  0.31991442168E+03  0.00000000000E+00 0.  1.
         25    2    1    2    0    0  0.49527984075E+03  0.20680482389E+03  0.14463994486E+03  0.56977082743E+03  0.12509087220E+03 0.  0.
          5    1    3    3  502    0  0.32600977913E+03  0.17707437372E+03  0.52475104672E+02  0.37471164771E+03  0.41800000000E+01 0. -1.
         -5    1    3    3    0  502  0.16927006161E+03  0.29730450168E+02  0.92164840192E+02  0.19505917972E+03  0.41800000000E+01 0. -1.
        -11    1    1    2    0    0 -0.29777060765E+03 -0.14332155421E+03  0.43287409236E+03  0.54459928619E+03  0.00000000000E+00 0. -1.
         11    1    1    2    0    0 -0.19750923310E+03 -0.63483269680E+02  0.15750102143E+03  0.26047378839E+03  0.00000000000E+00 0.  1.
</event>
<event>
 7    1  0.2601031E-009  0.1824385E+03  0.7561462E-02  0.1165464E+00
         -1   -1    0    0    0  501 -0.00000000000E+00  0.00000000000E+00  0.52073572248E+03  0.52073572248E+03  0.00000000000E+00 0.  1.
          1   -1    0    0  501    0  0.00000000000E+00 -0.00000000000E+00 -0.81743704576E+02  0.81743704576E+02  0.00000000000E+00 0. -1.
         25    2    1    2    0    0 -0.14002265758E+03 -0.71441567316E+02  0.34229648575E+03  0.39689457542E+03  0.12509267631E+03 0.  0.
          5    1    3    3  502    0  0.19426107381E+02 -0.24371035549E+02  0.32131670735E+02  0.44958177075E+02  0.41800000000E+01 0.  1.
         -5    1    3    3    0  502 -0.15944876496E+03 -0.47070531767E+02  0.31016481502E+03  0.35193639835E+03  0.41800000000E+01 0.  1.
        -11    1    1    2    0    0  0.94002068063E+01 -0.95770825921E+01  0.39270152335E+02  0.41499750160E+02  0.00000000000E+00 0.  1.
         11    1    1    2    0    0  0.13062245077E+03  0.81018649908E+02  0.57425379814E+02  0.16408510147E+03  0.00000000000E+00 0. -1.
</event>
<event>
 7    1  0.2601031E-009  0.1121577E+03  0.7561462E-02  0.1256626E+00
         -2   -1    0    0    0  501 -0.00000000000E+00  0.00000000000E+00  0.28779767144E+02  0.28779767144E+02  0.00000000000E+00 0.  1.
          2   -1    0    0  501    0  0.00000000000E+00 -0.00000000000E+00 -0.12862081588E+04  0.12862081588E+04  0.00000000000E+00 0. -1.
         25    2    1    2    0    0  0.68002933956E+02 -0.19177202006E+01 -0.11486346892E+04  0.11574270803E+04  0.12509084866E+03 0.  0.
          5    1    3    3  502    0  0.44267767746E+01 -0.40973532183E+02 -0.79018928458E+03  0.79127429160E+03  0.41800000000E+01 0.  1.
         -5    1    3    3    0  502  0.63576157182E+02  0.39055811982E+02 -0.35844540459E+03  0.36615278871E+03  0.41800000000E+01 0.  1.
        -11    1    1    2    0    0 -0.87244326111E+02 -0.57825502346E+01 -0.64479818188E+02  0.10864003534E+03  0.00000000000E+00 0.  1.
         11    1    1    2    0    0  0.19241392155E+02  0.77002704352E+01 -0.44313884296E+02  0.48920810278E+02  0.00000000000E+00 0. -1.
</event>
<event>
 7    1  0.2601031E-009  0.1200796E+03  0.7561462E-02  0.1242966E+00
          3   -1    0    0  501    0  0.00000000000E+00  0.00000000000E+00  0.53115672865E+03  0.53115672865E+03  0.00000000000E+00 0.  1.
         -3   -1    0    0    0  501 -0.00000000000E+00 -0.00000000000E+00 -0.44546142241E+02  0.44546142241E+02  0.00000000000E+00 0. -1.
         25    2    1    2    0    0  0.17005527069E+02  0.85443229273E+02  0.14121988840E+03  0.20779725887E+03  0.12508761143E+03 0.  0.
          5    1    3    3  502    0 -0.41219593244E+02 -0.39957492103E+01  0.62610323338E+02  0.75183414843E+02  0.41800000000E+01 0. -1.
         -5    1    3    3    0  502  0.58225120313E+02  0.89438978483E+02  0.78609565062E+02  0.13261384402E+03  0.41800000000E+01 0. -1.
        -11    1    1    2    0    0 -0.27047632381E+00 -0.66321160103E+02  0.33317333945E+03  0.33971023469E+03  0.00000000000E+00 0.  1.
         11    1    1    2    0    0 -0.16735050745E+02 -0.19122069170E+02  0.12217358562E+02  0.28195377334E+02  0.00000000000E+00 0. -1.
</event>
<event>
 7    1  0.2601031E-009  0.7230390E+02  0.7561462E-02  0.1352429E+00
         -2   -1    0    0    0  501 -0.00000000000E+00  0.00000000000E+00  0.54453249688E+02  0.54453249688E+02  0.00000000000E+00 0.  1.
          2   -1    0    0  501    0  0.00000000000E+00 -0.00000000000E+00 -0.43034799973E+03  0.43034799973E+03  0.00000000000E+00 0. -1.
         25    2    1    2    0    0  0.39584815624E+02  0.30876979707E+01 -0.44062042274E+02  0.13844115980E+03  0.12509196477E+03 0.  0.
          5    1    3    3  502    0  0.30063774947E+02  0.11121597622E+02  0.41089699311E+02  0.52281509993E+02  0.41800000000E+01 0. -1.
         -5    1    3    3    0  502  0.95210406774E+01 -0.80338996518E+01 -0.85151741584E+02  0.86159649802E+02  0.41800000000E+01 0. -1.
        -11    1    1    2    0    0  0.18606918920E+02  0.27651895419E+02 -0.10371143632E+03  0.10893533299E+03  0.00000000000E+00 0. -1.
         11    1    1    2    0    0 -0.58191734544E+02 -0.30739593389E+02 -0.22812127146E+03  0.23742475663E+03  0.00000000000E+00 0.  1.
</event>
<event>
 7    1  0.2601031E-009  0.1764919E+03  0.7561462E-02  0.1171242E+00
          2   -1    0    0  501    0  0.00000000000E+00  0.00000000000E+00  0.65616780866E+03  0.65616780866E+03  0.00000000000E+00 0. -1.
         -2   -1    0    0    0  501 -0.00000000000E+00 -0.00000000000E+00 -0.57936966222E+02  0.57936966222E+02  0.00000000000E+00 0.  1.
         25    2    1    2    0    0  0.13937739578E+03  0.70379523136E+02  0.39415547162E+03  0.44202386898E+03  0.12508888524E+03 0.  0.
          5    1    3    3  502    0  0.29609506291E+01  0.54578598329E+02  0.17478919506E+03  0.18318385773E+03  0.41800000000E+01 0.  1.
         -5    1    3    3    0  502  0.13641644515E+03  0.15800924806E+02  0.21936627656E+03  0.25884001125E+03  0.41800000000E+01 0.  1.
        -11    1    1    2    0    0 -0.34390924106E+02 -0.37216380666E+02  0.12960927096E+03  0.13916306180E+03  0.00000000000E+00 0. -1.
         11    1    1    2    0    0 -0.10498647167E+03 -0.33163142470E+02  0.74466099860E+02  0.13291784410E+03  0.00000000000E+00 0.  1.
</event>
<event>
 7    1  0.2601031E-009  0.1205289E+03  0.7561462E-02  0.1242227E+00
         -2   -1    0    0    0  501 -0.00000000000E+00  0.00000000000E+00  0.14186417203E+03  0.14186417203E+03  0.00000000000E+00 0.  1.
          2   -1    0    0  501    0  0.00000000000E+00 -0.00000000000E+00 -0.17518533081E+03  0.17518533081E+03  0.00000000000E+00 0. -1.
         25    2    1    2    0    0  0.61892782088E+02 -0.86989930647E+02 -0.57919815150E+02  0.17435738288E+03  0.12509127655E+03 0.  0.
          5    1    3    3  502    0  0.40263314235E+01  0.16087936756E+01  0.33753708920E+02  0.34286802530E+02  0.41800000000E+01 0.  1.
         -5    1    3    3    0  502  0.57866450665E+02 -0.88598724322E+02 -0.91673524070E+02  0.14007058035E+03  0.41800000000E+01 0.  1.
        -11    1    1    2    0    0 -0.71931356372E+02  0.42556001223E+02 -0.11769253546E+02  0.84401709690E+02  0.00000000000E+00 0. -1.
         11    1    1    2    0    0  0.10038574284E+02  0.44433929424E+02  0.36367909911E+02  0.58290410266E+02  0.00000000000E+00 0.  1.
</event>
<event>
 7    1  0.2601031E-009  0.5732146E+02  0.7561462E-02  0.1409429E+00
         -1   -1    0    0    0  501 -0.00000000000E+00  0.00000000000E+00  0.62284932464E+02  0.62284932464E+02  0.00000000000E+00 0. -1.
          1   -1    0    0  501    0  0.00000000000E+00 -0.00000000000E+00 -0.20792852749E+03  0.20792852749E+03  0.00000000000E+00 0.  1.
         25    2    1    2    0    0  0.26108284491E+02 -0.27875308102E+02 -0.96729377320E+02  0.16267324990E+03  0.12508932198E+03 0.  0.
          5    1    3    3  502    0  0.18665276000E+02 -0.23893930708E+02 -0.12717377849E+03  0.13080502585E+03  0.41800000000E+01 0.  1.
         -5    1    3    3    0  502  0.74430084918E+01 -0.39813773943E+01  0.30444401169E+02  0.31868224047E+02  0.41800000000E+01 0.  1.
        -11    1    1    2    0    0 -0.34130149492E+02  0.44545141111E+02 -0.62940386890E+02  0.84324545672E+02  0.00000000000E+00 0.  1.
         11    1    1    2    0    0  0.80218650002E+01 -0.16669833009E+02  0.14026169187E+02  0.23215664382E+02  0.00000000000E+00 0. -1.
</event>
<event>
 7    1  0.2601031E-009  0.1062863E+03  0.7561462E-02  0.1267606E+00
         -1   -1    0    0    0  501 -0.00000000000E+00  0.00000000000E+00  0.80873376686E+02  0.80873376686E+02  0.00000000000E+00 0.  1.
          1   -1    0    0  501    0  0.00000000000E+00 -0.00000000000E+00 -0.37982233121E+03  0.37982233121E+03  0.00000000000E+00 0. -1.
         25    2    1    2    0    0 -0.75943232773E+02  0.92225232383E+01 -0.30822488405E+03  0.34132449970E+03  0.12508958953E+03 0.  0.
          5    1    3    3  502    0 -0.87289017172E+02  0.38774295202E+02 -0.13646677343E+03  0.16662374122E+03  0.41800000000E+01 0.  1.
         -5    1    3    3    0  502  0.11345784399E+02 -0.29551771964E+02 -0.17175811062E+03  0.17470075848E+03  0.41800000000E+01 0.  1.
        -11    1    1    2    0    0  0.44275867146E+02  0.13239836463E+02 -0.36831265747E+02  0.59094735955E+02  0.00000000000E+00 0. -1.
         11    1    1    2    0    0  0.31667365627E+02 -0.22462359701E+02  0.46107195277E+02  0.60276472238E+02  0.00000000000E+00 0.  1.
</event>
<event>
 7    1  0.2601031E-009  0.8662025E+02  0.7561462E-02  0.1311249E+00
         -1   -1    0    0    0  501 -0.00000000000E+00  0.00000000000E+00  0.82073267731E+02  0.82073267731E+02  0.00000000000E+00 0.  1.
          1   -1    0    0  501    0  0.00000000000E+00 -0.00000000000E+00 -0.17685683586E+03  0.17685683586E+03  0.00000000000E+00 0. -1.
         25    2    1    2    0    0  0.49683214395E+02 -0.88787841824E+00 -0.36436478806E+02  0.13944296505E+03  0.12509002116E+03 0.  0.
          5    1    3    3  502    0  0.29501380161E+02  0.33887458326E+02  0.35172103614E+02  0.57212241136E+02  0.41800000000E+01 0.  1.
         -5    1    3    3    0  502  0.20181834234E+02 -0.34775336745E+02 -0.71608582421E+02  0.82230723912E+02  0.41800000000E+01 0.  1.
        -11    1    1    2    0    0 -0.18344647571E+02  0.36137136116E+02  0.46470233082E+01  0.40792321910E+02  0.00000000000E+00 0.  1.
         11    1    1    2    0    0 -0.31338566825E+02 -0.35249257698E+02 -0.62994112633E+02  0.78694816635E+02  0.00000000000E+00 0. -1.
</event>
<event>
 7    1  0.2601031E-009  0.6505687E+02  0.7561462E-02  0.1377758E+00
         -2   -1    0    0    0  501 -0.00000000000E+00  0.00000000000E+00  0.43403026528E+02  0.43403026528E+02  0.00000000000E+00 0.  1.
          2   -1    0    0  501    0  0.00000000000E+00 -0.00000000000E+00 -0.28301291151E+03  0.28301291151E+03  0.00000000000E+00 0. -1.
         25    2    1    2    0    0  0.64581364654E+01 -0.16289144433E+02 -0.11167685136E+03  0.16860089389E+03  0.12508996178E+03 0.  0.
          5    1    3    3  502    0 -0.15292794063E+02 -0.10420434444E+02  0.24231324255E+02  0.30774737682E+02  0.41800000000E+01 0.  1.
         -5    1    3    3    0  502  0.21750930528E+02 -0.58687099889E+01 -0.13590817561E+03  0.13782615621E+03  0.41800000000E+01 0.  1.
        -11    1    1    2    0    0  0.32471445489E+02 -0.17316856287E+02 -0.31139312011E+02  0.48207105662E+02  0.00000000000E+00 0.  1.
         11    1    1    2    0    0 -0.38929581955E+02  0.33606000721E+02 -0.96793721610E+02  0.10960793848E+03  0.00000000000E+00 0. -1.
</event>
<event>
 7    1  0.2601031E-009  0.9313502E+02  0.7561462E-02  0.1295433E+00
          3   -1    0    0  501    0  0.00000000000E+00  0.00000000000E+00  0.20436926863E+03  0.20436926863E+03  0.00000000000E+00 0. -1.
         -3   -1    0    0    0  501 -0.00000000000E+00 -0.00000000000E+00 -0.96843734099E+02  0.96843734099E+02  0.00000000000E+00 0.  1.
         25    2    1    2    0    0 -0.79049165387E+02  0.36327942998E+02  0.33111391415E+02  0.15592768570E+03  0.12509432016E+03 0.  0.
          5    1    3    3  502    0 -0.45518460914E+02 -0.47344043341E+01  0.75186035065E+02  0.88117859354E+02  0.41800000000E+01 0.  1.
         -5    1    3    3    0  502 -0.33530704474E+02  0.41062347332E+02 -0.42074643649E+02  0.67809826346E+02  0.41800000000E+01 0.  1.
        -11    1    1    2    0    0  0.24160447339E+02 -0.13638457962E+02 -0.19679167708E+02  0.34014767277E+02  0.00000000000E+00 0.  1.
         11    1    1    2    0    0  0.54888718048E+02 -0.22689485036E+02  0.94093310825E+02  0.11127054975E+03  0.00000000000E+00 0. -1.
</event>
<event>
 7    1  0.3177905E-009  0.8001312E+02  0.7561462E-02  0.1329014E+00
          1   -1    0    0  501    0  0.00000000000E+00  0.00000000000E+00  0.69171820086E+02  0.69171820086E+02  0.00000000000E+00 0. -1.
         -1   -1    0    0    0  501 -0.00000000000E+00 -0.00000000000E+00 -0.23613253749E+03  0.23613253749E+03  0.00000000000E+00 0.  1.
         25    2    1    2    0    0  0.39525121384E+02  0.51319401624E+02 -0.71497514275E+02  0.15797334570E+03  0.12509103565E+03 0.  0.
          5    1    3    3  502    0  0.36203730626E+02  0.21178069273E+02 -0.10466831127E+03  0.11283682251E+03  0.41800000000E+01 0. -1.
         -5    1    3    3    0  502  0.33213907576E+01  0.30141332351E+02  0.33170796997E+02  0.45136523192E+02  0.41800000000E+01 0. -1.
        -11    1    1    2    0    0 -0.42640502473E+02 -0.74517195220E+01 -0.93817417065E+02  0.10332206115E+03  0.00000000000E+00 0.  1.
         11    1    1    2    0    0  0.31153810889E+01 -0.43867682102E+02 -0.16457860633E+01  0.44008950727E+02  0.00000000000E+00 0. -1.
</event>
<event>
 7    1  0.2601031E-009  0.9417435E+02  0.7561462E-02  0.1293047E+00
          1   -1    0    0  501    0  0.00000000000E+00  0.00000000000E+00  0.47075584540E+03  0.47075584540E+03  0.00000000000E+00 0. -1.
         -1   -1    0    0    0  501 -0.00000000000E+00 -0.00000000000E+00 -0.48931345067E+02  0.48931345067E+02  0.00000000000E+00 0.  1.
         25    2    1    2    0    0 -0.93624113308E+01 -0.71412469642E+02  0.36283488374E+03  0.39049495275E+03  0.12509899959E+03 0.  0.
          5    1    3    3  502    0 -0.28468182964E+02 -0.77322169008E+02  0.11346099400E+03  0.14028551180E+03  0.41800000000E+01 0.  1.
         -5    1    3    3    0  502  0.19105771633E+02  0.59096993665E+01  0.24937388974E+03  0.25020944095E+03  0.41800000000E+01 0.  1.
        -11    1    1    2    0    0  0.27865897546E+02  0.48816386463E+02 -0.73691743028E+01  0.56690850790E+02  0.00000000000E+00 0.  1.
         11    1    1    2    0    0 -0.18503486216E+02  0.22596083178E+02  0.66358790902E+02  0.72501386932E+02  0.00000000000E+00 0. -1.
</event>
<event>
 7    1  0.2601031E-009  0.1458357E+03  0.7561462E-02  0.1205685E+00
          1   -1    0    0  501    0  0.00000000000E+00  0.00000000000E+00  0.34367180193E+03  0.34367180193E+03  0.00000000000E+00 0. -1.
         -1   -1    0    0    0  501 -0.00000000000E+00 -0.00000000000E+00 -0.72540479821E+02  0.72540479821E+02  0.00000000000E+00 0.  1.
         25    2    1    2    0    0  0.89397344390E+02  0.70469468381E+02  0.14049633321E+03  0.21986981051E+03  0.12508270372E+03 0.  0.
          5    1    3    3  502    0  0.90557708585E+01 -0.29352706274E+02  0.62597197257E+02  0.69853202188E+02  0.41800000000E+01 0.  1.
         -5    1    3    3    0  502  0.80341573532E+02  0.99822174655E+02  0.77899135951E+02  0.15001660832E+03  0.41800000000E+01 0.  1.
        -11    1    1    2    0    0 -0.90940117165E+02 -0.35755853238E+02  0.12862946698E+03  0.16153676277E+03  0.00000000000E+00 0. -1.
         11    1    1    2    0    0  0.15427727750E+01 -0.34713615144E+02  0.20055219237E+01  0.34805708474E+02  0.00000000000E+00 0.  1.
</event>
<event>
 7    1  0.2800954E-009  0.1884909E+03  0.7561462E-02  0.1159830E+00
          1   -1    0    0  501    0  0.00000000000E+00  0.00000000000E+00  0.18181650675E+03  0.18181650675E+03  0.00000000000E+00 0. -1.
         -1   -1    0    0    0  501 -0.00000000000E+00 -0.00000000000E+00 -0.23040265320E+03  0.23040265320E+03  0.00000000000E+00 0.  1.
         25    2    1    2    0    0 -0.15314506023E+03 -0.52521659467E+02 -0.87704901301E+02  0.22260697247E+03  0.12509908189E+03 0.  0.
          5    1    3    3  502    0 -0.16271984306E+03 -0.14937494576E+02 -0.82975916136E+02  0.18331216852E+03  0.41800000000E+01 0.  1.
         -5    1    3    3    0  502  0.95747828212E+01 -0.37584164891E+02 -0.47289851653E+01  0.39294803948E+02  0.41800000000E+01 0.  1.
        -11    1    1    2    0    0  0.34719064425E+02  0.43626415303E+02  0.43583598571E+02  0.70768690896E+02  0.00000000000E+00 0. -1.
         11    1    1    2    0    0  0.11842599581E+03  0.88952441634E+01 -0.44648437105E+01  0.11884349659E+03  0.00000000000E+00 0.  1.
</event>
<event>
 7    1  0.2601031E-009  0.1145788E+03  0.7561462E-02  0.1252318E+00
         -2   -1    0    0    0  501 -0.00000000000E+00  0.00000000000E+00  0.14911350650E+02  0.14911350650E+02  0.00000000000E+00 0.  1.
          2   -1    0    0  501    0  0.00000000000E+00 -0.00000000000E+00 -0.90603917410E+03  0.90603917410E+03  0.00000000000E+00 0. -1.
         25    2    1    2    0    0 -0.38010754097E+02 -0.35413885058E+01 -0.44249974131E+03  0.46142376020E+03  0.12509399090E+03 0.  0.
          5    1    3    3  502    0 -0.75751690168E+02 -0.32564246044E+02 -0.26172427684E+03  0.27443727548E+03  0.41800000000E+01 0. -1.
         -5    1    3    3    0  502  0.37740936072E+02  0.29022857538E+02 -0.18077546447E+03  0.18698648472E+03  0.41800000000E+01 0. -1.
        -11    1    1    2    0    0 -0.52963137414E+01 -0.38253541020E+02 -0.14978259717E+03  0.15468099675E+03  0.00000000000E+00 0.  1.
         11    1    1    2    0    0  0.43307067838E+02  0.41794929526E+02 -0.29884548497E+03  0.30484576780E+03  0.00000000000E+00 0. -1.
</event>
<event>
 7    1  0.2601031E-009  0.3041891E+03  0.7561462E-02  0.1083165E+00
          1   -1    0    0  501    0  0.00000000000E+00  0.00000000000E+00  0.76191159199E+03  0.76191159199E+03  0.00000000000E+00 0. -1.
         -1   -1    0    0    0  501 -0.00000000000E+00 -0.00000000000E+00 -0.13210190742E+03  0.13210190742E+03  0.00000000000E+00 0.  1.
         25    2    1    2    0    0 -0.16161706941E+03 -0.24211493471E+03  0.41013623558E+03  0.51826498177E+03  0.12508853204E+03 0.  0.
          5    1    3    3  502    0 -0.14672594345E+03 -0.24805109650E+03  0.41063170463E+03  0.50169085920E+03  0.41800000000E+01 0.  1.
         -5    1    3    3    0  502 -0.14891125961E+02  0.59361617896E+01 -0.49546904824E+00  0.16574122564E+02  0.41800000000E+01 0.  1.
        -11    1    1    2    0    0  0.11752894084E+02  0.87398834977E+02  0.48675198159E+02  0.10072716511E+03  0.00000000000E+00 0. -1.
         11    1    1    2    0    0  0.14986417533E+03  0.15471609974E+03  0.17099825083E+03  0.27502135254E+03  0.00000000000E+00 0.  1.
</event>
<event>
 7    1  0.2601031E-009  0.1281697E+03  0.7561462E-02  0.1230197E+00
          1   -1    0    0  501    0  0.00000000000E+00  0.00000000000E+00  0.70234557873E+03  0.70234557873E+03  0.00000000000E+00 0. -1.
         -1   -1    0    0    0  501 -0.00000000000E+00 -0.00000000000E+00 -0.44488478262E+02  0.44488478262E+02  0.00000000000E+00 0.  1.
         25    2    1    2    0    0 -0.27972193492E+02 -0.87439587009E+02  0.57112964683E+03  0.59183148402E+03  0.12508919619E+03 0.  0.
          5    1    3    3  502    0  0.36704949690E+01 -0.11369660414E+03  0.41876919967E+03  0.43396486646E+03  0.41800000000E+01 0. -1.
         -5    1    3    3    0  502 -0.31642688461E+02  0.26257017131E+02  0.15236044716E+03  0.15786661756E+03  0.41800000000E+01 0. -1.
        -11    1    1    2    0    0  0.23064898297E+02  0.12804703347E+02 -0.13744479650E+02  0.29746607909E+02  0.00000000000E+00 0.  1.
         11    1    1    2    0    0  0.49072951956E+01  0.74634883662E+02  0.10047193329E+03  0.12525596506E+03  0.00000000000E+00 0. -1.
</event>
<event>
 7    1  0.2601031E-009  0.1232172E+03  0.7561462E-02  0.1237882E+00
         -2   -1    0    0    0  501 -0.00000000000E+00  0.00000000000E+00  0.17132571367E+02  0.17132571367E+02  0.00000000000E+00 0.  1.
          2   -1    0    0  501    0  0.00000000000E+00 -0.00000000000E+00 -0.10763293967E+04  0.10763293967E+04  0.00000000000E+00 0. -1.
         25    2    1    2    0    0  0.51723719500E+02 -0.62093059637E+02 -0.57799612051E+03  0.59687340748E+03  0.12508979981E+03 0.  0.
          5    1    3    3  502    0  0.41833730623E+02  0.20457258378E+02 -0.86032132628E+02  0.97916090009E+02  0.41800000000E+01 0. -1.
         -5    1    3    3    0  502  0.98899888770E+01 -0.82550318015E+02 -0.49196398788E+03  0.49895731747E+03  0.41800000000E+01 0. -1.
        -11    1    1    2    0    0 -0.72705699861E+02  0.61843663253E+02 -0.44132247396E+03  0.45152661438E+03  0.00000000000E+00 0. -1.
         11    1    1    2    0    0  0.20981980361E+02  0.24939638363E+00 -0.39878230834E+02  0.45061946172E+02  0.00000000000E+00 0.  1.
</event>
<event>
 7    1  0.2601031E-009  0.1651003E+03  0.7561462E-02  0.1183056E+00
         -2   -1    0    0    0  501 -0.00000000000E+00  0.00000000000E+00  0.60010120490E+02  0.60010120490E+02  0.00000000000E+00 0.  1.
          2   -1    0    0  501    0  0.00000000000E+00 -0.00000000000E+00 -0.59468293337E+03  0.59468293337E+03  0.00000000000E+00 0. -1.
         25    2    1    2    0    0  0.13017020892E+03  0.30027698619E+01 -0.42581843392E+03  0.46251502879E+03  0.12508202615E+03 0.  0.
          5    1    3    3  502    0  0.14394212525E+03  0.31286490174E+02 -0.32566413173E+03  0.35745318433E+03  0.41800000000E+01 0.  1.
         -5    1    3    3    0  502 -0.13771916326E+02 -0.28283720312E+02 -0.10015430219E+03  0.10506184446E+03  0.41800000000E+01 0.  1.
        -11    1    1    2    0    0 -0.13590039366E+03  0.10629825656E+02 -0.75815034850E+02  0.15598022215E+03  0.00000000000E+00 0.  1.
         11    1    1    2    0    0  0.57301847436E+01 -0.13632595518E+02 -0.33039344110E+02  0.36197802930E+02  0.00000000000E+00 0. -1.
</event>
<event>
 7    1  0.2688129E-009  0.6582545E+02  0.7561462E-02  0.1374893E+00
          1   -1    0    0  501    0  0.00000000000E+00  0.00000000000E+00  0.40072878566E+03  0.40072878566E+03  0.00000000000E+00 0. -1.
         -1   -1    0    0    0  501 -0.00000000000E+00 -0.00000000000E+00 -0.40573114918E+02  0.40573114918E+02  0.00000000000E+00 0.  1.
         25    2    1    2    0    0  0.31982995260E+02 -0.54809617582E+02  0.16234020773E+03  0.21455234076E+03  0.12510538643E+03 0.  0.
          5    1    3    3  502    0  0.23404457998E+02 -0.28417292531E+02 -0.11239638043E+02  0.38718381066E+02  0.41800000000E+01 0.  1.
         -5    1    3    3    0  502  0.85785372616E+01 -0.26392325051E+02  0.17357984578E+03  0.17583395970E+03  0.41800000000E+01 0.  1.
        -11    1    1    2    0    0 -0.51878357735E+01  0.28551542959E+02  0.39490327442E+01  0.29286500388E+02  0.00000000000E+00 0.  1.
         11    1    1    2    0    0 -0.26795159486E+02  0.26258074623E+02  0.19386643026E+03  0.19746305942E+03  0.00000000000E+00 0. -1.
</event>
<event>
 7    1  0.2601031E-009  0.5492259E+02  0.7561462E-02  0.1420465E+00
          2   -1    0    0  501    0  0.00000000000E+00  0.00000000000E+00  0.18121394324E+03  0.18121394324E+03  0.00000000000E+00 0. -1.
         -2   -1    0    0    0  501 -0.00000000000E+00 -0.00000000000E+00 -0.64407835587E+02  0.64407835587E+02  0.00000000000E+00 0.  1.
         25    2    1    2    0    0  0.15743227809E+02  0.21355793510E+02  0.71680996369E+02  0.14659179339E+03  0.12508824689E+03 0.  0.
          5    1    3    3  502    0  0.24205468338E+02  0.25460394850E+02  0.10548295706E+03  0.11125764258E+03  0.41800000000E+01 0. -1.
         -5    1    3    3    0  502 -0.84622405284E+01 -0.41046013403E+01 -0.33801960686E+02  0.35334150805E+02  0.41800000000E+01 0. -1.
        -11    1    1    2    0    0  0.20461679561E+02  0.27985216622E+01  0.51084509038E+02  0.55101171654E+02  0.00000000000E+00 0. -1.
         11    1    1    2    0    0 -0.36204907370E+02 -0.24154315172E+02 -0.59593977555E+01  0.43928813786E+02  0.00000000000E+00 0.  1.
</event>
<event>
 7    1  0.2601031E-009  0.8689538E+02  0.7561462E-02  0.1310549E+00
         -1   -1    0    0    0  501 -0.00000000000E+00  0.00000000000E+00  0.17374845336E+02  0.17374845336E+02  0.00000000000E+00 0.  1.
          1   -1    0    0  501    0  0.00000000000E+00 -0.00000000000E+00 -0.69423768438E+03  0.69423768438E+03  0.00000000000E+00 0. -1.
         25    2    1    2    0    0 -0.23192300632E+02  0.16494948588E+02 -0.43155784085E+03  0.45022163506E+03  0.12508950609E+03 0.  0.
          5    1    3    3  502    0 -0.56510861685E+02  0.30630485418E+02 -0.11698958985E+03  0.13355051725E+03  0.41800000000E+01 0. -1.
         -5    1    3    3    0  502  0.33318561053E+02 -0.14135536831E+02 -0.31456825101E+03  0.31667111781E+03  0.41800000000E+01 0. -1.
        -11    1    1    2    0    0  0.85579443097E+00 -0.40294434390E+02 -0.20779852689E+03  0.21167097488E+03  0.00000000000E+00 0. -1.
         11    1    1    2    0    0  0.22336506201E+02  0.23799485802E+02 -0.37506471297E+02  0.49719919779E+02  0.00000000000E+00 0.  1.
</event>
<event>
 7    1  0.2601031E-009  0.8989562E+02  0.7561462E-02  0.1303105E+00
          2   -1    0    0  501    0  0.00000000000E+00  0.00000000000E+00  0.33371094949E+03  0.33371094949E+03  0.00000000000E+00 0.  1.
         -2   -1    0    0    0  501 -0.00000000000E+00 -0.00000000000E+00 -0.54565313817E+02  0.54565313817E+02  0.00000000000E+00 0. -1.
         25    2    1    2    0    0  0.48854246812E+02  0.62493879593E+02  0.16342576314E+03  0.22056529539E+03  0.12509535184E+03 0.  0.
          5    1    3    3  502    0  0.46212531781E+02  0.60876434741E+02  0.18403022134E+03  0.19931415697E+03  0.41800000000E+01 0. -1.
         -5    1    3    3    0  502  0.26417150306E+01  0.16174448523E+01 -0.20604458205E+02  0.21251138418E+02  0.41800000000E+01 0. -1.
        -11    1    1    2    0    0 -0.42585607726E+01  0.11158246697E+02 -0.98336544818E+01  0.15470700362E+02  0.00000000000E+00 0. -1.
         11    1    1    2    0    0 -0.44595686039E+02 -0.73652126290E+02  0.12555352702E+03  0.15224026756E+03  0.00000000000E+00 0.  1.
</event>
<event>
 7    1  0.2601031E-009  0.1008897E+03  0.7561462E-02  0.1278436E+00
         -1   -1    0    0    0  501 -0.00000000000E+00  0.00000000000E+00  0.35463275976E+02  0.35463275976E+02  0.00000000000E+00 0.  1.
          1   -1    0    0  501    0  0.00000000000E+00 -0.00000000000E+00 -0.46389175475E+03  0.46389175475E+03  0.00000000000E+00 0. -1.
         25    2    1    2    0    0 -0.45987967129E+02  0.36298311714E+02 -0.28403606608E+03  0.31584693237E+03  0.12510130815E+03 0.  0.
          5    1    3    3  502    0 -0.85109932037E+02  0.61577082305E+01 -0.14571058205E+03  0.16891022474E+03  0.41800000000E+01 0. -1.
         -5    1    3    3    0  502  0.39121964909E+02  0.30140603484E+02 -0.13832548403E+03  0.14693670763E+03  0.41800000000E+01 0. -1.
        -11    1    1    2    0    0  0.34218081538E+02 -0.41606868125E+02 -0.15668107418E+03  0.16568333527E+03  0.00000000000E+00 0. -1.
         11    1    1    2    0    0  0.11769885591E+02  0.53085564111E+01  0.12288661484E+02  0.17824763085E+02  0.00000000000E+00 0.  1.
</event>
<event>
 7    1  0.2601031E-009  0.1011916E+03  0.7561462E-02  0.1277810E+00
          1   -1    0    0  501    0  0.00000000000E+00  0.00000000000E+00  0.47972853518E+03  0.47972853518E+03  0.00000000000E+00 0. -1.
         -1   -1    0    0    0  501 -0.00000000000E+00 -0.00000000000E+00 -0.50422255339E+02  0.50422255339E+02  0.00000000000E+00 0.  1.
         25    2    1    2    0    0  0.31356802796E+02 -0.23214607845E+02  0.53693021023E+02  0.14161186116E+03  0.12509521021E+03 0.  0.
          5    1    3    3  502    0  0.64417976448E+02  0.11693535888E+02  0.64668440692E+02  0.92118912786E+02  0.41800000000E+01 0.  1.
         -5    1    3    3    0  502 -0.33061173652E+02 -0.34908143733E+02 -0.10975419669E+02  0.49492948377E+02  0.41800000000E+01 0.  1.
        -11    1    1    2    0    0 -0.17330267032E+02 -0.29366467265E+02  0.67146389239E+02  0.75308466608E+02  0.00000000000E+00 0.  1.
         11    1    1    2    0    0 -0.14026535764E+02  0.52581075110E+02  0.30846686958E+03  0.31323046275E+03  0.00000000000E+00 0. -1.
</event>
<event>
 7    1  0.2601031E-009  0.3309654E+03  0.7561462E-02  0.1070710E+00
         -1   -1    0    0    0  501 -0.00000000000E+00  0.00000000000E+00  0.10085120689E+03  0.10085120689E+03  0.00000000000E+00 0.  1.
          1   -1    0    0  501    0  0.00000000000E+00 -0.00000000000E+00 -0.11572011925E+04  0.11572011925E+04  0.00000000000E+00 0. -1.
         25    2    1    2    0    0 -0.27710086899E+03 -0.15159659897E+03 -0.40606872136E+03  0.52943910173E+03  0.12509010977E+03 0.  0.
          5    1    3    3  502    0 -0.27197822481E+03 -0.10947170155E+03 -0.37799442899E+03  0.47838631770E+03  0.41800000000E+01 0. -1.
         -5    1    3    3    0  502 -0.51226441778E+01 -0.42124897416E+02 -0.28074292369E+02  0.51052784035E+02  0.41800000000E+01 0. -1.
        -11    1    1    2    0    0  0.13079604549E+03  0.11756508545E+03 -0.39568802890E+03  0.43301059000E+03  0.00000000000E+00 0.  1.
         11    1    1    2    0    0  0.14630482350E+03  0.34031513515E+02 -0.25459323540E+03  0.29560270771E+03  0.00000000000E+00 0. -1.
</event>
<event>
 7    1  0.2601031E-009  0.9847609E+02  0.7561462E-02  0.1283534E+00
          1   -1    0    0  501    0  0.00000000000E+00  0.00000000000E+00  0.12947469423E+03  0.12947469423E+03  0.00000000000E+00 0. -1.
         -1   -1    0    0    0  501 -0.00000000000E+00 -0.00000000000E+00 -0.93866909065E+02  0.93866909065E+02  0.00000000000E+00 0.  1.
         25    2    1    2    0    0 -0.48647222229E+01  0.14416857559E+02  0.12463942184E+02  0.12662612597E+03  0.12508922663E+03 0.  0.
          5    1    3    3  502    0  0.37145006816E+02  0.40505815034E+02 -0.28705650830E+02  0.62144664875E+02  0.41800000000E+01 0.  1.
         -5    1    3    3    0  502 -0.42009729038E+02 -0.26088957475E+02  0.41169593014E+02  0.64481461095E+02  0.41800000000E+01 0.  1.
        -11    1    1    2    0    0  0.19064184480E+02 -0.50206009109E+02  0.43755475732E+01  0.53881647127E+02  0.00000000000E+00 0.  1.
         11    1    1    2    0    0 -0.14199462257E+02  0.35789151551E+02  0.18768295412E+02  0.42833830202E+02  0.00000000000E+00 0. -1.
</event>
<event>
 7    1  0.2601031E-009  0.1700069E+03  0.7561462E-02  0.1177841E+00
          1   -1    0    0  501    0  0.00000000000E+00  0.00000000000E+00  0.20242139588E+03  0.20242139588E+03  0.00000000000E+00 0. -1.
         -1   -1    0    0    0  501 -0.00000000000E+00 -0.00000000000E+00 -0.16974036513E+03  0.16974036513E+03  0.00000000000E+00 0.  1.
         25    2    1    2    0    0  0.12605944390E+03  0.79379607637E+02  0.31004923344E+02  0.19697727138E+03  0.12508650872E+03 0.  0.
          5    1    3    3  502    0  0.99879725010E+02 -0.89742115827E-01 -0.15497448958E+02  0.10116131101E+03  0.41800000000E+01 0.  1.
         -5    1    3    3    0  502  0.26179718890E+02  0.79469349753E+02  0.46502372303E+02  0.95815960367E+02  0.41800000000E+01 0.  1.
        -11    1    1    2    0    0 -0.74515770661E+02 -0.73034446274E+02  0.38829624229E+02  0.11133000556E+03  0.00000000000E+00 0. -1.
         11    1    1    2    0    0 -0.51543673239E+02 -0.63451613632E+01 -0.37153516820E+02  0.63854484070E+02  0.00000000000E+00 0.  1.
</event>
<event>
 7    1  0.2601031E-009  0.8930836E+02  0.7561462E-02  0.1304535E+00
         -1   -1    0    0    0  501 -0.00000000000E+00  0.00000000000E+00  0.16006198363E+02  0.16006198363E+02  0.00000000000E+00 0.  1.
          1   -1    0    0  501    0  0.00000000000E+00 -0.00000000000E+00 -0.89092239736E+03  0.89092239736E+03  0.00000000000E+00 0. -1.
         25    2    1    2    0    0 -0.46738904038E+02  0.16227621183E+02 -0.59022536618E+03  0.60536149761E+03  0.12509476033E+03 0.  0.
          5    1    3    3  502    0 -0.57335386319E+02 -0.12716415422E+02 -0.55601833074E+03  0.55912691785E+03  0.41800000000E+01 0.  1.
         -5    1    3    3    0  502  0.10596482282E+02  0.28944036604E+02 -0.34207035441E+02  0.46234579758E+02  0.41800000000E+01 0.  1.
        -11    1    1    2    0    0  0.18548507151E+02 -0.44805097215E+02 -0.84805993997E+02  0.97691353107E+02  0.00000000000E+00 0.  1.
         11    1    1    2    0    0  0.28190396887E+02  0.28577476032E+02 -0.19988483882E+03  0.20387574501E+03  0.00000000000E+00 0. -1.
</event>
<event>
 7    1  0.2601031E-009  0.2902756E+03  0.7561462E-02  0.1090205E+00
         -2   -1    0    0    0  501 -0.00000000000E+00  0.00000000000E+00  0.12482023223E+04  0.12482023223E+04  0.00000000000E+00 0.  1.
          2   -1    0    0  501    0  0.00000000000E+00 -0.00000000000E+00 -0.74534130382E+02  0.74534130382E+02  0.00000000000E+00 0. -1.
         25    2    1    2    0    0  0.28242183405E+03  0.42447899506E+02  0.52628312059E+03  0.61170671745E+03  0.12508904280E+03 0.  0.
          5    1    3    3  502    0  0.21751712229E+03  0.22028306031E+02  0.48498727408E+03  0.53200476800E+03  0.41800000000E+01 0. -1.
         -5    1    3    3    0  502  0.64904711759E+02  0.20419593475E+02  0.41295846508E+02  0.79701949443E+02  0.41800000000E+01 0. -1.
        -11    1    1    2    0    0 -0.10651162728E+03  0.17351488121E+02  0.25407600847E+03  0.27604423371E+03  0.00000000000E+00 0.  1.
         11    1    1    2    0    0 -0.17591020677E+03 -0.59799387626E+02  0.39330906286E+03  0.43498550152E+03  0.00000000000E+00 0. -1.
</event>
<event>
 7    1  0.2601031E-009  0.9689973E+02  0.7561462E-02  0.1286954E+00
         -1   -1    0    0    0  501 -0.00000000000E+00  0.00000000000E+00  0.35931419892E+02  0.35931419892E+02  0.00000000000E+00 0.  1.
          1   -1    0    0  501    0  0.00000000000E+00 -0.00000000000E+00 -0.37748503366E+03  0.37748503366E+03  0.00000000000E+00 0. -1.
         25    2    1    2    0    0  0.13538145133E+02 -0.14309705869E+02 -0.10117923139E+03  0.16208425340E+03  0.12508404886E+03 0.  0.
          5    1    3    3  502    0  0.62954894704E+02 -0.35837804722E+02 -0.58098509487E+02  0.92954699822E+02  0.41800000000E+01 0.  1.
         -5    1    3    3    0  502 -0.49416749571E+02  0.21528098853E+02 -0.43080721904E+02  0.69129553579E+02  0.41800000000E+01 0.  1.
        -11    1    1    2    0    0 -0.32232874676E+02 -0.12430526222E+02 -0.17370786258E+03  0.17710984646E+03  0.00000000000E+00 0. -1.
         11    1    1    2    0    0  0.18694729543E+02  0.26740232091E+02 -0.66666519797E+02  0.74222353687E+02  0.00000000000E+00 0.  1.
</event>
<event>
 7    1  0.2601031E-009  0.8585724E+02  0.7561462E-02  0.1313206E+00
         -1   -1    0    0    0  501 -0.00000000000E+00  0.00000000000E+00  0.41696290285E+02  0.41696290285E+02  0.00000000000E+00 0.  1.
          1   -1    0    0  501    0  0.00000000000E+00 -0.00000000000E+00 -0.29800925548E+03  0.29800925548E+03  0.00000000000E+00 0. -1.
         25    2    1    2    0    0  0.99157595044E+01 -0.16767799299E+02 -0.19032769307E+03  0.22858477191E+03  0.12508751264E+03 0.  0.
          5    1    3    3  502    0  0.47512564128E+02 -0.53038789349E+02 -0.85193943187E+02  0.11111272331E+03  0.41800000000E+01 0.  1.
         -5    1    3    3    0  502 -0.37596804624E+02  0.36270990050E+02 -0.10513374988E+03  0.11747204860E+03  0.41800000000E+01 0.  1.
        -11    1    1    2    0    0 -0.26765294854E+02  0.45167624172E+01 -0.81009272567E+02  0.85435849579E+02  0.00000000000E+00 0. -1.
         11    1    1    2    0    0  0.16849535350E+02  0.12251036882E+02  0.15024000439E+02  0.25684924282E+02  0.00000000000E+00 0.  1.
</event>
<event>
 7    1  0.2601031E-009  0.1590837E+03  0.7561462E-02  0.1189735E+00
         -4   -1    0    0    0  501 -0.00000000000E+00  0.00000000000E+00  0.34870749112E+03  0.34870749112E+03  0.00000000000E+00 0.  1.
          4   -1    0    0  501    0  0.00000000000E+00 -0.00000000000E+00 -0.13584424232E+03  0.13584424232E+03  0.00000000000E+00 0. -1.
         25    2    1    2    0    0  0.10162390071E+03 -0.10020020414E+03  0.24396999723E+03  0.30908859118E+03  0.12508756751E+03 0.  0.
          5    1    3    3  502    0  0.46776880565E+02 -0.71998035971E+02  0.37896391995E+02  0.93943614287E+02  0.41800000000E+01 0.  1.
         -5    1    3    3    0  502  0.54847020144E+02 -0.28202168173E+02  0.20607360524E+03  0.21514497690E+03  0.41800000000E+01 0.  1.
        -11    1    1    2    0    0 -0.81134221275E+01  0.72376637256E+02  0.74333698638E+00  0.72833768192E+02  0.00000000000E+00 0. -1.
         11    1    1    2    0    0 -0.93510478582E+02  0.27823566887E+02 -0.31850085417E+02  0.10262937406E+03  0.00000000000E+00 0.  1.
</event>
<event>
 7    1  0.2601031E-009  0.1303874E+03  0.7561462E-02  0.1226882E+00
          2   -1    0    0  501    0  0.00000000000E+00  0.00000000000E+00  0.10145243638E+04  0.10145243638E+04  0.00000000000E+00 0. -1.
         -2   -1    0    0    0  501 -0.00000000000E+00 -0.00000000000E+00 -0.18653817450E+02  0.18653817450E+02  0.00000000000E+00 0.  1.
         25    2    1    2    0    0  0.58025319397E+02 -0.63749241635E+02  0.51792708782E+03  0.53974718276E+03  0.12509056521E+03 0.  0.
          5    1    3    3  502    0 -0.10937180969E+01 -0.86309675949E+02  0.25361128716E+03  0.26793042708E+03  0.41800000000E+01 0. -1.
         -5    1    3    3    0  502  0.59119037494E+02  0.22560434315E+02  0.26431580066E+03  0.27181675568E+03  0.41800000000E+01 0. -1.
        -11    1    1    2    0    0 -0.48789009344E+02  0.23434722035E+01  0.11101978740E+03  0.12128995214E+03  0.00000000000E+00 0.  1.
         11    1    1    2    0    0 -0.92363100527E+01  0.61405769431E+02  0.36692367116E+03  0.37214104638E+03  0.00000000000E+00 0. -1.
</event>
<event>
 7    1  0.2601031E-009  0.9054413E+02  0.7561462E-02  0.1301539E+00
          2   -1    0    0  501    0  0.00000000000E+00  0.00000000000E+00  0.35341910592E+02  0.35341910592E+02  0.00000000000E+00 0.  1.
         -2   -1    0    0    0  501 -0.00000000000E+00 -0.00000000000E+00 -0.40312490965E+03  0.40312490965E+03  0.00000000000E+00 0. -1.
         25    2    1    2    0    0 -0.74500105470E+01  0.31885051525E+02 -0.14104384666E+03  0.19133672442E+03  0.12507684144E+03 0.  0.
          5    1    3    3  502    0 -0.86225223876E+01  0.60844078633E+02 -0.17019177199E+02  0.63902070307E+02  0.41800000000E+01 0. -1.
         -5    1    3    3    0  502  0.11725118406E+01 -0.28959027108E+02 -0.12402466946E+03  0.12743465412E+03  0.41800000000E+01 0. -1.
        -11    1    1    2    0    0 -0.32229352871E+02 -0.38257661026E+02 -0.74945768435E+02  0.90106869993E+02  0.00000000000E+00 0.  1.
         11    1    1    2    0    0  0.39679363418E+02  0.63726095013E+01 -0.15179338397E+03  0.15702322583E+03  0.00000000000E+00 0. -1.
</event>
<event>
 7    1  0.2601031E-009  0.1242530E+03  0.7561462E-02  0.1236241E+00
          2   -1    0    0  501    0  0.00000000000E+00  0.00000000000E+00  0.11616686555E+03  0.11616686555E+03  0.00000000000E+00 0. -1.
         -2   -1    0    0    0  501 -0.00000000000E+00 -0.00000000000E+00 -0.21235504225E+03  0.21235504225E+03  0.00000000000E+00 0.  1.
         25    2    1    2    0    0  0.87441139868E+02  0.50111944343E+02  0.57683748920E+01  0.16074065344E+03  0.12508846315E+03 0.  0.
          5    1    3    3  502    0  0.23245032638E+02 -0.21558566843E+02  0.46284652778E+02  0.56256953609E+02  0.41800000000E+01 0.  1.
         -5    1    3    3    0  502  0.64196107230E+02  0.71670511186E+02 -0.40516277886E+02  0.10448369983E+03  0.41800000000E+01 0.  1.
        -11    1    1    2    0    0 -0.58104303175E+02 -0.65114406449E+02 -0.10276530457E+03  0.13482100652E+03  0.00000000000E+00 0.  1.
         11    1    1    2    0    0 -0.29336836693E+02  0.15002462106E+02  0.80875298546E+00  0.32960247842E+02  0.00000000000E+00 0. -1.
</event>
<event>
 7    1  0.2601031E-009  0.8669783E+02  0.7561462E-02  0.1311051E+00
         -1   -1    0    0    0  501 -0.00000000000E+00  0.00000000000E+00  0.28794770752E+02  0.28794770752E+02  0.00000000000E+00 0.  1.
          1   -1    0    0  501    0  0.00000000000E+00 -0.00000000000E+00 -0.50067571621E+03  0.50067571621E+03  0.00000000000E+00 0. -1.
         25    2    1    2    0    0 -0.30639211282E+02 -0.81111866367E+01 -0.17494422067E+03  0.21739131797E+03  0.12509577197E+03 0.  0.
          5    1    3    3  502    0  0.26529737584E+02  0.21915032542E+02 -0.43486634772E+01  0.34935353178E+02  0.41800000000E+01 0.  1.
         -5    1    3    3    0  502 -0.57168948867E+02 -0.30026219179E+02 -0.17059555720E+03  0.18245596479E+03  0.41800000000E+01 0.  1.
        -11    1    1    2    0    0  0.50975744689E+02  0.13976293668E+02 -0.28007280281E+03  0.28501690863E+03  0.00000000000E+00 0. -1.
         11    1    1    2    0    0 -0.20336533406E+02 -0.58651070311E+01 -0.16863921970E+02  0.27062260358E+02  0.00000000000E+00 0.  1.
</event>
<event>
 7    1  0.2601031E-009  0.1207570E+03  0.7561462E-02  0.1241854E+00
         -2   -1    0    0    0  501 -0.00000000000E+00  0.00000000000E+00  0.61535255604E+02  0.61535255604E+02  0.00000000000E+00 0.  1.
          2   -1    0    0  501    0  0.00000000000E+00 -0.00000000000E+00 -0.25191862028E+03  0.25191862028E+03  0.00000000000E+00 0. -1.
         25    2    1    2    0    0 -0.10943609972E+02  0.56465884722E+02 -0.72139457328E+02  0.15543507360E+03  0.12509117501E+03 0.  0.
          5    1    3    3  502    0  0.33127531916E+02  0.79906620960E+02 -0.36612899306E+02  0.94023817407E+02  0.41800000000E+01 0.  1.
         -5    1    3    3    0  502 -0.44071141888E+02 -0.23440736238E+02 -0.35526558022E+02  0.61411256196E+02  0.41800000000E+01 0.  1.
        -11    1    1    2    0    0 -0.34376057398E+02 -0.26716600829E+01 -0.39668229607E+02  0.52558724585E+02  0.00000000000E+00 0. -1.
         11    1    1    2    0    0  0.45319667370E+02 -0.53794224639E+02 -0.78575677737E+02  0.10546007769E+03  0.00000000000E+00 0.  1.
</event>
<event>
 7    1  0.2601031E-009  0.1094838E+03  0.7561462E-02  0.1261529E+00
          3   -1    0    0  501    0  0.00000000000E+00  0.00000000000E+00  0.35270807560E+02  0.35270807560E+02  0.00000000000E+00 0. -1.
         -3   -1    0    0    0  501 -0.00000000000E+00 -0.00000000000E+00 -0.52484005102E+03  0.52484005102E+03  0.00000000000E+00 0.  1.
         25    2    1    2    0    0 -0.53688820796E+02 -0.46558811975E+02 -0.18243044545E+03  0.23233378037E+03  0.12509158895E+03 0.  0.
          5    1    3    3  502    0  0.20745508174E+02 -0.63728942077E+02 -0.91619578830E+02  0.11359301824E+03  0.41800000000E+01 0. -1.
         -5    1    3    3    0  502 -0.74434328970E+02  0.17170130102E+02 -0.90810866616E+02  0.11874076214E+03  0.41800000000E+01 0. -1.
        -11    1    1    2    0    0  0.40190344155E+02  0.46958511308E+02 -0.30809980678E+03  0.31423853438E+03  0.00000000000E+00 0.  1.
         11    1    1    2    0    0  0.13498476641E+02 -0.39969933323E+00  0.96100876757E+00  0.13538543830E+02  0.00000000000E+00 0. -1.
</event>
<event>
 7    1  0.2601031E-009  0.1891952E+03  0.7561462E-02  0.1159189E+00
          2   -1    0    0  501    0  0.00000000000E+00  0.00000000000E+00  0.77345756585E+03  0.77345756585E+03  0.00000000000E+00 0. -1.
         -2   -1    0    0    0  501 -0.00000000000E+00 -0.00000000000E+00 -0.57277242455E+02  0.57277242455E+02  0.00000000000E+00 0.  1.
         25    2    1    2    0    0  0.10419506063E+03 -0.12184904867E+03  0.53756236374E+03  0.57473867946E+03  0.12508978153E+03 0.  0.
          5    1    3    3  502    0 -0.23447536384E+02 -0.78898866644E+01  0.30088870061E+02  0.39177158851E+02  0.41800000000E+01 0. -1.
         -5    1    3    3    0  502  0.12764259702E+03 -0.11395916200E+03  0.50747349367E+03  0.53556152061E+03  0.41800000000E+01 0. -1.
        -11    1    1    2    0    0 -0.11814917453E+03  0.93974503114E+02  0.13597103482E+03  0.20317125040E+03  0.00000000000E+00 0. -1.
         11    1    1    2    0    0  0.13954113896E+02  0.27874545555E+02  0.42646924834E+02  0.52824878441E+02  0.00000000000E+00 0.  1.
</event>
<event>
 7    1  0.2601031E-009  0.1262301E+03  0.7561462E-02  0.1233159E+00
         -2   -1    0    0    0  501 -0.00000000000E+00  0.00000000000E+00  0.10769543363E+03  0.10769543363E+03  0.00000000000E+00 0.  1.
          2   -1    0    0  501    0  0.00000000000E+00 -0.00000000000E+00 -0.25000364386E+03  0.25000364386E+03  0.00000000000E+00 0. -1.
         25    2    1    2    0    0  0.10363827388E+03  0.41444924461E+02 -0.25610367507E+02  0.16959442602E+03  0.12509118609E+03 0.  0.
          5    1    3    3  502    0  0.98967807540E+02  0.50436712189E+02 -0.64959911146E+02  0.12874684975E+03  0.41800000000E+01 0.  1.
         -5    1    3    3    0  502  0.46704663389E+01 -0.89917877279E+01  0.39349543639E+02  0.40847576268E+02  0.41800000000E+01 0.  1.
        -11    1    1    2    0    0 -0.83116912662E+02  0.10806805561E+01 -0.28162834781E+02  0.87765222633E+02  0.00000000000E+00 0.  1.
         11    1    1    2    0    0 -0.20521361216E+02 -0.42525605017E+02 -0.88535007945E+02  0.10033942884E+03  0.00000000000E+00 0. -1.
</event>
<event>
 7    1  0.2601031E-009  0.1057502E+03  0.7561462E-02  0.1268649E+00
         -3   -1    0    0    0  501 -0.00000000000E+00  0.00000000000E+00  0.69955594783E+03  0.69955594783E+03  0.00000000000E+00 0.  1.
          3   -1    0    0  501    0  0.00000000000E+00 -0.00000000000E+00 -0.22074771408E+02  0.22074771408E+02  0.00000000000E+00 0. -1.
         25    2    1    2    0    0 -0.30509035142E+02 -0.22013980372E+02  0.24050568599E+03  0.27368939275E+03  0.12508989630E+03 0.  0.
          5    1    3    3  502    0 -0.15662351726E+02 -0.65341293610E+02  0.20445338475E+03  0.21525206817E+03  0.41800000000E+01 0. -1.
         -5    1    3    3    0  502 -0.14846683416E+02  0.43327313238E+02  0.36052301231E+02  0.58437324587E+02  0.41800000000E+01 0. -1.
        -11    1    1    2    0    0  0.35796577240E+02 -0.29510458040E+02  0.22457246153E+03  0.22931430953E+03  0.00000000000E+00 0.  1.
         11    1    1    2    0    0 -0.52875420973E+01  0.51524438412E+02  0.21240302891E+03  0.21862701696E+03  0.00000000000E+00 0. -1.
</event>
<event>
 7    1  0.2601031E-009  0.9830193E+02  0.7561462E-02  0.1283908E+00
          2   -1    0    0  501    0  0.00000000000E+00  0.00000000000E+00  0.54437647671E+03  0.54437647671E+03  0.00000000000E+00 0. -1.
         -2   -1    0    0    0  501 -0.00000000000E+00 -0.00000000000E+00 -0.36166918353E+02  0.36166918353E+02  0.00000000000E+00 0.  1.
         25    2    1    2    0    0  0.26978685535E+02  0.81204409108E+02  0.33985977080E+03  0.37212097344E+03  0.12508936620E+03 0.  0.
          5    1    3    3  502    0 -0.19763800060E+02  0.38268931241E+02  0.23129337542E+02  0.49066868112E+02  0.41800000000E+01 0.  1.
         -5    1    3    3    0  502  0.46742485595E+02  0.42935477867E+02  0.31673043325E+03  0.32305410533E+03  0.41800000000E+01 0.  1.
        -11    1    1    2    0    0 -0.11908677355E-01 -0.42785154234E+02  0.15325650947E+03  0.15911670956E+03  0.00000000000E+00 0. -1.
         11    1    1    2    0    0 -0.26966776858E+02 -0.38419254875E+02  0.15093278092E+02  0.49305712070E+02  0.00000000000E+00 0.  1.
</event>
<event>
 7    1  0.2601031E-009  0.1365891E+03  0.7561462E-02  0.1217994E+00
         -2   -1    0    0    0  501 -0.00000000000E+00  0.00000000000E+00  0.61832118768E+02  0.61832118768E+02  0.00000000000E+00 0.  1.
          2   -1    0    0  501    0  0.00000000000E+00 -0.00000000000E+00 -0.35889337571E+03  0.35889337571E+03  0.00000000000E+00 0. -1.
         25    2    1    2    0    0 -0.24957455864E+02 -0.79834590802E+02 -0.24108311928E+03  0.28419230797E+03  0.12509101094E+03 0.  0.
          5    1    3    3  502    0 -0.29112258101E+02  0.29088672087E+02 -0.68896174388E+02  0.80360622577E+02  0.41800000000E+01 0.  1.
         -5    1    3    3    0  502  0.41548022376E+01 -0.10892326289E+03 -0.17218694489E+03  0.20383168540E+03  0.41800000000E+01 0.  1.
        -11    1    1    2    0    0  0.59023848404E+02  0.53646540872E+02 -0.25088427789E+02  0.83613367573E+02  0.00000000000E+00 0.  1.
         11    1    1    2    0    0 -0.34066392540E+02  0.26188049930E+02 -0.30889709874E+02  0.52919818934E+02  0.00000000000E+00 0. -1.
</event>
<event>
 7    1  0.2601031E-009  0.7920476E+02  0.7561462E-02  0.1331323E+00
         -1   -1    0    0    0  501 -0.00000000000E+00  0.00000000000E+00  0.60263130985E+02  0.60263130985E+02  0.00000000000E+00 0.  1.
          1   -1    0    0  501    0  0.00000000000E+00 -0.00000000000E+00 -0.26286809197E+03  0.26286809197E+03  0.00000000000E+00 0. -1.
         25    2    1    2    0    0  0.23829641628E+02 -0.16143687144E+02 -0.31825570828E+02  0.13224598210E+03  0.12509061663E+03 0.  0.
          5    1    3    3  502    0 -0.22660359266E+02  0.18467610774E+02 -0.60592784595E+02  0.67405507748E+02  0.41800000000E+01 0. -1.
         -5    1    3    3    0  502  0.46490000895E+02 -0.34611297918E+02  0.28767213768E+02  0.64840474356E+02  0.41800000000E+01 0. -1.
        -11    1    1    2    0    0  0.11688023239E+02  0.30345169860E+02 -0.13375079247E+03  0.13764706211E+03  0.00000000000E+00 0. -1.
         11    1    1    2    0    0 -0.35517664868E+02 -0.14201482716E+02 -0.37028597685E+02  0.53238178740E+02  0.00000000000E+00 0.  1.
</event>
<event>
 7    1  0.2601031E-009  0.1102480E+03  0.7561462E-02  0.1260111E+00
         -1   -1    0    0    0  501 -0.00000000000E+00  0.00000000000E+00  0.90515022518E+02  0.90515022518E+02  0.00000000000E+00 0.  1.
          1   -1    0    0  501    0  0.00000000000E+00 -0.00000000000E+00 -0.20424657220E+03  0.20424657220E+03  0.00000000000E+00 0. -1.
         25    2    1    2    0    0 -0.53680608100E+02  0.51334162458E+02 -0.94705582713E+02  0.17359069503E+03  0.12509107915E+03 0.  0.
          5    1    3    3  502    0  0.29584052430E+02 -0.19801751343E+02 -0.25166863631E+02  0.43796905592E+02  0.41800000000E+01 0. -1.
         -5    1    3    3    0  502 -0.83264660530E+02  0.71135913801E+02 -0.69538719082E+02  0.12979378944E+03  0.41800000000E+01 0. -1.
        -11    1    1    2    0    0  0.23137774360E+02 -0.29607252359E+02  0.37668799721E+02  0.53206056676E+02  0.00000000000E+00 0.  1.
         11    1    1    2    0    0  0.30542833740E+02 -0.21726910099E+02 -0.56694766691E+02  0.67964843010E+02  0.00000000000E+00 0. -1.
</event>
<event>
 7    1  0.2601031E-009  0.1593641E+03  0.7561462E-02  0.1189417E+00
          2   -1    0    0  501    0  0.00000000000E+00  0.00000000000E+00  0.43470525270E+03  0.43470525270E+03  0.00000000000E+00 0. -1.
         -2   -1    0    0    0  501 -0.00000000000E+00 -0.00000000000E+00 -0.12742002593E+03  0.12742002593E+03  0.00000000000E+00 0.  1.
         25    2    1    2    0    0  0.12695905188E+03  0.14693571844E+02 -0.37677553186E+02  0.18276009786E+03  0.12508858240E+03 0.  0.
          5    1    3    3  502    0  0.34895076675E+02 -0.41793768119E+02 -0.49908049377E+02  0.73977504840E+02  0.41800000000E+01 0. -1.
         -5    1    3    3    0  502  0.92063975209E+02  0.56487339963E+02  0.12230496192E+02  0.10878259302E+03  0.41800000000E+01 0. -1.
        -11    1    1    2    0    0 -0.13636620625E+03  0.25457088031E+01  0.31794173399E+03  0.34596122478E+03  0.00000000000E+00 0.  1.
         11    1    1    2    0    0  0.94071543675E+01 -0.17239280647E+02  0.27021045970E+02  0.33403955991E+02  0.00000000000E+00 0. -1.
</event>
<event>
 7    1  0.2601031E-009  0.1354842E+03  0.7561462E-02  0.1219538E+00
          1   -1    0    0  501    0  0.00000000000E+00  0.00000000000E+00  0.33333943676E+03  0.33333943676E+03  0.00000000000E+00 0. -1.
         -1   -1    0    0    0  501 -0.00000000000E+00 -0.00000000000E+00 -0.72824223286E+02  0.72824223286E+02  0.00000000000E+00 0.  1.
         25    2    1    2    0    0 -0.10562814815E+03  0.35529869131E+02  0.14751781464E+03  0.22322433047E+03  0.12509164158E+03 0.  0.
          5    1    3    3  502    0 -0.55735486469E+02  0.68127021546E+02  0.33070383805E+02  0.94121507646E+02  0.41800000000E+01 0.  1.
         -5    1    3    3    0  502 -0.49892661679E+02 -0.32597152415E+02  0.11444743084E+03  0.12910282282E+03  0.41800000000E+01 0.  1.
        -11    1    1    2    0    0  0.27599085508E+02  0.13731463133E+02  0.78651723404E+02  0.84476956592E+02  0.00000000000E+00 0. -1.
         11    1    1    2    0    0  0.78029062640E+02 -0.49261332263E+02  0.34345675423E+02  0.98462372981E+02  0.00000000000E+00 0.  1.
</event>
<event>
 7    1  0.2601031E-009  0.1457626E+03  0.7561462E-02  0.1205779E+00
          1   -1    0    0  501    0  0.00000000000E+00  0.00000000000E+00  0.87038717265E+03  0.87038717265E+03  0.00000000000E+00 0. -1.
         -1   -1    0    0    0  501 -0.00000000000E+00 -0.00000000000E+00 -0.27271026737E+02  0.27271026737E+02  0.00000000000E+00 0.  1.
         25    2    1    2    0    0 -0.12267476368E+02  0.10299379716E+03  0.56951216257E+03  0.59224068320E+03  0.12508681106E+03 0.  0.
          5    1    3    3  502    0 -0.67295480274E+02  0.72923844219E+02  0.33012908341E+03  0.34474519988E+03  0.41800000000E+01 0.  1.
         -5    1    3    3    0  502  0.55028003906E+02  0.30069952944E+02  0.23938307915E+03  0.24749548333E+03  0.41800000000E+01 0.  1.
        -11    1    1    2    0    0  0.33883487772E+02 -0.12175192337E+02  0.39824205459E+02  0.53686994631E+02  0.00000000000E+00 0.  1.
         11    1    1    2    0    0 -0.21616011403E+02 -0.90818604826E+02  0.23377977789E+03  0.25173052155E+03  0.00000000000E+00 0. -1.
</event>
<event>
 7    1  0.2601031E-009  0.1340122E+03  0.7561462E-02  0.1221621E+00
          1   -1    0    0  501    0  0.00000000000E+00  0.00000000000E+00  0.67065671584E+03  0.67065671584E+03  0.00000000000E+00 0. -1.
         -1   -1    0    0    0  501 -0.00000000000E+00 -0.00000000000E+00 -0.34773558600E+02  0.34773558600E+02  0.00000000000E+00 0.  1.
         25    2    1    2    0    0  0.15760806089E+02 -0.10463353866E+03  0.34079988315E+03  0.37813852655E+03  0.12509038527E+03 0.  0.
          5    1    3    3  502    0  0.55930995164E+02 -0.70063128839E+02  0.29372275810E+03  0.30712806656E+03  0.41800000000E+01 0.  1.
         -5    1    3    3    0  502 -0.40170189075E+02 -0.34570409817E+02  0.47077125050E+02  0.71010459992E+02  0.41800000000E+01 0.  1.
        -11    1    1    2    0    0 -0.42167958002E+02  0.62806387309E+02  0.96374627493E+02  0.12251876507E+03  0.00000000000E+00 0.  1.
         11    1    1    2    0    0  0.26407151913E+02  0.41827151347E+02  0.19870864659E+03  0.20477298282E+03  0.00000000000E+00 0. -1.
</event>
<event>
 7    1  0.2601031E-009  0.9738588E+02  0.7561462E-02  0.1285891E+00
          2   -1    0    0  501    0  0.00000000000E+00  0.00000000000E+00  0.31767147100E+03  0.31767147100E+03  0.00000000000E+00 0. -1.
         -2   -1    0    0    0  501 -0.00000000000E+00 -0.00000000000E+00 -0.53857933092E+02  0.53857933092E+02  0.00000000000E+00 0.  1.
         25    2    1    2    0    0  0.34297720208E+02  0.56626373589E+02  0.88733902355E+02  0.16704427102E+03  0.12508878149E+03 0.  0.
          5    1    3    3  502    0  0.59853485257E+02 -0.63461706332E+01  0.71129448000E+01  0.60751789791E+02  0.41800000000E+01 0.  1.
         -5    1    3    3    0  502 -0.25555765049E+02  0.62972544222E+02  0.81620957555E+02  0.10629248123E+03  0.41800000000E+01 0.  1.
        -11    1    1    2    0    0 -0.17466097824E+02 -0.33041165525E+02  0.12597382466E+02  0.39439539011E+02  0.00000000000E+00 0.  1.
         11    1    1    2    0    0 -0.16831622384E+02 -0.23585208064E+02  0.16248225308E+03  0.16504559406E+03  0.00000000000E+00 0. -1.
</event>
<event>
 7    1  0.2601031E-009  0.9284833E+02  0.7561462E-02  0.1296097E+00
         -2   -1    0    0    0  501 -0.00000000000E+00  0.00000000000E+00  0.82199459450E+03  0.82199459450E+03  0.00000000000E+00 0.  1.
          2   -1    0    0  501    0  0.00000000000E+00 -0.00000000000E+00 -0.28172805532E+02  0.28172805532E+02  0.00000000000E+00 0. -1.
         25    2    1    2    0    0  0.29427115139E+01  0.68471085855E+02  0.65436620232E+03  0.66973100731E+03  0.12509015252E+03 0.  0.
          5    1    3    3  502    0 -0.12630410740E+02  0.38783579154E+02  0.51084662374E+02  0.65504262589E+02  0.41800000000E+01 0. -1.
         -5    1    3    3    0  502  0.15573122254E+02  0.29687506701E+02  0.60328153995E+03  0.60422674472E+03  0.41800000000E+01 0. -1.
        -11    1    1    2    0    0  0.25780444924E+02  0.97657228551E+01  0.17261690636E+02  0.32526399231E+02  0.00000000000E+00 0. -1.
         11    1    1    2    0    0 -0.28723156438E+02 -0.78236808710E+02  0.12219389601E+03  0.14790999349E+03  0.00000000000E+00 0.  1.
</event>
<event>
 7    1  0.3226060E-009  0.9469863E+02  0.7561462E-02  0.1291856E+00
         -1   -1    0    0    0  501 -0.00000000000E+00  0.00000000000E+00  0.37759217301E+03  0.37759217301E+03  0.00000000000E+00 0.  1.
          1   -1    0    0  501    0  0.00000000000E+00 -0.00000000000E+00 -0.38759793606E+02  0.38759793606E+02  0.00000000000E+00 0. -1.
         25    2    1    2    0    0 -0.90285941263E+01  0.24799444038E+02  0.27231864178E+03  0.30083305214E+03  0.12508618893E+03 0.  0.
          5    1    3    3  502    0 -0.46357419098E+02  0.58608451881E+02  0.19038259118E+03  0.20456530586E+03  0.41800000000E+01 0. -1.
         -5    1    3    3    0  502  0.37328824971E+02 -0.33809007843E+02  0.81936050594E+02  0.96267746270E+02  0.41800000000E+01 0. -1.
        -11    1    1    2    0    0 -0.20788999569E+02 -0.27049578837E+02  0.76687244360E+02  0.83933281038E+02  0.00000000000E+00 0.  1.
         11    1    1    2    0    0  0.29817593695E+02  0.22501347989E+01 -0.10173506738E+02  0.31585633439E+02  0.00000000000E+00 0. -1.
</event>
<event>
 7    1  0.2601031E-009  0.1643547E+03  0.7561462E-02  0.1183866E+00
          2   -1    0    0  501    0  0.00000000000E+00  0.00000000000E+00  0.72676882984E+03  0.72676882984E+03  0.00000000000E+00 0. -1.
         -2   -1    0    0    0  501 -0.00000000000E+00 -0.00000000000E+00 -0.41184567386E+02  0.41184567386E+02  0.00000000000E+00 0.  1.
         25    2    1    2    0    0  0.76387491305E+02 -0.10139889830E+03  0.25805514032E+03  0.31361464448E+03  0.12507959219E+03 0.  0.
          5    1    3    3  502    0  0.86059407569E+02 -0.11424938092E+02  0.11235665336E+03  0.14205013480E+03  0.41800000000E+01 0.  1.
         -5    1    3    3    0  502 -0.96719162637E+01 -0.89973960212E+02  0.14569848696E+03  0.17156450968E+03  0.41800000000E+01 0.  1.
        -11    1    1    2    0    0  0.35996475559E+01  0.61886995755E+02  0.21714337141E+03  0.22581895725E+03  0.00000000000E+00 0.  1.
         11    1    1    2    0    0 -0.79987138861E+02  0.39511902548E+02  0.21038575073E+03  0.22851979550E+03  0.00000000000E+00 0. -1.
</event>
<event>
 7    1  0.2601031E-009  0.1044482E+03  0.7561462E-02  0.1271211E+00
         -1   -1    0    0    0  501 -0.00000000000E+00  0.00000000000E+00  0.81685009237E+02  0.81685009237E+02  0.00000000000E+00 0.  1.
          1   -1    0    0  501    0  0.00000000000E+00 -0.00000000000E+00 -0.16220695452E+03  0.16220695452E+03  0.00000000000E+00 0. -1.
         25    2    1    2    0    0 -0.49816076650E+01  0.41755315461E+02 -0.33083884924E+02  0.13605117906E+03  0.12508819728E+03 0.  0.
          5    1    3    3  502    0 -0.56460890836E+02  0.40172690524E+02  0.82118882886E+01  0.69904111232E+02  0.41800000000E+01 0. -1.
         -5    1    3    3    0  502  0.51479283171E+02  0.15826249365E+01 -0.41295773213E+02  0.66147067832E+02  0.41800000000E+01 0. -1.
        -11    1    1    2    0    0  0.17920532550E+02  0.18746129593E+02  0.53873224204E+01  0.26487470707E+02  0.00000000000E+00 0.  1.
         11    1    1    2    0    0 -0.12938924885E+02 -0.60501445053E+02 -0.52825382777E+02  0.81353313984E+02  0.00000000000E+00 0. -1.
</event>
<event>
 7    1  0.2601031E-009  0.1078234E+03  0.7561462E-02  0.1264654E+00
          2   -1    0    0  501    0  0.00000000000E+00  0.00000000000E+00  0.37007276062E+03  0.37007276062E+03  0.00000000000E+00 0. -1.
         -2   -1    0    0    0  501 -0.00000000000E+00 -0.00000000000E+00 -0.45329081314E+02  0.45329081314E+02  0.00000000000E+00 0.  1.
         25    2    1    2    0    0 -0.95509546573E+01  0.25754951215E+02  0.73392150493E+02  0.14760666859E+03  0.12508710010E+03 0.  0.
          5    1    3    3  502    0 -0.59786007106E+02 -0.11384221771E+02  0.55538493888E+02  0.82498265766E+02  0.41800000000E+01 0. -1.
         -5    1    3    3    0  502  0.50235052448E+02  0.37139172986E+02  0.17853656605E+02  0.65108402827E+02  0.41800000000E+01 0. -1.
        -11    1    1    2    0    0 -0.27766718070E+02 -0.42789238086E+02  0.12741099354E+03  0.13724237976E+03  0.00000000000E+00 0. -1.
         11    1    1    2    0    0  0.37317672727E+02  0.17034286870E+02  0.12394053528E+03  0.13055279358E+03  0.00000000000E+00 0.  1.
</event>
<event>
 7    1  0.2601031E-009  0.1473715E+03  0.7561462E-02  0.1203741E+00
          2   -1    0    0  501    0  0.00000000000E+00  0.00000000000E+00  0.69977597168E+03  0.69977597168E+03  0.00000000000E+00 0.  1.
         -2   -1    0    0    0  501 -0.00000000000E+00 -0.00000000000E+00 -0.36747639344E+02  0.36747639344E+02  0.00000000000E+00 0. -1.
         25    2    1    2    0    0  0.11806471980E+03  0.79776945321E+00  0.32349722692E+03  0.36638504034E+03  0.12509047713E+03 0.  0.
          5    1    3    3  502    0  0.10471677145E+03  0.52316940953E+02  0.19880361127E+03  0.23074447510E+03  0.41800000000E+01 0.  1.
         -5    1    3    3    0  502  0.13347948345E+02 -0.51519171500E+02  0.12469361564E+03  0.13564056524E+03  0.41800000000E+01 0.  1.
        -11    1    1    2    0    0 -0.73481663046E+02  0.18297602478E+02  0.29406842913E+03  0.30366197996E+03  0.00000000000E+00 0.  1.
         11    1    1    2    0    0 -0.44583056754E+02 -0.19095371931E+02  0.45462676290E+02  0.66476590723E+02  0.00000000000E+00 0. -1.
</event>
<event>
 7    1  0.3994341E-009  0.1259050E+03  0.7561462E-02  0.1233662E+00
         -1   -1    0    0    0  501 -0.00000000000E+00  0.00000000000E+00  0.29048719720E+02  0.29048719720E+02  0.00000000000E+00 0.  1.
          1   -1    0    0  501    0  0.00000000000E+00 -0.00000000000E+00 -0.64754685476E+03  0.64754685476E+03  0.00000000000E+00 0. -1.
         25    2    1    2    0    0 -0.80938406431E+02 -0.22365685360E+02 -0.33629079675E+03  0.36849527366E+03  0.12508404060E+03 0.  0.
          5    1    3    3  502    0 -0.11035164491E+03 -0.13584022021E+02 -0.20137298709E+03  0.23006643283E+03  0.41800000000E+01 0.  1.
         -5    1    3    3    0  502  0.29413238474E+02 -0.87816633392E+01 -0.13491780966E+03  0.13842884082E+03  0.41800000000E+01 0.  1.
        -11    1    1    2    0    0  0.20295577260E+02  0.41316787199E+02 -0.52758839810E+02  0.70017730175E+02  0.00000000000E+00 0.  1.
         11    1    1    2    0    0  0.60642829171E+02 -0.18951101839E+02 -0.22944849848E+03  0.23808257065E+03  0.00000000000E+00 0. -1.
</event>
<event>
 7    1  0.2601031E-009  0.1219025E+03  0.7561462E-02  0.1239991E+00
          2   -1    0    0  501    0  0.00000000000E+00  0.00000000000E+00  0.24837574620E+03  0.24837574620E+03  0.00000000000E+00 0. -1.
         -2   -1    0    0    0  501 -0.00000000000E+00 -0.00000000000E+00 -0.69525499651E+02  0.69525499651E+02  0.00000000000E+00 0.  1.
         25    2    1    2    0    0 -0.38640112233E+01 -0.60427407930E+02  0.94666028722E+02  0.16815527535E+03  0.12509251545E+03 0.  0.
          5    1    3    3  502    0  0.30787804029E+02 -0.75728700827E+02  0.19903334042E+02  0.84239777492E+02  0.41800000000E+01 0.  1.
         -5    1    3    3    0  502 -0.34651815252E+02  0.15301292897E+02  0.74762694681E+02  0.83915497856E+02  0.41800000000E+01 0.  1.
        -11    1    1    2    0    0 -0.42607841543E+02  0.64378386457E+02  0.52115379559E+02  0.93145142602E+02  0.00000000000E+00 0.  1.
         11    1    1    2    0    0  0.46471852767E+02 -0.39509785266E+01  0.32068838264E+02  0.56600827896E+02  0.00000000000E+00 0. -1.
</event>
<event>
 7    1  0.2601031E-009  0.1441047E+03  0.7561462E-02  0.1207910E+00
         -1   -1    0    0    0  501 -0.00000000000E+00  0.00000000000E+00  0.76788861491E+02  0.76788861491E+02  0.00000000000E+00 0.  1.
          1   -1    0    0  501    0  0.00000000000E+00 -0.00000000000E+00 -0.41867290837E+03  0.41867290837E+03  0.00000000000E+00 0. -1.
         25    2    1    2    0    0 -0.41248498874E+02  0.12621741142E+03 -0.10842494395E+03  0.21221821114E+03  0.12509327346E+03 0.  0.
          5    1    3    3  502    0  0.75171953865E+01 -0.51093001315E+01 -0.64607312472E+02  0.65377292688E+02  0.41800000000E+01 0.  1.
         -5    1    3    3    0  502 -0.48765694261E+02  0.13132671155E+03 -0.43817631476E+02  0.14684091845E+03  0.41800000000E+01 0.  1.
        -11    1    1    2    0    0  0.27984917989E+02 -0.12033228994E+03 -0.23790214748E+03  0.26806799028E+03  0.00000000000E+00 0. -1.
         11    1    1    2    0    0  0.13263580885E+02 -0.58851214759E+01  0.44430445481E+01  0.15175568442E+02  0.00000000000E+00 0.  1.
</event>
<event>
 7    1  0.2601031E-009  0.1151790E+03  0.7561462E-02  0.1251269E+00
         -1   -1    0    0    0  501 -0.00000000000E+00  0.00000000000E+00  0.19138719206E+03  0.19138719206E+03  0.00000000000E+00 0.  1.
          1   -1    0    0  501    0  0.00000000000E+00 -0.00000000000E+00 -0.72401338469E+02  0.72401338469E+02  0.00000000000E+00 0. -1.
         25    2    1    2    0    0 -0.45691417815E+02 -0.55574469945E+01  0.49913477204E+02  0.14233309951E+03  0.12509502440E+03 0.  0.
          5    1    3    3  502    0 -0.23487333283E+02 -0.65088436666E+02  0.21266809549E+02  0.72511440482E+02  0.41800000000E+01 0. -1.
         -5    1    3    3    0  502 -0.22204084532E+02  0.59530989672E+02  0.28646667655E+02  0.69821659025E+02  0.41800000000E+01 0. -1.
        -11    1    1    2    0    0  0.12005248396E+02 -0.39397028839E+02  0.42941946455E+02  0.59500106183E+02  0.00000000000E+00 0.  1.
         11    1    1    2    0    0  0.33686169420E+02  0.44954475834E+02  0.26130429934E+02  0.61955324841E+02  0.00000000000E+00 0. -1.
</event>
<event>
 7    1  0.2601031E-009  0.1379180E+03  0.7561462E-02  0.1216158E+00
          1   -1    0    0  501    0  0.00000000000E+00  0.00000000000E+00  0.27833907613E+03  0.27833907613E+03  0.00000000000E+00 0. -1.
         -1   -1    0    0    0  501 -0.00000000000E+00 -0.00000000000E+00 -0.15359158497E+03  0.15359158497E+03  0.00000000000E+00 0.  1.
         25    2    1    2    0    0  0.67879740501E+02 -0.67827520047E+02 -0.89315801334E+02  0.18120064381E+03  0.12509248300E+03 0.  0.
          5    1    3    3  502    0  0.10249273726E+03 -0.42088005064E+02 -0.80393213156E+02  0.13695511120E+03  0.41800000000E+01 0.  1.
         -5    1    3    3    0  502 -0.34612996763E+02 -0.25739514983E+02 -0.89225881772E+01  0.44245532613E+02  0.41800000000E+01 0.  1.
        -11    1    1    2    0    0  0.34002206014E+01  0.47333141123E+02  0.42036943581E+02  0.63396311994E+02  0.00000000000E+00 0.  1.
         11    1    1    2    0    0 -0.71279961102E+02  0.20494378924E+02  0.17202634890E+03  0.18733370530E+03  0.00000000000E+00 0. -1.
</event>
<event>
 7    1  0.2601031E-009  0.9791381E+02  0.7561462E-02  0.1284745E+00
         -2   -1    0    0    0  501 -0.00000000000E+00  0.00000000000E+00  0.13835534309E+03  0.13835534309E+03  0.00000000000E+00 0.  1.
          2   -1    0    0  501    0  0.00000000000E+00 -0.00000000000E+00 -0.13206909449E+03  0.13206909449E+03  0.00000000000E+00 0. -1.
         25    2    1    2    0    0  0.77473527820E+01 -0.87774830390E+02 -0.66168128102E+01  0.15315020880E+03  0.12508701739E+03 0.  0.
          5    1    3    3  502    0  0.13795467239E+01 -0.12855241619E+02  0.54497588219E+02  0.56166003133E+02  0.41800000000E+01 0.  1.
         -5    1    3    3    0  502  0.63678060582E+01 -0.74919588771E+02 -0.61114401029E+02  0.96984205666E+02  0.41800000000E+01 0.  1.
        -11    1    1    2    0    0  0.17724831106E-01  0.95780758869E+02 -0.52986901466E+01  0.95927213037E+02  0.00000000000E+00 0. -1.
         11    1    1    2    0    0 -0.77650776131E+01 -0.80059284792E+01  0.18201751564E+02  0.21347015743E+02  0.00000000000E+00 0.  1.
</event>
<event>
 7    1  0.2601031E-009  0.1694340E+03  0.7561462E-02  0.1178439E+00
          1   -1    0    0  501    0  0.00000000000E+00  0.00000000000E+00  0.23680256729E+03  0.23680256729E+03  0.00000000000E+00 0. -1.
         -1   -1    0    0    0  501 -0.00000000000E+00 -0.00000000000E+00 -0.15532706227E+03  0.15532706227E+03  0.00000000000E+00 0.  1.
         25    2    1    2    0    0  0.14907698395E+03 -0.20269278299E+02 -0.60795201314E+01  0.19574629869E+03  0.12507942318E+03 0.  0.
          5    1    3    3  502    0 -0.31937382333E+01  0.22623615613E+02 -0.27560980304E+02  0.36043140577E+02  0.41800000000E+01 0.  1.
         -5    1    3    3    0  502  0.15227072218E+03 -0.42892893912E+02  0.21481460173E+02  0.15970315812E+03  0.41800000000E+01 0.  1.
        -11    1    1    2    0    0 -0.12941142330E+03  0.37012056528E+00  0.10211149938E+03  0.16484602444E+03  0.00000000000E+00 0. -1.
         11    1    1    2    0    0 -0.19665560649E+02  0.19899157733E+02 -0.14556474225E+02  0.31537306416E+02  0.00000000000E+00 0.  1.
</event>
<event>
 7    1  0.2601031E-009  0.1748119E+03  0.7561462E-02  0.1172921E+00
         -2   -1    0    0    0  501 -0.00000000000E+00  0.00000000000E+00  0.28073341719E+02  0.28073341719E+02  0.00000000000E+00 0.  1.
          2   -1    0    0  501    0  0.00000000000E+00 -0.00000000000E+00 -0.14558696142E+04  0.14558696142E+04  0.00000000000E+00 0. -1.
         25    2    1    2    0    0 -0.12990989307E+02 -0.90213935440E+02 -0.95121191347E+03  0.96372090044E+03  0.12508616891E+03 0.  0.
          5    1    3    3  502    0  0.55252514045E+01  0.25390458246E+02 -0.36318829886E+03  0.36414065497E+03  0.41800000000E+01 0. -1.
         -5    1    3    3    0  502 -0.18516240711E+02 -0.11560439369E+03 -0.58802361462E+03  0.59958024547E+03  0.41800000000E+01 0. -1.
        -11    1    1    2    0    0  0.94868759605E+02  0.79110082199E+02 -0.24581713582E+03  0.27510825308E+03  0.00000000000E+00 0. -1.
         11    1    1    2    0    0 -0.81877770298E+02  0.11103853242E+02 -0.23076722315E+03  0.24511380236E+03  0.00000000000E+00 0.  1.
</event>
<event>
 7    1  0.2601031E-009  0.1118909E+03  0.7561462E-02  0.1257108E+00
         -2   -1    0    0    0  501 -0.00000000000E+00  0.00000000000E+00  0.56830543267E+02  0.56830543267E+02  0.00000000000E+00 0.  1.
          2   -1    0    0  501    0  0.00000000000E+00 -0.00000000000E+00 -0.32765599328E+03  0.32765599328E+03  0.00000000000E+00 0. -1.
         25    2    1    2    0    0  0.28296561187E+02 -0.51754436746E+02 -0.68795097477E+02  0.15446180472E+03  0.12508583686E+03 0.  0.
          5    1    3    3  502    0  0.52850488177E+02 -0.69071994432E+02 -0.91580551982E+01  0.87552594995E+02  0.41800000000E+01 0.  1.
         -5    1    3    3    0  502 -0.24553926990E+02  0.17317557686E+02 -0.59637042279E+02  0.66909209729E+02  0.41800000000E+01 0.  1.
        -11    1    1    2    0    0  0.24070664342E+02 -0.94183518442E+01 -0.27101227316E+02  0.37451018081E+02  0.00000000000E+00 0.  1.
         11    1    1    2    0    0 -0.52367225529E+02  0.61172788590E+02 -0.17492912522E+03  0.19257371374E+03  0.00000000000E+00 0. -1.
</event>
<event>
 7    1  0.2601031E-009  0.7894666E+02  0.7561462E-02  0.1332068E+00
          2   -1    0    0  501    0  0.00000000000E+00  0.00000000000E+00  0.61522557654E+03  0.61522557654E+03  0.00000000000E+00 0. -1.
         -2   -1    0    0    0  501 -0.00000000000E+00 -0.00000000000E+00 -0.23755724398E+02  0.23755724398E+02  0.00000000000E+00 0.  1.
         25    2    1    2    0    0 -0.44180717667E+02  0.26076925235E+02  0.38048304228E+03  0.40379128142E+03  0.12509241240E+03 0.  0.
          5    1    3    3  502    0 -0.46407983052E+02  0.14295437244E+02  0.38662564765E+03  0.38968567363E+03  0.41800000000E+01 0. -1.
         -5    1    3    3    0  502  0.22272653851E+01  0.11781487991E+02 -0.61426053620E+01  0.14105607786E+02  0.41800000000E+01 0. -1.
        -11    1    1    2    0    0  0.47230605775E+02 -0.52061420591E+02  0.18669084414E+03  0.19948582136E+03  0.00000000000E+00 0. -1.
         11    1    1    2    0    0 -0.30498881079E+01  0.25984495356E+02  0.24295965713E+02  0.35704198161E+02  0.00000000000E+00 0.  1.
</event>
<event>
 7    1  0.2601031E-009  0.1067414E+03  0.7561462E-02  0.1266726E+00
          2   -1    0    0  501    0  0.00000000000E+00  0.00000000000E+00  0.23316114579E+03  0.23316114579E+03  0.00000000000E+00 0. -1.
         -2   -1    0    0    0  501 -0.00000000000E+00 -0.00000000000E+00 -0.60625740278E+02  0.60625740278E+02  0.00000000000E+00 0.  1.
         25    2    1    2    0    0  0.41142151194E+02 -0.21755983639E+02  0.81056011223E+02  0.15615887639E+03  0.12509803473E+03 0.  0.
          5    1    3    3  502    0  0.58293203718E+02 -0.55496598064E+02  0.18130671691E+02  0.82608496248E+02  0.41800000000E+01 0. -1.
         -5    1    3    3    0  502 -0.17151052525E+02  0.33740614425E+02  0.62925339531E+02  0.73550380146E+02  0.41800000000E+01 0. -1.
        -11    1    1    2    0    0 -0.60432343452E+02 -0.63012417476E+01  0.30972182656E+02  0.68198606153E+02  0.00000000000E+00 0.  1.
         11    1    1    2    0    0  0.19290192259E+02  0.28057225387E+02  0.60507211634E+02  0.69429403523E+02  0.00000000000E+00 0. -1.
</event>
<event>
 7    1  0.2601031E-009  0.9329133E+02  0.7561462E-02  0.1295071E+00
         -1   -1    0    0    0  501 -0.00000000000E+00  0.00000000000E+00  0.26225985507E+02  0.26225985507E+02  0.00000000000E+00 0.  1.
          1   -1    0    0  501    0  0.00000000000E+00 -0.00000000000E+00 -0.47326288792E+03  0.47326288792E+03  0.00000000000E+00 0. -1.
         25    2    1    2    0    0  0.17115750572E+02 -0.18889769377E+02 -0.26822362073E+03  0.29705177755E+03  0.12508427369E+03 0.  0.
          5    1    3    3  502    0  0.40701679676E+02  0.23460893936E+02 -0.34806333886E+02  0.58617348553E+02  0.41800000000E+01 0. -1.
         -5    1    3    3    0  502 -0.23585929104E+02 -0.42350663313E+02 -0.23341728684E+03  0.23843442900E+03  0.41800000000E+01 0. -1.
        -11    1    1    2    0    0 -0.44303270528E+01 -0.35061335873E+02 -0.42411072434E+02  0.55205290834E+02  0.00000000000E+00 0.  1.
         11    1    1    2    0    0 -0.12685423519E+02  0.53951105251E+02 -0.13640220925E+03  0.14723180504E+03  0.00000000000E+00 0. -1.
</event>
<event>
 7    1  0.2601031E-009  0.1492242E+03  0.7561462E-02  0.1201430E+00
          2   -1    0    0  501    0  0.00000000000E+00  0.00000000000E+00  0.27194759734E+03  0.27194759734E+03  0.00000000000E+00 0. -1.
         -2   -1    0    0    0  501 -0.00000000000E+00 -0.00000000000E+00 -0.11157688596E+03  0.11157688596E+03  0.00000000000E+00 0.  1.
         25    2    1    2    0    0  0.71787465109E+02  0.11743438131E+03  0.92386998294E+02  0.20767122805E+03  0.12509079681E+03 0.  0.
          5    1    3    3  502    0  0.14775715577E+02  0.20477540622E+01 -0.27608352046E+02  0.31657677903E+02  0.41800000000E+01 0. -1.
         -5    1    3    3    0  502  0.57011749532E+02  0.11538662725E+03  0.11999535034E+03  0.17601355015E+03  0.41800000000E+01 0. -1.
        -11    1    1    2    0    0 -0.37146376407E+02 -0.61716435197E+01 -0.55484821843E+01  0.38062161243E+02  0.00000000000E+00 0.  1.
         11    1    1    2    0    0 -0.34641088702E+02 -0.11126273779E+03  0.73532195272E+02  0.13779109401E+03  0.00000000000E+00 0. -1.
</event>
<event>
 7    1  0.2601031E-009  0.8178595E+02  0.7561462E-02  0.1324058E+00
         -1   -1    0    0    0  501 -0.00000000000E+00  0.00000000000E+00  0.21825816627E+03  0.21825816627E+03  0.00000000000E+00 0. -1.
          1   -1    0    0  501    0  0.00000000000E+00 -0.00000000000E+00 -0.70416780441E+02  0.70416780441E+02  0.00000000000E+00 0.  1.
         25    2    1    2    0    0 -0.50723387087E+02  0.30108349359E+02  0.65686510598E+02  0.15310832135E+03  0.12509222875E+03 0.  0.
          5    1    3    3  502    0 -0.23751025655E+02  0.24324793258E+01 -0.36479354813E+02  0.43797761391E+02  0.41800000000E+01 0. -1.
         -5    1    3    3    0  502 -0.26972361432E+02  0.27675870033E+02  0.10216586541E+03  0.10931055996E+03  0.41800000000E+01 0. -1.
        -11    1    1    2    0    0  0.62774032231E+02  0.53606828932E+01  0.74076388634E+02  0.97245192152E+02  0.00000000000E+00 0.  1.
         11    1    1    2    0    0 -0.12050645144E+02 -0.35469032252E+02  0.80784865936E+01  0.38321433205E+02  0.00000000000E+00 0. -1.
</event>
<event>
 7    1  0.2601031E-009  0.1532951E+03  0.7561462E-02  0.1196482E+00
         -1   -1    0    0    0  501 -0.00000000000E+00  0.00000000000E+00  0.31828624505E+03  0.31828624505E+03  0.00000000000E+00 0.  1.
          1   -1    0    0  501    0  0.00000000000E+00 -0.00000000000E+00 -0.13115973544E+03  0.13115973544E+03  0.00000000000E+00 0. -1.
         25    2    1    2    0    0  0.53254412988E+02 -0.11585563117E+03 -0.29830591293E+02  0.18109822673E+03  0.12509254082E+03 0.  0.
          5    1    3    3  502    0  0.54155706633E+02  0.51247482587E+01  0.59082528802E+01  0.54876984772E+02  0.41800000000E+01 0.  1.
         -5    1    3    3    0  502 -0.90129364446E+00 -0.12098037943E+03 -0.35738844173E+02  0.12622124195E+03  0.41800000000E+01 0.  1.
        -11    1    1    2    0    0 -0.27448095095E+02  0.91364270066E+02  0.21193617206E+03  0.23241722999E+03  0.00000000000E+00 0.  1.
         11    1    1    2    0    0 -0.25806317893E+02  0.24491361106E+02  0.50209288436E+01  0.35930523771E+02  0.00000000000E+00 0. -1.
</event>
<event>
 7    1  0.2601031E-009  0.8920128E+02  0.7561462E-02  0.1304798E+00
         -1   -1    0    0    0  501 -0.00000000000E+00  0.00000000000E+00  0.52603468509E+02  0.52603468509E+02  0.00000000000E+00 0.  1.
          1   -1    0    0  501    0  0.00000000000E+00 -0.00000000000E+00 -0.31310186620E+03  0.31310186620E+03  0.00000000000E+00 0. -1.
         25    2    1    2    0    0 -0.10860353460E+02  0.66481770843E+02 -0.12347236865E+03  0.18823113002E+03  0.12509100430E+03 0.  0.
          5    1    3    3  502    0  0.14508502699E+02 -0.15226026264E+02 -0.95865989689E+02  0.98234866038E+02  0.41800000000E+01 0.  1.
         -5    1    3    3    0  502 -0.25368856159E+02  0.81707797108E+02 -0.27606378960E+02  0.89996263980E+02  0.41800000000E+01 0.  1.
        -11    1    1    2    0    0  0.18251271731E+02 -0.43947890908E+02 -0.10482787219E+02  0.48727967974E+02  0.00000000000E+00 0.  1.
         11    1    1    2    0    0 -0.73909182704E+01 -0.22533879936E+02 -0.12654324182E+03  0.12874623672E+03  0.00000000000E+00 0. -1.
</event>
<event>
 7    1  0.2601031E-009  0.9865636E+02  0.7561462E-02  0.1283147E+00
         -4   -1    0    0    0  501 -0.00000000000E+00  0.00000000000E+00  0.36538980405E+03  0.36538980405E+03  0.00000000000E+00 0. -1.
          4   -1    0    0  501    0  0.00000000000E+00 -0.00000000000E+00 -0.72958823835E+02  0.72958823835E+02  0.00000000000E+00 0.  1.
         25    2    1    2    0    0  0.12070435960E+02 -0.53561108161E+01 -0.64765650481E+01  0.12595283471E+03  0.12509111611E+03 0.  0.
          5    1    3    3  502    0  0.45514179334E+02  0.32690341362E+02  0.29705688037E+02  0.63561774995E+02  0.41800000000E+01 0. -1.
         -5    1    3    3    0  502 -0.33443743374E+02 -0.38046452178E+02 -0.36182253085E+02  0.62391059716E+02  0.41800000000E+01 0. -1.
        -11    1    1    2    0    0  0.37529145918E+02 -0.91224050098E+01  0.11169684620E+03  0.11818561891E+03  0.00000000000E+00 0.  1.
         11    1    1    2    0    0 -0.49599581878E+02  0.14478515826E+02  0.18721069907E+03  0.19421017427E+03  0.00000000000E+00 0. -1.
</event>
<event>
 7    1  0.2601031E-009  0.1449143E+03  0.7561462E-02  0.1206865E+00
          2   -1    0    0  501    0  0.00000000000E+00  0.00000000000E+00  0.13106681079E+04  0.13106681079E+04  0.00000000000E+00 0. -1.
         -2   -1    0    0    0  501 -0.00000000000E+00 -0.00000000000E+00 -0.34861985789E+02  0.34861985789E+02  0.00000000000E+00 0.  1.
         25    2    1    2    0    0  0.47721458919E+02 -0.10182518831E+03  0.11173849657E+04  0.11299742865E+04  0.12508804891E+03 0.  0.
          5    1    3    3  502    0  0.61133207751E+02 -0.12210029122E+03  0.79547021437E+03  0.80711590528E+03  0.41800000000E+01 0. -1.
         -5    1    3    3    0  502 -0.13411748832E+02  0.20275102913E+02  0.32191475129E+03  0.32285838119E+03  0.41800000000E+01 0. -1.
        -11    1    1    2    0    0 -0.54354365873E+02  0.42881079897E+02  0.13512547528E+03  0.15182910845E+03  0.00000000000E+00 0. -1.
         11    1    1    2    0    0  0.66329069540E+01  0.58944108411E+02  0.23295681116E+02  0.63726698719E+02  0.00000000000E+00 0.  1.
</event>
<event>
 7    1  0.2601031E-009  0.3173389E+03  0.7561462E-02  0.1076881E+00
          2   -1    0    0  501    0  0.00000000000E+00  0.00000000000E+00  0.47029574744E+03  0.47029574744E+03  0.00000000000E+00 0. -1.
         -2   -1    0    0    0  501 -0.00000000000E+00 -0.00000000000E+00 -0.24278861834E+03  0.24278861834E+03  0.00000000000E+00 0.  1.
         25    2    1    2    0    0 -0.12236185648E+03 -0.29215953772E+03  0.16508396558E+03  0.37845759301E+03  0.12509122519E+03 0.  0.
          5    1    3    3  502    0 -0.44824295686E+02 -0.80874931678E+02  0.11540648484E+03  0.14793951872E+03  0.41800000000E+01 0. -1.
         -5    1    3    3    0  502 -0.77537560792E+02 -0.21128460604E+03  0.49677480745E+02  0.23051807429E+03  0.41800000000E+01 0. -1.
        -11    1    1    2    0    0  0.97233913604E+02  0.21761611867E+03  0.84560599867E+02  0.25290651259E+03  0.00000000000E+00 0. -1.
         11    1    1    2    0    0  0.25127942874E+02  0.74543419042E+02 -0.22137436347E+02  0.81720260178E+02  0.00000000000E+00 0.  1.
</event>
<event>
 7    1  0.2601031E-009  0.1071501E+03  0.7561462E-02  0.1265940E+00
         -3   -1    0    0    0  501 -0.00000000000E+00  0.00000000000E+00  0.26928965766E+03  0.26928965766E+03  0.00000000000E+00 0.  1.
          3   -1    0    0  501    0  0.00000000000E+00 -0.00000000000E+00 -0.87431663867E+02  0.87431663867E+02  0.00000000000E+00 0. -1.
         25    2    1    2    0    0  0.53699324708E+02  0.39850293865E+02 -0.19554095281E+01  0.14185541154E+03  0.12508985076E+03 0.  0.
          5    1    3    3  502    0 -0.48555041514E+01  0.69546208517E+02  0.19750460647E+02  0.72579639951E+02  0.41800000000E+01 0. -1.
         -5    1    3    3    0  502  0.58554828859E+02 -0.29695914652E+02 -0.21705870175E+02  0.69275771593E+02  0.41800000000E+01 0. -1.
        -11    1    1    2    0    0 -0.59579198733E+02 -0.28845211199E+02  0.18981076770E+03  0.20102202532E+03  0.00000000000E+00 0.  1.
         11    1    1    2    0    0  0.58798740249E+01 -0.11005082666E+02 -0.59973643759E+01  0.13843884660E+02  0.00000000000E+00 0. -1.
</event>
<event>
 7    1  0.2601031E-009  0.1035730E+03  0.7561462E-02  0.1272957E+00
          2   -1    0    0  501    0  0.00000000000E+00  0.00000000000E+00  0.24672567827E+03  0.24672567827E+03  0.00000000000E+00 0.  1.
         -2   -1    0    0    0  501 -0.00000000000E+00 -0.00000000000E+00 -0.10458887465E+03  0.10458887465E+03  0.00000000000E+00 0. -1.
         25    2    1    2    0    0 -0.97786115137E+01 -0.86461293384E+02  0.16499632096E+03  0.22459438124E+03  0.12509066174E+03 0.  0.
          5    1    3    3  502    0 -0.16920505661E+02 -0.82896979899E+02  0.18455116597E+03  0.20306358130E+03  0.41800000000E+01 0.  1.
         -5    1    3    3    0  502  0.71418941473E+01 -0.35643134842E+01 -0.19554845008E+02  0.21530799937E+02  0.41800000000E+01 0.  1.
        -11    1    1    2    0    0 -0.29997395521E+02  0.20272268430E+02  0.16796638338E+02  0.39911598124E+02  0.00000000000E+00 0.  1.
         11    1    1    2    0    0  0.39776007035E+02  0.66189024953E+02 -0.39656155688E+02  0.86808573562E+02  0.00000000000E+00 0. -1.
</event>
<event>
 7    1  0.2601031E-009  0.2008290E+03  0.7561462E-02  0.1149041E+00
         -2   -1    0    0    0  501 -0.00000000000E+00  0.00000000000E+00  0.31574473207E+02  0.31574473207E+02  0.00000000000E+00 0.  1.
          2   -1    0    0  501    0  0.00000000000E+00 -0.00000000000E+00 -0.14440894118E+04  0.14440894118E+04  0.00000000000E+00 0. -1.
         25    2    1    2    0    0  0.86638838320E+02 -0.15715607391E+03 -0.86803165352E+03  0.89517073694E+03  0.12508947551E+03 0.  0.
          5    1    3    3  502    0  0.11226321224E+03 -0.85356025149E+02 -0.51495385954E+03  0.53393223325E+03  0.41800000000E+01 0. -1.
         -5    1    3    3    0  502 -0.25624373923E+02 -0.71800048760E+02 -0.35307779399E+03  0.36123850369E+03  0.41800000000E+01 0. -1.
        -11    1    1    2    0    0 -0.61676014244E+00  0.33940377812E+02 -0.32813582876E+02  0.47212931071E+02  0.00000000000E+00 0.  1.
         11    1    1    2    0    0 -0.86022078177E+02  0.12321569610E+03 -0.51166970219E+03  0.53328021700E+03  0.00000000000E+00 0. -1.
</event>
<event>
 7    1  0.2601031E-009  0.1513388E+03  0.7561462E-02  0.1198837E+00
          1   -1    0    0  501    0  0.00000000000E+00  0.00000000000E+00  0.42047391937E+02  0.42047391937E+02  0.00000000000E+00 0. -1.
         -1   -1    0    0    0  501 -0.00000000000E+00 -0.00000000000E+00 -0.62094912743E+03  0.62094912743E+03  0.00000000000E+00 0.  1.
         25    2    1    2    0    0 -0.79030283173E+02  0.85845807364E+02 -0.36278763155E+03  0.40109536066E+03  0.12508930583E+03 0.  0.
          5    1    3    3  502    0 -0.51753926941E+02  0.11784954103E+03 -0.27017751131E+03  0.29929975491E+03  0.41800000000E+01 0. -1.
         -5    1    3    3    0  502 -0.27276356232E+02 -0.32003733662E+02 -0.92610120244E+02  0.10179560575E+03  0.41800000000E+01 0. -1.
        -11    1    1    2    0    0  0.66340768762E+02 -0.27307075257E+02 -0.17532085720E+03  0.18943119312E+03  0.00000000000E+00 0.  1.
         11    1    1    2    0    0  0.12689514411E+02 -0.58538732106E+02 -0.40793246746E+02  0.72469965591E+02  0.00000000000E+00 0. -1.
</event>
<event>
 7    1  0.2601031E-009  0.7865857E+02  0.7561462E-02  0.1332902E+00
          2   -1    0    0  501    0  0.00000000000E+00  0.00000000000E+00  0.23577292463E+03  0.23577292463E+03  0.00000000000E+00 0. -1.
         -2   -1    0    0    0  501 -0.00000000000E+00 -0.00000000000E+00 -0.54325831130E+02  0.54325831130E+02  0.00000000000E+00 0.  1.
         25    2    1    2    0    0  0.11985122010E+02 -0.27830995452E+02  0.87178819773E+02  0.15545284523E+03  0.12508890045E+03 0.  0.
          5    1    3    3  502    0 -0.31730002325E+02  0.26336624849E+01 -0.18476470300E+02  0.37048368120E+02  0.41800000000E+01 0.  1.
         -5    1    3    3    0  502  0.43715124335E+02 -0.30464657937E+02  0.10565529007E+03  0.11840447711E+03  0.41800000000E+01 0.  1.
        -11    1    1    2    0    0  0.24876764803E+02 -0.10960296827E+01  0.82720320590E+02  0.86386955882E+02  0.00000000000E+00 0. -1.
         11    1    1    2    0    0 -0.36861886813E+02  0.28927025134E+02  0.11547953142E+02  0.48258954654E+02  0.00000000000E+00 0.  1.
</event>
<event>
 7    1  0.2601031E-009  0.1560991E+03  0.7561462E-02  0.1193173E+00
          2   -1    0    0  501    0  0.00000000000E+00  0.00000000000E+00  0.41645779250E+03  0.41645779250E+03  0.00000000000E+00 0. -1.
         -2   -1    0    0    0  501 -0.00000000000E+00 -0.00000000000E+00 -0.84630529548E+02  0.84630529548E+02  0.00000000000E+00 0.  1.
         25    2    1    2    0    0 -0.96372945319E+02 -0.80190398791E+02  0.29177925292E+03  0.34132250334E+03  0.12509066393E+03 0.  0.
          5    1    3    3  502    0  0.22346101023E+02  0.68575061606E+01  0.79418853801E+02  0.82892703906E+02  0.41800000000E+01 0.  1.
         -5    1    3    3    0  502 -0.11871904634E+03 -0.87047904951E+02  0.21236039912E+03  0.25842979944E+03  0.41800000000E+01 0.  1.
        -11    1    1    2    0    0  0.33368040725E+02  0.69744681853E+02 -0.10884508140E+02  0.78078289595E+02  0.00000000000E+00 0.  1.
         11    1    1    2    0    0  0.63004904594E+02  0.10445716938E+02  0.50932518166E+02  0.81687529109E+02  0.00000000000E+00 0. -1.
</event>
<event>
 7    1  0.2601031E-009  0.1082534E+03  0.7561462E-02  0.1263839E+00
         -2   -1    0    0    0  501 -0.00000000000E+00  0.00000000000E+00  0.22890454684E+02  0.22890454684E+02  0.00000000000E+00 0.  1.
          2   -1    0    0  501    0  0.00000000000E+00 -0.00000000000E+00 -0.58603975420E+03  0.58603975420E+03  0.00000000000E+00 0. -1.
         25    2    1    2    0    0  0.84162353043E+01  0.36689824841E+02 -0.36904342699E+03  0.39147865825E+03  0.12508202347E+03 0.  0.
          5    1    3    3  502    0 -0.28021168284E+02 -0.37994985369E+02 -0.13032819808E+03  0.13867846408E+03  0.41800000000E+01 0.  1.
         -5    1    3    3    0  502  0.36437403589E+02  0.74684810210E+02 -0.23871522892E+03  0.25280019417E+03  0.41800000000E+01 0.  1.
        -11    1    1    2    0    0 -0.39804205085E+02 -0.30845996128E+01 -0.39537493208E+02  0.56188102534E+02  0.00000000000E+00 0.  1.
         11    1    1    2    0    0  0.31387969780E+02 -0.33605225228E+02 -0.15456837932E+03  0.16126344810E+03  0.00000000000E+00 0. -1.
</event>
<event>
 7    1  0.4050518E-009  0.1020947E+03  0.7561462E-02  0.1275952E+00
         -2   -1    0    0    0  501 -0.00000000000E+00  0.00000000000E+00  0.36211985769E+02  0.36211985769E+02  0.00000000000E+00 0.  1.
          2   -1    0    0  501    0  0.00000000000E+00 -0.00000000000E+00 -0.48997171317E+03  0.48997171317E+03  0.00000000000E+00 0. -1.
         25    2    1    2    0    0 -0.68651746809E+02  0.36821913258E+01 -0.17906405380E+03  0.22899330205E+03  0.12508947257E+03 0.  0.
          5    1    3    3  502    0 -0.82561769866E+01  0.52416483663E+02 -0.30545325622E+02  0.61368897134E+02  0.41800000000E+01 0. -1.
         -5    1    3    3    0  502 -0.60395569823E+02 -0.48734292338E+02 -0.14851872817E+03  0.16762440491E+03  0.41800000000E+01 0. -1.
        -11    1    1    2    0    0  0.25907002855E+02 -0.13749910315E+02 -0.13427373098E+02  0.32257203519E+02  0.00000000000E+00 0.  1.
         11    1    1    2    0    0  0.42744743955E+02  0.10067718989E+02 -0.26126830050E+03  0.26493319337E+03  0.00000000000E+00 0. -1.
</event>
<event>
 7    1  0.2601031E-009  0.9025886E+02  0.7561462E-02  0.1302226E+00
          1   -1    0    0  501    0  0.00000000000E+00  0.00000000000E+00  0.56772312099E+02  0.56772312099E+02  0.00000000000E+00 0. -1.
         -1   -1    0    0    0  501 -0.00000000000E+00 -0.00000000000E+00 -0.16605450106E+03  0.16605450106E+03  0.00000000000E+00 0.  1.
         25    2    1    2    0    0  0.22288684691E+02  0.39361114928E+02 -0.88563051848E+02  0.15980427041E+03  0.12509159786E+03 0.  0.
          5    1    3    3  502    0  0.44667954367E+02  0.71867411443E+02 -0.31690179355E+02  0.90453805019E+02  0.41800000000E+01 0.  1.
         -5    1    3    3    0  502 -0.22379269677E+02 -0.32506296515E+02 -0.56872872492E+02  0.69350465391E+02  0.41800000000E+01 0.  1.
        -11    1    1    2    0    0 -0.95957723193E+01 -0.42054633199E+02 -0.24369423019E+02  0.49543312346E+02  0.00000000000E+00 0.  1.
         11    1    1    2    0    0 -0.12692912371E+02  0.26935182717E+01  0.36502859041E+01  0.13479230406E+02  0.00000000000E+00 0. -1.
</event>
<event>
 7    1  0.2601031E-009  0.3116872E+03  0.7561462E-02  0.1079540E+00
          1   -1    0    0  501    0  0.00000000000E+00  0.00000000000E+00  0.95086210481E+02  0.95086210481E+02  0.00000000000E+00 0. -1.
         -1   -1    0    0    0  501 -0.00000000000E+00 -0.00000000000E+00 -0.11793417879E+04  0.11793417879E+04  0.00000000000E+00 0.  1.
         25    2    1    2    0    0 -0.66113454595E+02 -0.30343218913E+03 -0.65999278945E+03  0.74005565159E+03  0.12509917286E+03 0.  0.
          5    1    3    3  502    0 -0.62511305340E+02 -0.26690017740E+03 -0.45074937035E+03  0.52757543087E+03  0.41800000000E+01 0.  1.
         -5    1    3    3    0  502 -0.36021492546E+01 -0.36532011731E+02 -0.20924341910E+03  0.21248022072E+03  0.41800000000E+01 0.  1.
        -11    1    1    2    0    0 -0.61489149982E+00  0.55937232438E+02 -0.28328064978E+02  0.62704316675E+02  0.00000000000E+00 0. -1.
         11    1    1    2    0    0  0.66728346094E+02  0.24749495669E+03 -0.39593472299E+03  0.47166803011E+03  0.00000000000E+00 0.  1.
</event>
<event>
 7    1  0.2601031E-009  0.1093605E+03  0.7561462E-02  0.1261759E+00
         -2   -1    0    0    0  501 -0.00000000000E+00  0.00000000000E+00  0.11868760424E+02  0.11868760424E+02  0.00000000000E+00 0.  1.
          2   -1    0    0  501    0  0.00000000000E+00 -0.00000000000E+00 -0.10853114881E+04  0.10853114881E+04  0.00000000000E+00 0. -1.
         25    2    1    2    0    0 -0.21324784329E+02 -0.21576695542E+02 -0.67781095676E+03  0.68992490396E+03  0.12509348415E+03 0.  0.
          5    1    3    3  502    0 -0.71870158638E+02  0.10196519463E+01 -0.42842193161E+03  0.43442972191E+03  0.41800000000E+01 0.  1.
         -5    1    3    3    0  502  0.50545374309E+02 -0.22596347489E+02 -0.24938902515E+03  0.25549518205E+03  0.41800000000E+01 0.  1.
        -11    1    1    2    0    0 -0.26861969350E+02  0.32119669410E+02 -0.25036789959E+03  0.25384507815E+03  0.00000000000E+00 0.  1.
         11    1    1    2    0    0  0.48186753679E+02 -0.10542973867E+02 -0.14526387135E+03  0.15341026643E+03  0.00000000000E+00 0. -1.
</event>
<event>
 7    1  0.2601031E-009  0.1213572E+03  0.7561462E-02  0.1240875E+00
          2   -1    0    0  501    0  0.00000000000E+00  0.00000000000E+00  0.66856192279E+03  0.66856192279E+03  0.00000000000E+00 0. -1.
         -2   -1    0    0    0  501 -0.00000000000E+00 -0.00000000000E+00 -0.24137316274E+02  0.24137316274E+02  0.00000000000E+00 0.  1.
         25    2    1    2    0    0 -0.50490805641E+02 -0.37671343177E+02  0.40786900206E+03  0.43124664006E+03  0.12509232658E+03 0.  0.
          5    1    3    3  502    0 -0.81711266766E+02  0.16444391281E+01  0.31651221496E+03  0.32692031126E+03  0.41800000000E+01 0. -1.
         -5    1    3    3    0  502  0.31220461125E+02 -0.39315782305E+02  0.91356787103E+02  0.10432632880E+03  0.41800000000E+01 0. -1.
        -11    1    1    2    0    0  0.74019411856E+02  0.44035523887E+02  0.16997056690E+03  0.19054656730E+03  0.00000000000E+00 0. -1.
         11    1    1    2    0    0 -0.23528606215E+02 -0.63641807102E+01  0.66585037545E+02  0.70906031699E+02  0.00000000000E+00 0.  1.
</event>
<event>
 7    1  0.2601031E-009  0.9692974E+02  0.7561462E-02  0.1286888E+00
         -4   -1    0    0    0  501 -0.00000000000E+00  0.00000000000E+00  0.41597558088E+02  0.41597558088E+02  0.00000000000E+00 0. -1.
          4   -1    0    0  501    0  0.00000000000E+00 -0.00000000000E+00 -0.36953611516E+03  0.36953611516E+03  0.00000000000E+00 0.  1.
         25    2    1    2    0    0  0.41766694261E+02 -0.34347213635E+02 -0.23164753815E+03  0.26876031363E+03  0.12508931377E+03 0.  0.
          5    1    3    3  502    0  0.70038888072E+00 -0.57283629001E+02 -0.36673941404E+02  0.68149505312E+02  0.41800000000E+01 0.  1.
         -5    1    3    3    0  502  0.41066305380E+02  0.22936415366E+02 -0.19497359675E+03  0.20061080832E+03  0.41800000000E+01 0.  1.
        -11    1    1    2    0    0 -0.22341641648E+02 -0.20924799400E+02 -0.73304962561E+02  0.79439371331E+02  0.00000000000E+00 0.  1.
         11    1    1    2    0    0 -0.19425052613E+02  0.55272013036E+02 -0.22986056359E+02  0.62933988281E+02  0.00000000000E+00 0. -1.
</event>
<event>
 7    1  0.2601031E-009  0.1637088E+03  0.7561462E-02  0.1184572E+00
         -2   -1    0    0    0  501 -0.00000000000E+00  0.00000000000E+00  0.76203677933E+02  0.76203677933E+02  0.00000000000E+00 0.  1.
          2   -1    0    0  501    0  0.00000000000E+00 -0.00000000000E+00 -0.51800389220E+03  0.51800389220E+03  0.00000000000E+00 0. -1.
         25    2    1    2    0    0  0.11029942977E+03  0.10661031440E+03 -0.32683768439E+03  0.38210150542E+03  0.12508782978E+03 0.  0.
          5    1    3    3  502    0  0.25687701260E+02  0.27702831332E+02 -0.29265964301E+01  0.38122725853E+02  0.41800000000E+01 0. -1.
         -5    1    3    3    0  502  0.84611728513E+02  0.78907483068E+02 -0.32391108796E+03  0.34397877956E+03  0.41800000000E+01 0. -1.
        -11    1    1    2    0    0 -0.49401903185E+02  0.16432700233E+01 -0.55749985268E+02  0.74507108601E+02  0.00000000000E+00 0. -1.
         11    1    1    2    0    0 -0.60897526587E+02 -0.10825358442E+03 -0.59212544606E+02  0.13759895611E+03  0.00000000000E+00 0.  1.
</event>
<event>
 7    1  0.2601031E-009  0.1037309E+03  0.7561462E-02  0.1272640E+00
         -2   -1    0    0    0  501 -0.00000000000E+00  0.00000000000E+00  0.36188585919E+02  0.36188585919E+02  0.00000000000E+00 0.  1.
          2   -1    0    0  501    0  0.00000000000E+00 -0.00000000000E+00 -0.34497305128E+03  0.34497305128E+03  0.00000000000E+00 0. -1.
         25    2    1    2    0    0  0.19971688356E+02  0.10384534724E+02 -0.18573539410E+03  0.22506037209E+03  0.12509127694E+03 0.  0.
          5    1    3    3  502    0 -0.48523907600E+02  0.26923171322E+02 -0.95026314986E+02  0.11012220350E+03  0.41800000000E+01 0.  1.
         -5    1    3    3    0  502  0.68495595956E+02 -0.16538636598E+02 -0.90709079114E+02  0.11493816859E+03  0.41800000000E+01 0.  1.
        -11    1    1    2    0    0 -0.47523358378E+02  0.78746359206E+01 -0.28567906500E+02  0.56005399420E+02  0.00000000000E+00 0.  1.
         11    1    1    2    0    0  0.27551670022E+02 -0.18259170644E+02 -0.94481164757E+02  0.10009586569E+03  0.00000000000E+00 0. -1.
</event>
<event>
 7    1  0.2601031E-009  0.8747486E+02  0.7561462E-02  0.1309085E+00
         -2   -1    0    0    0  501 -0.00000000000E+00  0.00000000000E+00  0.20602638721E+02  0.20602638721E+02  0.00000000000E+00 0. -1.
          2   -1    0    0  501    0  0.00000000000E+00 -0.00000000000E+00 -0.62426313546E+03  0.62426313546E+03  0.00000000000E+00 0.  1.
         25    2    1    2    0    0 -0.30061349276E+01 -0.10192400164E+01 -0.29084278601E+03  0.31661732760E+03  0.12508769030E+03 0.  0.
          5    1    3    3  502    0 -0.40606274756E+02 -0.74156607197E+01 -0.26957397506E+03  0.27274798258E+03  0.41800000000E+01 0. -1.
         -5    1    3    3    0  502  0.37600139829E+02  0.63964207034E+01 -0.21268810948E+02  0.43869345016E+02  0.41800000000E+01 0. -1.
        -11    1    1    2    0    0 -0.37639568402E+02  0.27469946931E+02 -0.10546597204E+03  0.11530137186E+03  0.00000000000E+00 0.  1.
         11    1    1    2    0    0  0.40645703330E+02 -0.26450706915E+02 -0.20735173869E+03  0.21294707473E+03  0.00000000000E+00 0. -1.
</event>
<event>
 7    1  0.2601031E-009  0.8938500E+02  0.7561462E-02  0.1304348E+00
         -1   -1    0    0    0  501 -0.00000000000E+00  0.00000000000E+00  0.71884978304E+02  0.71884978304E+02  0.00000000000E+00 0.  1.
          1   -1    0    0  501    0  0.00000000000E+00 -0.00000000000E+00 -0.17241457348E+03  0.17241457348E+03  0.00000000000E+00 0. -1.
         25    2    1    2    0    0 -0.15846141393E+02 -0.92615574638E+01 -0.77154582595E+02  0.14811194039E+03  0.12508973030E+03 0.  0.
          5    1    3    3  502    0  0.47792542140E+01  0.54582551512E+02 -0.53920377749E+02  0.76986854313E+02  0.41800000000E+01 0. -1.
         -5    1    3    3    0  502 -0.20625395607E+02 -0.63844108976E+02 -0.23234204846E+02  0.71125086079E+02  0.41800000000E+01 0. -1.
        -11    1    1    2    0    0 -0.17459213153E+02 -0.78609286514E+01 -0.47789861756E+02  0.51482902111E+02  0.00000000000E+00 0. -1.
         11    1    1    2    0    0  0.33305354545E+02  0.17122486115E+02  0.24414849172E+02  0.44704709285E+02  0.00000000000E+00 0.  1.
</event>
<event>
 7    1  0.2601031E-009  0.9343850E+02  0.7561462E-02  0.1294732E+00
         -2   -1    0    0    0  501 -0.00000000000E+00  0.00000000000E+00  0.57896825636E+02  0.57896825636E+02  0.00000000000E+00 0.  1.
          2   -1    0    0  501    0  0.00000000000E+00 -0.00000000000E+00 -0.30083580847E+03  0.30083580847E+03  0.00000000000E+00 0. -1.
         25    2    1    2    0    0 -0.54338398487E+02 -0.46898085475E+02 -0.97050108450E+02  0.17383461788E+03  0.12509060258E+03 0.  0.
          5    1    3    3  502    0 -0.78220436592E+02 -0.41248321739E+02 -0.11353955621E+03  0.14397417814E+03  0.41800000000E+01 0. -1.
         -5    1    3    3    0  502  0.23882038105E+02 -0.56497637354E+01  0.16489447757E+02  0.29860439743E+02  0.41800000000E+01 0. -1.
        -11    1    1    2    0    0  0.34870087413E+02  0.19838582624E+02 -0.53664901494E+01  0.40475814671E+02  0.00000000000E+00 0.  1.
         11    1    1    2    0    0  0.19468311074E+02  0.27059502850E+02 -0.14052238423E+03  0.14442220155E+03  0.00000000000E+00 0. -1.
</event>
<event>
 7    1  0.2601031E-009  0.1220618E+03  0.7561462E-02  0.1239734E+00
          1   -1    0    0  501    0  0.00000000000E+00  0.00000000000E+00  0.44799784082E+03  0.44799784082E+03  0.00000000000E+00 0. -1.
         -1   -1    0    0    0  501 -0.00000000000E+00 -0.00000000000E+00 -0.49053872534E+02  0.49053872534E+02  0.00000000000E+00 0.  1.
         25    2    1    2    0    0 -0.74112975154E+02 -0.12507834075E+02  0.33405530020E+03  0.36453959129E+03  0.12508793316E+03 0.  0.
          5    1    3    3  502    0  0.18041085581E+02 -0.36016410483E+02  0.46640807631E+02  0.61769733118E+02  0.41800000000E+01 0. -1.
         -5    1    3    3    0  502 -0.92154060735E+02  0.23508576408E+02  0.28741449257E+03  0.30276985817E+03  0.41800000000E+01 0. -1.
        -11    1    1    2    0    0  0.54920918043E+02  0.44791631274E+02  0.63134598637E+02  0.94913513347E+02  0.00000000000E+00 0.  1.
         11    1    1    2    0    0  0.19192057112E+02 -0.32283797199E+02  0.17540694409E+01  0.37598608716E+02  0.00000000000E+00 0. -1.
</event>
<event>
 7    1  0.2601031E-009  0.1206287E+03  0.7561462E-02  0.1242063E+00
         -1   -1    0    0    0  501 -0.00000000000E+00  0.00000000000E+00  0.21921294248E+03  0.21921294248E+03  0.00000000000E+00 0.  1.
          1   -1    0    0  501    0  0.00000000000E+00 -0.00000000000E+00 -0.82499664799E+02  0.82499664799E+02  0.00000000000E+00 0. -1.
         25    2    1    2    0    0  0.73542323209E+02 -0.31430552962E+02  0.72396941608E+02  0.16518084040E+03  0.12508812860E+03 0.  0.
          5    1    3    3  502    0 -0.21695549538E+02 -0.46067299433E+02  0.16413080447E+02  0.53663344627E+02  0.41800000000E+01 0. -1.
         -5    1    3    3    0  502  0.95237872746E+02  0.14636746470E+02  0.55983861161E+02  0.11151749577E+03  0.41800000000E+01 0. -1.
        -11    1    1    2    0    0 -0.63139017962E+02  0.44330078443E+02  0.81801001215E+02  0.11244151922E+03  0.00000000000E+00 0.  1.
         11    1    1    2    0    0 -0.10403305247E+02 -0.12899525481E+02 -0.17484665139E+02  0.24090247668E+02  0.00000000000E+00 0. -1.
</event>
<event>
 7    1  0.2601031E-009  0.1730903E+03  0.7561462E-02  0.1174663E+00
          1   -1    0    0  501    0  0.00000000000E+00  0.00000000000E+00  0.46606691555E+03  0.46606691555E+03  0.00000000000E+00 0. -1.
         -1   -1    0    0    0  501 -0.00000000000E+00 -0.00000000000E+00 -0.72716623118E+02  0.72716623118E+02  0.00000000000E+00 0.  1.
         25    2    1    2    0    0 -0.90296169191E+02  0.11805394987E+03  0.20937510274E+03  0.28561313292E+03  0.12508714881E+03 0.  0.
          5    1    3    3  502    0 -0.10896478255E+03  0.77947974625E+02  0.19908325720E+03  0.24000172141E+03  0.41800000000E+01 0. -1.
         -5    1    3    3    0  502  0.18668613354E+02  0.40105975248E+02  0.10291845540E+02  0.45611411508E+02  0.41800000000E+01 0. -1.
        -11    1    1    2    0    0  0.49197234567E+02 -0.11663035892E+03  0.10636236318E+03  0.16533590297E+03  0.00000000000E+00 0.  1.
         11    1    1    2    0    0  0.41098934623E+02 -0.14235909524E+01  0.77612826515E+02  0.87834502777E+02  0.00000000000E+00 0. -1.
</event>
<event>
 7    1  0.2601031E-009  0.2560789E+03  0.7561462E-02  0.1109522E+00
         -1   -1    0    0    0  501 -0.00000000000E+00  0.00000000000E+00  0.14481777277E+03  0.14481777277E+03  0.00000000000E+00 0.  1.
          1   -1    0    0  501    0  0.00000000000E+00 -0.00000000000E+00 -0.48803938537E+03  0.48803938537E+03  0.00000000000E+00 0. -1.
         25    2    1    2    0    0 -0.16056046930E+03  0.17794559957E+03 -0.21737956369E+03  0.34690883351E+03  0.12509022086E+03 0.  0.
          5    1    3    3  502    0 -0.15402972202E+03  0.10741917175E+03 -0.10840260237E+03  0.21687007706E+03  0.41800000000E+01 0. -1.
         -5    1    3    3    0  502 -0.65307472784E+01  0.70526427816E+02 -0.10897696132E+03  0.13003875645E+03  0.41800000000E+01 0. -1.
        -11    1    1    2    0    0  0.77727617776E+02 -0.14442835584E+03 -0.10314937335E+03  0.19375480835E+03  0.00000000000E+00 0.  1.
         11    1    1    2    0    0  0.82832851523E+02 -0.33517243732E+02 -0.22692675561E+02  0.92193516274E+02  0.00000000000E+00 0. -1.
</event>
<event>
 7    1  0.2601031E-009  0.1051353E+03  0.7561462E-02  0.1269853E+00
          1   -1    0    0  501    0  0.00000000000E+00  0.00000000000E+00  0.22544186941E+03  0.22544186941E+03  0.00000000000E+00 0. -1.
         -1   -1    0    0    0  501 -0.00000000000E+00 -0.00000000000E+00 -0.75429914801E+02  0.75429914801E+02  0.00000000000E+00 0.  1.
         25    2    1    2    0    0 -0.11639116017E+02 -0.52920192899E+02  0.28467584375E+02  0.13926045865E+03  0.12508819347E+03 0.  0.
          5    1    3    3  502    0 -0.10963440892E+02  0.33526525837E+02 -0.19277482889E+02  0.40414338018E+02  0.41800000000E+01 0. -1.
         -5    1    3    3    0  502 -0.67567512527E+00 -0.86446718735E+02  0.47745067264E+02  0.98846120637E+02  0.41800000000E+01 0. -1.
        -11    1    1    2    0    0 -0.29454162221E+02  0.21283216150E+02  0.86196613124E+01  0.37347309447E+02  0.00000000000E+00 0.  1.
         11    1    1    2    0    0  0.41093278238E+02  0.31636976749E+02  0.11292470893E+03  0.12426401611E+03  0.00000000000E+00 0. -1.
</event>
<event>
 7    1  0.2601031E-009  0.1066442E+03  0.7561462E-02  0.1266914E+00
         -2   -1    0    0    0  501 -0.00000000000E+00  0.00000000000E+00  0.17560447859E+02  0.17560447859E+02  0.00000000000E+00 0.  1.
          2   -1    0    0  501    0  0.00000000000E+00 -0.00000000000E+00 -0.84070477544E+03  0.84070477544E+03  0.00000000000E+00 0. -1.
         25    2    1    2    0    0  0.30620719017E+02 -0.38436758975E+02 -0.55290520862E+03  0.56900517440E+03  0.12509079061E+03 0.  0.
          5    1    3    3  502    0  0.39976541266E+02  0.36753694499E+02 -0.16531104208E+03  0.17405220753E+03  0.41800000000E+01 0.  1.
         -5    1    3    3    0  502 -0.93558222487E+01 -0.75190453474E+02 -0.38759416654E+03  0.39495296687E+03  0.41800000000E+01 0.  1.
        -11    1    1    2    0    0 -0.50465795184E+02  0.37852756991E+02 -0.25873426131E+03  0.26631381052E+03  0.00000000000E+00 0. -1.
         11    1    1    2    0    0  0.19845076166E+02  0.58400198379E+00 -0.11504857641E+02  0.22946238378E+02  0.00000000000E+00 0.  1.
</event>
<event>
 7    1  0.2601031E-009  0.1016107E+03  0.7561462E-02  0.1276945E+00
          3   -1    0    0  501    0  0.00000000000E+00  0.00000000000E+00  0.70574195091E+03  0.70574195091E+03  0.00000000000E+00 0. -1.
         -3   -1    0    0    0  501 -0.00000000000E+00 -0.00000000000E+00 -0.27239556557E+02  0.27239556557E+02  0.00000000000E+00 0.  1.
         25    2    1    2    0    0 -0.15303333384E+01  0.83806473362E+02  0.49198310041E+03  0.51451067171E+03  0.12509193945E+03 0.  0.
          5    1    3    3  502    0  0.13772679308E+02  0.57531512792E+02  0.47642183504E+03  0.48009873876E+03  0.41800000000E+01 0.  1.
         -5    1    3    3    0  502 -0.15303012647E+02  0.26274960570E+02  0.15561265369E+02  0.34411932944E+02  0.41800000000E+01 0.  1.
        -11    1    1    2    0    0  0.18432146644E+02  0.78416186210E+01  0.41622338702E+02  0.46191493714E+02  0.00000000000E+00 0.  1.
         11    1    1    2    0    0 -0.16901813306E+02 -0.91648091983E+02  0.14489695525E+03  0.17227934205E+03  0.00000000000E+00 0. -1.
</event>
<event>
 7    1  0.2601031E-009  0.1127876E+03  0.7561462E-02  0.1255493E+00
          1   -1    0    0  501    0  0.00000000000E+00  0.00000000000E+00  0.13810758231E+03  0.13810758231E+03  0.00000000000E+00 0. -1.
         -1   -1    0    0    0  501 -0.00000000000E+00 -0.00000000000E+00 -0.17765070755E+03  0.17765070755E+03  0.00000000000E+00 0.  1.
         25    2    1    2    0    0 -0.97980440528E+02  0.21506132864E+02  0.28897179564E+02  0.16292617157E+03  0.12508880812E+03 0.  0.
          5    1    3    3  502    0 -0.64279920469E+02  0.49491678452E+02  0.66548815411E+02  0.10501214998E+03  0.41800000000E+01 0. -1.
         -5    1    3    3    0  502 -0.33700520060E+02 -0.27985545589E+02 -0.37651635847E+02  0.57914021585E+02  0.41800000000E+01 0. -1.
        -11    1    1    2    0    0  0.59335904888E+02 -0.11905603603E+02  0.13251542950E+02  0.61952372002E+02  0.00000000000E+00 0. -1.
         11    1    1    2    0    0  0.38644535640E+02 -0.96005292609E+01 -0.81691847757E+02  0.90879746296E+02  0.00000000000E+00 0.  1.
</event>
<event>
 7    1  0.2601031E-009  0.1243788E+03  0.7561462E-02  0.1236043E+00
          2   -1    0    0  501    0  0.00000000000E+00  0.00000000000E+00  0.92908790461E+03  0.92908790461E+03  0.00000000000E+00 0. -1.
         -2   -1    0    0    0  501 -0.00000000000E+00 -0.00000000000E+00 -0.18473441209E+02  0.18473441209E+02  0.00000000000E+00 0.  1.
         25    2    1    2    0    0 -0.68115969727E+02  0.17601863452E+02  0.57963123324E+03  0.59713442231E+03  0.12509013084E+03 0.  0.
          5    1    3    3  502    0  0.25850762325E+02  0.33523857259E+02  0.11057484792E+03  0.11847523079E+03  0.41800000000E+01 0.  1.
         -5    1    3    3    0  502 -0.93966732051E+02 -0.15921993807E+02  0.46905638532E+03  0.47865919152E+03  0.41800000000E+01 0.  1.
        -11    1    1    2    0    0  0.72493020212E+02 -0.43508315671E+02  0.28699586905E+03  0.29919030793E+03  0.00000000000E+00 0. -1.
         11    1    1    2    0    0 -0.43770504847E+01  0.25906452218E+02  0.43987361117E+02  0.51236615574E+02  0.00000000000E+00 0.  1.
</event>
<event>
 7    1  0.2601031E-009  0.1213913E+03  0.7561462E-02  0.1240819E+00
         -1   -1    0    0    0  501 -0.00000000000E+00  0.00000000000E+00  0.52641450979E+02  0.52641450979E+02  0.00000000000E+00 0.  1.
          1   -1    0    0  501    0  0.00000000000E+00 -0.00000000000E+00 -0.37642456883E+03  0.37642456883E+03  0.00000000000E+00 0. -1.
         25    2    1    2    0    0 -0.20392971645E+02  0.51133363007E+02 -0.70535458800E+02  0.15379478083E+03  0.12508832702E+03 0.  0.
          5    1    3    3  502    0 -0.32603206692E+02  0.89063729350E+02 -0.38297039279E+02  0.10236919747E+03  0.41800000000E+01 0.  1.
         -5    1    3    3    0  502  0.12210235047E+02 -0.37930366343E+02 -0.32238419521E+02  0.51425583361E+02  0.41800000000E+01 0.  1.
        -11    1    1    2    0    0 -0.21267406920E+02  0.17467380091E+02 -0.59435310756E+02  0.65497848278E+02  0.00000000000E+00 0.  1.
         11    1    1    2    0    0  0.41660378566E+02 -0.68600743097E+02 -0.19381234829E+03  0.20977339070E+03  0.00000000000E+00 0. -1.
</event>
<event>
 7    1  0.2601031E-009  0.1586973E+03  0.7561462E-02  0.1190175E+00
         -4   -1    0    0    0  501 -0.00000000000E+00  0.00000000000E+00  0.20917766812E+03  0.20917766812E+03  0.00000000000E+00 0.  1.
          4   -1    0    0  501    0  0.00000000000E+00 -0.00000000000E+00 -0.18482734699E+03  0.18482734699E+03  0.00000000000E+00 0. -1.
         25    2    1    2    0    0  0.12979878070E+03  0.26713579131E+02 -0.83111619416E+02  0.20029022398E+03  0.12508914325E+03 0.  0.
          5    1    3    3  502    0 -0.11597620375E+02 -0.27879996821E+02 -0.16674611509E+02  0.34746425573E+02  0.41800000000E+01 0.  1.
         -5    1    3    3    0  502  0.14139640107E+03  0.54593575952E+02 -0.66437007907E+02  0.16554379841E+03  0.41800000000E+01 0.  1.
        -11    1    1    2    0    0 -0.70589266247E+02 -0.28303997763E+02  0.60755819975E+01  0.76294649191E+02  0.00000000000E+00 0. -1.
         11    1    1    2    0    0 -0.59209514449E+02  0.15904186324E+01  0.10138635855E+03  0.11742014194E+03  0.00000000000E+00 0.  1.
</event>
<event>
 7    1  0.2601031E-009  0.2579710E+03  0.7561462E-02  0.1108368E+00
         -2   -1    0    0    0  501 -0.00000000000E+00  0.00000000000E+00  0.72290112185E+02  0.72290112185E+02  0.00000000000E+00 0.  1.
          2   -1    0    0  501    0  0.00000000000E+00 -0.00000000000E+00 -0.11872979688E+04  0.11872979688E+04  0.00000000000E+00 0. -1.
         25    2    1    2    0    0  0.16226785382E+03 -0.16854097826E+03 -0.86651661265E+03  0.90622048218E+03  0.12509038570E+03 0.  0.
          5    1    3    3  502    0  0.42795716574E+02 -0.13377794749E+03 -0.48035575894E+03  0.50048690306E+03  0.41800000000E+01 0. -1.
         -5    1    3    3    0  502  0.11947213725E+03 -0.34763030768E+02 -0.38616085371E+03  0.40573357912E+03  0.41800000000E+01 0. -1.
        -11    1    1    2    0    0 -0.82719662362E+02  0.14673262146E+03 -0.17497555929E+03  0.24287744048E+03  0.00000000000E+00 0. -1.
         11    1    1    2    0    0 -0.79548191462E+02  0.21808356800E+02 -0.73515684637E+02  0.11049015829E+03  0.00000000000E+00 0.  1.
</event>
<event>
 7    1  0.2601031E-009  0.1007257E+03  0.7561462E-02  0.1278777E+00
          2   -1    0    0  501    0  0.00000000000E+00  0.00000000000E+00  0.17678838514E+03  0.17678838514E+03  0.00000000000E+00 0. -1.
         -2   -1    0    0    0  501 -0.00000000000E+00 -0.00000000000E+00 -0.11962626361E+03  0.11962626361E+03  0.00000000000E+00 0.  1.
         25    2    1    2    0    0 -0.55335055385E+02 -0.77804304655E+02  0.45359889849E+02  0.16376671864E+03  0.12508613173E+03 0.  0.
          5    1    3    3  502    0 -0.35252694043E+02 -0.20302473509E+02  0.82659823259E+02  0.92222891134E+02  0.41800000000E+01 0. -1.
         -5    1    3    3    0  502 -0.20082361342E+02 -0.57501831146E+02 -0.37299933411E+02  0.71543827509E+02  0.41800000000E+01 0. -1.
        -11    1    1    2    0    0  0.57502784833E+02  0.66142225246E+02 -0.27291476240E+02  0.91794274873E+02  0.00000000000E+00 0.  1.
         11    1    1    2    0    0 -0.21677294489E+01  0.11662079409E+02  0.39093707919E+02  0.40853655234E+02  0.00000000000E+00 0. -1.
</event>
<event>
 7    1  0.2601031E-009  0.2718382E+03  0.7561462E-02  0.1100232E+00
          1   -1    0    0  501    0  0.00000000000E+00  0.00000000000E+00  0.20798509378E+04  0.20798509378E+04  0.00000000000E+00 0. -1.
         -1   -1    0    0    0  501 -0.00000000000E+00 -0.00000000000E+00 -0.40617157315E+02  0.40617157315E+02  0.00000000000E+00 0.  1.
         25    2    1    2    0    0  0.15061159563E+03  0.21318115643E+03  0.11984691906E+04  0.12329258247E+04  0.12509048832E+03 0.  0.
          5    1    3    3  502    0  0.13718419582E+03  0.17754396600E+03  0.11470938217E+04  0.11688383428E+04  0.41800000000E+01 0. -1.
         -5    1    3    3    0  502  0.13427399803E+02  0.35637190428E+02  0.51375368835E+02  0.64087481851E+02  0.41800000000E+01 0. -1.
        -11    1    1    2    0    0 -0.76554647757E+01 -0.95466160898E+02  0.22502133140E+03  0.24455468428E+03  0.00000000000E+00 0. -1.
         11    1    1    2    0    0 -0.14295613085E+03 -0.11771499553E+03  0.61574325856E+03  0.64298758618E+03  0.00000000000E+00 0.  1.
</event>
<event>
 7    1  0.2601031E-009  0.1810345E+03  0.7561462E-02  0.1166806E+00
         -2   -1    0    0    0  501 -0.00000000000E+00  0.00000000000E+00  0.58497677435E+02  0.58497677435E+02  0.00000000000E+00 0.  1.
          2   -1    0    0  501    0  0.00000000000E+00 -0.00000000000E+00 -0.57574635197E+03  0.57574635197E+03  0.00000000000E+00 0. -1.
         25    2    1    2    0    0  0.14463432647E+03  0.31442405862E+02 -0.28040282921E+03  0.34085333720E+03  0.12509011778E+03 0.  0.
          5    1    3    3  502    0  0.14237407283E+03  0.63975020407E+02 -0.19818351592E+03  0.25230409873E+03  0.41800000000E+01 0.  1.
         -5    1    3    3    0  502  0.22602536403E+01 -0.32532614545E+02 -0.82219313290E+02  0.88549238469E+02  0.41800000000E+01 0.  1.
        -11    1    1    2    0    0 -0.76748322485E+02  0.29107038873E+02 -0.11746398683E+03  0.14330147564E+03  0.00000000000E+00 0.  1.
         11    1    1    2    0    0 -0.67886003987E+02 -0.60549444736E+02 -0.11938185849E+03  0.15008921657E+03  0.00000000000E+00 0. -1.
</event>
<event>
 7    1  0.3878573E-009  0.1063441E+03  0.7561462E-02  0.1267494E+00
          2   -1    0    0  501    0  0.00000000000E+00  0.00000000000E+00  0.25402257049E+03  0.25402257049E+03  0.00000000000E+00 0. -1.
         -2   -1    0    0    0  501 -0.00000000000E+00 -0.00000000000E+00 -0.76725149173E+02  0.76725149173E+02  0.00000000000E+00 0.  1.
         25    2    1    2    0    0 -0.13410607894E+02  0.69682486097E+02  0.15848696503E+03  0.21401263517E+03  0.12509115338E+03 0.  0.
          5    1    3    3  502    0  0.23685531649E+02 -0.27797971495E+02  0.24547969392E+02  0.44201887177E+02  0.41800000000E+01 0.  1.
         -5    1    3    3    0  502 -0.37096139542E+02  0.97480457592E+02  0.13393899564E+03  0.16981074799E+03  0.41800000000E+01 0.  1.
        -11    1    1    2    0    0 -0.12144708215E+01 -0.11041376182E+02 -0.34438870956E+02  0.36185946997E+02  0.00000000000E+00 0.  1.
         11    1    1    2    0    0  0.14625078715E+02 -0.58641109915E+02  0.53249327244E+02  0.80549137497E+02  0.00000000000E+00 0. -1.
</event>
<event>
 7    1  0.2601031E-009  0.9624147E+02  0.7561462E-02  0.1288404E+00
         -2   -1    0    0    0  501 -0.00000000000E+00  0.00000000000E+00  0.17282541280E+02  0.17282541280E+02  0.00000000000E+00 0.  1.
          2   -1    0    0  501    0  0.00000000000E+00 -0.00000000000E+00 -0.73442566776E+03  0.73442566776E+03  0.00000000000E+00 0. -1.
         25    2    1    2    0    0 -0.25408558576E+02 -0.12220589872E+02 -0.46197525715E+03  0.47944086370E+03  0.12508983132E+03 0.  0.
          5    1    3    3  502    0 -0.69433737389E+02  0.32091873252E+01 -0.36696222369E+03  0.37351049355E+03  0.41800000000E+01 0. -1.
         -5    1    3    3    0  502  0.44025178813E+02 -0.15429777197E+02 -0.95013033456E+02  0.10593037015E+03  0.41800000000E+01 0. -1.
        -11    1    1    2    0    0 -0.55738105718E+01  0.36329384342E+02 -0.20647238803E+03  0.20971823609E+03  0.00000000000E+00 0. -1.
         11    1    1    2    0    0  0.30982369147E+02 -0.24108794471E+02 -0.48695481300E+02  0.62549109249E+02  0.00000000000E+00 0.  1.
</event>
<event>
 7    1  0.2601031E-009  0.1223266E+03  0.7561462E-02  0.1239307E+00
          4   -1    0    0  501    0  0.00000000000E+00  0.00000000000E+00  0.23703517617E+03  0.23703517617E+03  0.00000000000E+00 0. -1.
         -4   -1    0    0    0  501 -0.00000000000E+00 -0.00000000000E+00 -0.72615760650E+02  0.72615760650E+02  0.00000000000E+00 0.  1.
         25    2    1    2    0    0 -0.62286509182E+02  0.25437072720E+02  0.64576946740E+02  0.15602850140E+03  0.12509219522E+03 0.  0.
          5    1    3    3  502    0 -0.86379242316E+02 -0.20991508201E+02  0.33797246582E+02  0.95193188812E+02  0.41800000000E+01 0.  1.
         -5    1    3    3    0  502  0.24092733134E+02  0.46428580922E+02  0.30779700158E+02  0.60835312592E+02  0.41800000000E+01 0.  1.
        -11    1    1    2    0    0 -0.91252722666E+01 -0.30266914568E+02  0.10540978663E+01  0.31630172837E+02  0.00000000000E+00 0. -1.
         11    1    1    2    0    0  0.71411781448E+02  0.48298418473E+01  0.98788370916E+02  0.12199226258E+03  0.00000000000E+00 0.  1.
</event>
<event>
 7    1  0.2721307E-009  0.1437934E+03  0.7561462E-02  0.1208314E+00
          2   -1    0    0  501    0  0.00000000000E+00  0.00000000000E+00  0.98030407652E+03  0.98030407652E+03  0.00000000000E+00 0. -1.
         -2   -1    0    0    0  501 -0.00000000000E+00 -0.00000000000E+00 -0.23811918455E+02  0.23811918455E+02  0.00000000000E+00 0.  1.
         25    2    1    2    0    0  0.81781195636E+02  0.68086824652E+02  0.47691128629E+03  0.50439655248E+03  0.12509007760E+03 0.  0.
          5    1    3    3  502    0  0.10136636490E+03  0.13931331760E+02  0.24789595012E+03  0.26821464618E+03  0.41800000000E+01 0.  1.
         -5    1    3    3    0  502 -0.19585169262E+02  0.54155492892E+02  0.22901533616E+03  0.23618190630E+03  0.41800000000E+01 0.  1.
        -11    1    1    2    0    0 -0.72396002911E+01 -0.50286591894E+02  0.96593895620E+02  0.10913997346E+03  0.00000000000E+00 0.  1.
         11    1    1    2    0    0 -0.74541595345E+02 -0.17800232758E+02  0.38298697616E+03  0.39057946903E+03  0.00000000000E+00 0. -1.
</event>
<event>
 7    1  0.2601031E-009  0.8274657E+02  0.7561462E-02  0.1321433E+00
         -2   -1    0    0    0  501 -0.00000000000E+00  0.00000000000E+00  0.26394721731E+02  0.26394721731E+02  0.00000000000E+00 0.  1.
          2   -1    0    0  501    0  0.00000000000E+00 -0.00000000000E+00 -0.57451364617E+03  0.57451364617E+03  0.00000000000E+00 0. -1.
         25    2    1    2    0    0 -0.27605917644E+02 -0.21533399451E+02 -0.42173210571E+03  0.44128428222E+03  0.12509226500E+03 0.  0.
          5    1    3    3  502    0 -0.54139478493E+02  0.11293418330E+02 -0.37115288745E+03  0.37527398349E+03  0.41800000000E+01 0. -1.
         -5    1    3    3    0  502  0.26533560849E+02 -0.32826817781E+02 -0.50579218269E+02  0.66010298724E+02  0.41800000000E+01 0. -1.
        -11    1    1    2    0    0  0.20065897230E+02  0.41595497184E+02 -0.12993671277E+03  0.13789987289E+03  0.00000000000E+00 0. -1.
         11    1    1    2    0    0  0.75400204139E+01 -0.20062097734E+02  0.35498940522E+01  0.21724212784E+02  0.00000000000E+00 0.  1.
</event>
<event>
 7    1  0.2601031E-009  0.6437491E+02  0.7561462E-02  0.1380338E+00
          1   -1    0    0  501    0  0.00000000000E+00  0.00000000000E+00  0.66284699133E+03  0.66284699133E+03  0.00000000000E+00 0. -1.
         -1   -1    0    0    0  501 -0.00000000000E+00 -0.00000000000E+00 -0.20352270022E+02  0.20352270022E+02  0.00000000000E+00 0.  1.
         25    2    1    2    0    0  0.31735793115E+02  0.27935531657E+01  0.27298657639E+03  0.30196601388E+03  0.12508732209E+03 0.  0.
          5    1    3    3  502    0  0.41452303245E+01 -0.66891874362E+01 -0.12284808207E+02  0.15176200963E+02  0.41800000000E+01 0.  1.
         -5    1    3    3    0  502  0.27590562791E+02  0.94827406019E+01  0.28527138460E+03  0.28678981292E+03  0.41800000000E+01 0.  1.
        -11    1    1    2    0    0 -0.34886092575E+02  0.36765197790E+02  0.15471440386E+03  0.16280437950E+03  0.00000000000E+00 0.  1.
         11    1    1    2    0    0  0.31502994594E+01 -0.39558750955E+02  0.21479374106E+03  0.21842886797E+03  0.00000000000E+00 0. -1.
</event>
<event>
 7    1  0.2601031E-009  0.7966587E+02  0.7561462E-02  0.1330002E+00
         -2   -1    0    0    0  501 -0.00000000000E+00  0.00000000000E+00  0.88717100602E+02  0.88717100602E+02  0.00000000000E+00 0.  1.
          2   -1    0    0  501    0  0.00000000000E+00 -0.00000000000E+00 -0.35528677755E+03  0.35528677755E+03  0.00000000000E+00 0. -1.
         25    2    1    2    0    0  0.62367044249E+02 -0.40583521584E+02 -0.29038957673E+03  0.32482401521E+03  0.12509142319E+03 0.  0.
          5    1    3    3  502    0  0.22120474043E+02 -0.19896770724E+02  0.85368926040E+00  0.30056580686E+02  0.41800000000E+01 0.  1.
         -5    1    3    3    0  502  0.40246570206E+02 -0.20686750860E+02 -0.29124326599E+03  0.29476743453E+03  0.41800000000E+01 0.  1.
        -11    1    1    2    0    0 -0.46970314340E+02  0.77862240756E+01 -0.28537426642E+02  0.55508741959E+02  0.00000000000E+00 0. -1.
         11    1    1    2    0    0 -0.15396729910E+02  0.32797297508E+02  0.52357326426E+02  0.63671120975E+02  0.00000000000E+00 0.  1.
</event>
<event>
 7    1  0.2601031E-009  0.2224634E+03  0.7561462E-02  0.1132060E+00
          2   -1    0    0  501    0  0.00000000000E+00  0.00000000000E+00  0.65934737496E+03  0.65934737496E+03  0.00000000000E+00 0. -1.
         -2   -1    0    0    0  501 -0.00000000000E+00 -0.00000000000E+00 -0.86581944884E+02  0.86581944884E+02  0.00000000000E+00 0.  1.
         25    2    1    2    0    0  0.20367214147E+03  0.59924853345E+02  0.27514662544E+03  0.36936501697E+03  0.12510603908E+03 0.  0.
          5    1    3    3  502    0  0.11237338715E+03  0.10824467196E+02  0.22994440706E+03  0.25619689688E+03  0.41800000000E+01 0.  1.
         -5    1    3    3    0  502  0.91298754322E+02  0.49100386149E+02  0.45202218374E+02  0.11316812010E+03  0.41800000000E+01 0.  1.
        -11    1    1    2    0    0 -0.37599601049E+02  0.21430435440E+02  0.80228351683E+02  0.91156908548E+02  0.00000000000E+00 0.  1.
         11    1    1    2    0    0 -0.16607254042E+03 -0.81355288786E+02  0.21739045295E+03  0.28540739432E+03  0.00000000000E+00 0. -1.
</event>
<event>
 7    1  0.2601031E-009  0.1135476E+03  0.7561462E-02  0.1254138E+00
         -3   -1    0    0    0  501 -0.00000000000E+00  0.00000000000E+00  0.95256938851E+02  0.95256938851E+02  0.00000000000E+00 0.  1.
          3   -1    0    0  501    0  0.00000000000E+00 -0.00000000000E+00 -0.22053011098E+03  0.22053011098E+03  0.00000000000E+00 0. -1.
         25    2    1    2    0    0  0.72711486217E+02  0.11597030273E+02 -0.12953453728E+01  0.14513992286E+03  0.12506985228E+03 0.  0.
          5    1    3    3  502    0  0.50653140316E+01  0.60145484606E+02 -0.99763054396E+01  0.61319946143E+02  0.41800000000E+01 0.  1.
         -5    1    3    3    0  502  0.67646172186E+02 -0.48548454333E+02  0.86809600668E+01  0.83819976719E+02  0.41800000000E+01 0.  1.
        -11    1    1    2    0    0 -0.42219842320E+02  0.12859777276E+02 -0.12393504419E+03  0.13155905189E+03  0.00000000000E+00 0. -1.
         11    1    1    2    0    0 -0.30491643897E+02 -0.24456807548E+02 -0.42782571848E-01  0.39088075079E+02  0.00000000000E+00 0.  1.
</event>
<event>
 7    1  0.2798823E-009  0.1145699E+03  0.7561462E-02  0.1252334E+00
         -2   -1    0    0    0  501 -0.00000000000E+00  0.00000000000E+00  0.10742661196E+03  0.10742661196E+03  0.00000000000E+00 0.  1.
          2   -1    0    0  501    0  0.00000000000E+00 -0.00000000000E+00 -0.17693955716E+03  0.17693955716E+03  0.00000000000E+00 0. -1.
         25    2    1    2    0    0  0.79863110719E+02 -0.26725941366E+02 -0.35902396455E+02  0.15500927273E+03  0.12508597110E+03 0.  0.
          5    1    3    3  502    0  0.80487086393E+02 -0.40264153326E+02 -0.72575394431E+02  0.11568938325E+03  0.41800000000E+01 0. -1.
         -5    1    3    3    0  502 -0.62397567400E+00  0.13538211961E+02  0.36672997976E+02  0.39319889487E+02  0.41800000000E+01 0. -1.
        -11    1    1    2    0    0 -0.41602267711E+02 -0.33567008223E+02 -0.12573036033E+02  0.54914241822E+02  0.00000000000E+00 0. -1.
         11    1    1    2    0    0 -0.38260843007E+02  0.60292949589E+02 -0.21037512708E+02  0.74442654565E+02  0.00000000000E+00 0.  1.
</event>
<event>
 7    1  0.2601031E-009  0.1098710E+03  0.7561462E-02  0.1260809E+00
          2   -1    0    0  501    0  0.00000000000E+00  0.00000000000E+00  0.36511179260E+03  0.36511179260E+03  0.00000000000E+00 0.  1.
         -2   -1    0    0    0  501 -0.00000000000E+00 -0.00000000000E+00 -0.38521778136E+02  0.38521778136E+02  0.00000000000E+00 0. -1.
         25    2    1    2    0    0  0.46618670068E+02 -0.10385181548E+02  0.17101466416E+03  0.21719566604E+03  0.12508712801E+03 0.  0.
          5    1    3    3  502    0 -0.41463282135E+02  0.76859766979E+00  0.78639922466E+02  0.89002833175E+02  0.41800000000E+01 0.  1.
         -5    1    3    3    0  502  0.88081952203E+02 -0.11153779217E+02  0.92374741694E+02  0.12819283286E+03  0.41800000000E+01 0.  1.
        -11    1    1    2    0    0 -0.58528862207E+02 -0.15618023403E+02  0.14279217220E+03  0.15511013767E+03  0.00000000000E+00 0.  1.
         11    1    1    2    0    0  0.11910192139E+02  0.26003204951E+02  0.12783178106E+02  0.31327767028E+02  0.00000000000E+00 0. -1.
</event>
<event>
 7    1  0.2601031E-009  0.1640337E+03  0.7561462E-02  0.1184217E+00
          1   -1    0    0  501    0  0.00000000000E+00  0.00000000000E+00  0.25876896293E+03  0.25876896293E+03  0.00000000000E+00 0. -1.
         -1   -1    0    0    0  501 -0.00000000000E+00 -0.00000000000E+00 -0.12249383292E+03  0.12249383292E+03  0.00000000000E+00 0.  1.
         25    2    1    2    0    0  0.19895372092E+01 -0.13740132427E+03  0.44604122568E+02  0.19110458061E+03  0.12509336837E+03 0.  0.
          5    1    3    3  502    0  0.53033212459E+02 -0.64188014712E+02 -0.13601689098E+02  0.84469528249E+02  0.41800000000E+01 0. -1.
         -5    1    3    3    0  502 -0.51043675250E+02 -0.73213309557E+02  0.58205811666E+02  0.10663505236E+03  0.41800000000E+01 0. -1.
        -11    1    1    2    0    0  0.33210508392E+02  0.41235889172E+02  0.65946911595E+02  0.84571458379E+02  0.00000000000E+00 0.  1.
         11    1    1    2    0    0 -0.35200045601E+02  0.96165435097E+02  0.25724095856E+02  0.10558675687E+03  0.00000000000E+00 0. -1.
</event>
<event>
 7    1  0.2601031E-009  0.1547075E+03  0.7561462E-02  0.1194805E+00
          1   -1    0    0  501    0  0.00000000000E+00  0.00000000000E+00  0.48862696671E+03  0.48862696671E+03  0.00000000000E+00 0. -1.
         -1   -1    0    0    0  501 -0.00000000000E+00 -0.00000000000E+00 -0.67034896370E+02  0.67034896370E+02  0.00000000000E+00 0.  1.
         25    2    1    2    0    0  0.10181669124E+03 -0.10064761808E+03  0.20028798866E+03  0.27615094118E+03  0.12508989677E+03 0.  0.
          5    1    3    3  502    0 -0.68313239734E+01 -0.25968717660E+02 -0.91178014057E+01  0.28664402778E+02  0.41800000000E+01 0.  1.
         -5    1    3    3    0  502  0.10864801522E+03 -0.74678900418E+02  0.20940579006E+03  0.24748653840E+03  0.41800000000E+01 0.  1.
        -11    1    1    2    0    0 -0.39449766113E+02  0.71125953365E+02  0.18376449850E+03  0.20095914061E+03  0.00000000000E+00 0. -1.
         11    1    1    2    0    0 -0.62366925129E+02  0.29521664713E+02  0.37539583188E+02  0.78551781288E+02  0.00000000000E+00 0.  1.
</event>
<event>
 7    1  0.2601031E-009  0.1194288E+03  0.7561462E-02  0.1244042E+00
          2   -1    0    0  501    0  0.00000000000E+00  0.00000000000E+00  0.13113589797E+04  0.13113589797E+04  0.00000000000E+00 0. -1.
         -2   -1    0    0    0  501 -0.00000000000E+00 -0.00000000000E+00 -0.15516925817E+02  0.15516925817E+02  0.00000000000E+00 0.  1.
         25    2    1    2    0    0 -0.12695725353E+02  0.56789591239E+02  0.10360476477E+04  0.10451928204E+04  0.12508822610E+03 0.  0.
          5    1    3    3  502    0  0.33043910616E+02 -0.25682925826E+02  0.39479422903E+03  0.39702829670E+03  0.41800000000E+01 0.  1.
         -5    1    3    3    0  502 -0.45739635969E+02  0.82472517065E+02  0.64125341870E+03  0.64816452369E+03  0.41800000000E+01 0.  1.
        -11    1    1    2    0    0  0.34205336238E+02  0.71443053800E+01  0.47765983747E+02  0.59183066242E+02  0.00000000000E+00 0.  1.
         11    1    1    2    0    0 -0.21509610885E+02 -0.63933896619E+02  0.21202842243E+03  0.22250001891E+03  0.00000000000E+00 0. -1.
</event>
<event>
 7    1  0.2601031E-009  0.1853544E+03  0.7561462E-02  0.1162719E+00
         -3   -1    0    0    0  501 -0.00000000000E+00  0.00000000000E+00  0.10286748102E+03  0.10286748102E+03  0.00000000000E+00 0.  1.
          3   -1    0    0  501    0  0.00000000000E+00 -0.00000000000E+00 -0.37279274906E+03  0.37279274906E+03  0.00000000000E+00 0. -1.
         25    2    1    2    0    0  0.13324106358E+03  0.78009783826E+02 -0.20409504046E+03  0.28485263831E+03  0.12509009800E+03 0.  0.
          5    1    3    3  502    0  0.74617951105E+01 -0.27085792171E+02 -0.60767141207E+02  0.67077838175E+02  0.41800000000E+01 0. -1.
         -5    1    3    3    0  502  0.12577926847E+03  0.10509557600E+03 -0.14332789926E+03  0.21777480014E+03  0.41800000000E+01 0. -1.
        -11    1    1    2    0    0 -0.51276427861E+02  0.15910482585E+02 -0.27920488003E+02  0.60514206271E+02  0.00000000000E+00 0. -1.
         11    1    1    2    0    0 -0.81964635715E+02 -0.93920266411E+02 -0.37909739570E+02  0.13029338550E+03  0.00000000000E+00 0.  1.
</event>
<event>
 7    1  0.2601031E-009  0.1175913E+03  0.7561462E-02  0.1247124E+00
          1   -1    0    0  501    0  0.00000000000E+00  0.00000000000E+00  0.21560557820E+03  0.21560557820E+03  0.00000000000E+00 0. -1.
         -1   -1    0    0    0  501 -0.00000000000E+00 -0.00000000000E+00 -0.76045010048E+02  0.76045010048E+02  0.00000000000E+00 0.  1.
         25    2    1    2    0    0 -0.19263119299E+02  0.20479379596E+02  0.57126793602E+02  0.14036155294E+03  0.12508965682E+03 0.  0.
          5    1    3    3  502    0 -0.69078161186E+02  0.31678980870E+02  0.26060105924E+02  0.80448441269E+02  0.41800000000E+01 0.  1.
         -5    1    3    3    0  502  0.49815041887E+02 -0.11199601274E+02  0.31066687678E+02  0.59913111671E+02  0.41800000000E+01 0.  1.
        -11    1    1    2    0    0 -0.43297777133E+02 -0.94508705393E+01  0.75287770559E+02  0.87362834515E+02  0.00000000000E+00 0. -1.
         11    1    1    2    0    0  0.62560896432E+02 -0.11028509057E+02  0.71460039871E+01  0.63926200790E+02  0.00000000000E+00 0.  1.
</event>
<event>
 7    1  0.3400744E-009  0.1105140E+03  0.7561462E-02  0.1259621E+00
          1   -1    0    0  501    0  0.00000000000E+00  0.00000000000E+00  0.77096238760E+02  0.77096238760E+02  0.00000000000E+00 0. -1.
         -1   -1    0    0    0  501 -0.00000000000E+00 -0.00000000000E+00 -0.20552674522E+03  0.20552674522E+03  0.00000000000E+00 0.  1.
         25    2    1    2    0    0  0.43944096120E+02  0.46034683419E+02 -0.69175162045E+02  0.15646557503E+03  0.12508396165E+03 0.  0.
          5    1    3    3  502    0  0.71418861301E+02  0.30057282375E+02  0.28265640641E+01  0.77650214666E+02  0.41800000000E+01 0.  1.
         -5    1    3    3    0  502 -0.27474765181E+02  0.15977401044E+02 -0.72001726109E+02  0.78815360359E+02  0.41800000000E+01 0.  1.
        -11    1    1    2    0    0 -0.52428357486E+02  0.11117730342E+02 -0.28086876076E+02  0.60507926789E+02  0.00000000000E+00 0. -1.
         11    1    1    2    0    0  0.84842613654E+01 -0.57152413761E+02 -0.31168468335E+02  0.65649482161E+02  0.00000000000E+00 0.  1.
</event>
<event>
 7    1  0.2601031E-009  0.1881843E+03  0.7561462E-02  0.1160109E+00
         -3   -1    0    0    0  501 -0.00000000000E+00  0.00000000000E+00  0.12027838090E+03  0.12027838090E+03  0.00000000000E+00 0.  1.
          3   -1    0    0  501    0  0.00000000000E+00 -0.00000000000E+00 -0.33117858475E+03  0.33117858475E+03  0.00000000000E+00 0. -1.
         25    2    1    2    0    0 -0.12379476303E+02  0.16260742308E+03 -0.14886293675E+03  0.25377528342E+03  0.12508914847E+03 0.  0.
          5    1    3    3  502    0  0.55211712882E+02  0.84229939390E+02 -0.86817586054E+02  0.13303300935E+03  0.41800000000E+01 0. -1.
         -5    1    3    3    0  502 -0.67591189185E+02  0.78377483689E+02 -0.62045350695E+02  0.12074227407E+03  0.41800000000E+01 0. -1.
        -11    1    1    2    0    0 -0.13927790134E+02 -0.12676307606E+03 -0.79091332913E+02  0.15006098671E+03  0.00000000000E+00 0.  1.
         11    1    1    2    0    0  0.26307266437E+02 -0.35844347020E+02  0.17054065820E+02  0.47620695518E+02  0.00000000000E+00 0. -1.
</event>
<event>
 7    1  0.2601031E-009  0.1089478E+03  0.7561462E-02  0.1262531E+00
          4   -1    0    0  501    0  0.00000000000E+00  0.00000000000E+00  0.21178052155E+02  0.21178052155E+02  0.00000000000E+00 0.  1.
         -4   -1    0    0    0  501 -0.00000000000E+00 -0.00000000000E+00 -0.63289639847E+03  0.63289639847E+03  0.00000000000E+00 0. -1.
         25    2    1    2    0    0  0.18427931465E+02  0.41488443228E+02 -0.42657792409E+03  0.44685301563E+03  0.12509201683E+03 0.  0.
          5    1    3    3  502    0  0.20663863964E+02 -0.39301739882E+02 -0.22971424946E+03  0.23400369834E+03  0.41800000000E+01 0. -1.
         -5    1    3    3    0  502 -0.22359324990E+01  0.80790183110E+02 -0.19686367464E+03  0.21284931729E+03  0.41800000000E+01 0. -1.
        -11    1    1    2    0    0 -0.21263046244E+02  0.20958531883E+02 -0.72319853678E+02  0.78240260930E+02  0.00000000000E+00 0. -1.
         11    1    1    2    0    0  0.28351147791E+01 -0.62446975111E+02 -0.11282056854E+03  0.12898117406E+03  0.00000000000E+00 0.  1.
</event>
<event>
 7    1  0.2601031E-009  0.9961179E+02  0.7561462E-02  0.1281114E+00
          2   -1    0    0  501    0  0.00000000000E+00  0.00000000000E+00  0.34679402220E+02  0.34679402220E+02  0.00000000000E+00 0. -1.
         -2   -1    0    0    0  501 -0.00000000000E+00 -0.00000000000E+00 -0.49305928785E+03  0.49305928785E+03  0.00000000000E+00 0.  1.
         25    2    1    2    0    0  0.29105440998E+02  0.67059684947E+02 -0.24172877364E+03  0.28182242987E+03  0.12508778489E+03 0.  0.
          5    1    3    3  502    0  0.33556961169E+02  0.68933052018E+02 -0.25542198588E+03  0.26671276417E+03  0.41800000000E+01 0.  1.
         -5    1    3    3    0  502 -0.44515201711E+01 -0.18733670716E+01  0.13693212237E+02  0.15109665694E+02  0.41800000000E+01 0.  1.
        -11    1    1    2    0    0 -0.53913378402E+02 -0.11383124627E+02 -0.11161162019E+03  0.12447241325E+03  0.00000000000E+00 0.  1.
         11    1    1    2    0    0  0.24807937404E+02 -0.55676560320E+02 -0.10503949180E+03  0.12144384696E+03  0.00000000000E+00 0. -1.
</event>
<event>
 7    1  0.2601031E-009  0.1294990E+03  0.7561462E-02  0.1228201E+00
          1   -1    0    0  501    0  0.00000000000E+00  0.00000000000E+00  0.66608255443E+03  0.66608255443E+03  0.00000000000E+00 0. -1.
         -1   -1    0    0    0  501 -0.00000000000E+00 -0.00000000000E+00 -0.31556370921E+02  0.31556370921E+02  0.00000000000E+00 0.  1.
         25    2    1    2    0    0  0.65345695439E+02  0.50592502937E+02  0.44805863198E+03  0.47247578067E+03  0.12508862602E+03 0.  0.
          5    1    3    3  502    0  0.69081058279E+02 -0.24147099026E+02  0.25679416439E+03  0.26705053880E+03  0.41800000000E+01 0. -1.
         -5    1    3    3    0  502 -0.37353628397E+01  0.74739601963E+02  0.19126446759E+03  0.20542524187E+03  0.41800000000E+01 0. -1.
        -11    1    1    2    0    0 -0.67084026797E+02 -0.73650244624E+01  0.55954122407E+02  0.87666265182E+02  0.00000000000E+00 0.  1.
         11    1    1    2    0    0  0.17383313581E+01 -0.43227478474E+02  0.13051342912E+03  0.13749687950E+03  0.00000000000E+00 0. -1.
</event>
<event>
 7    1  0.2601031E-009  0.1140649E+03  0.7561462E-02  0.1253222E+00
         -3   -1    0    0    0  501 -0.00000000000E+00  0.00000000000E+00  0.45411777515E+02  0.45411777515E+02  0.00000000000E+00 0.  1.
          3   -1    0    0  501    0  0.00000000000E+00 -0.00000000000E+00 -0.67821334123E+03  0.67821334123E+03  0.00000000000E+00 0. -1.
         25    2    1    2    0    0 -0.89654719823E+02 -0.17987327823E+02 -0.54760338207E+03  0.56910354528E+03  0.12509144034E+03 0.  0.
          5    1    3    3  502    0 -0.13026163627E+02  0.35440537780E+02 -0.33106455424E+03  0.33323703895E+03  0.41800000000E+01 0.  1.
         -5    1    3    3    0  502 -0.76628556196E+02 -0.53427865603E+02 -0.21653882783E+03  0.23586650632E+03  0.41800000000E+01 0.  1.
        -11    1    1    2    0    0  0.53845031945E+02 -0.50030034327E+01 -0.96387197449E+02  0.11052062857E+03  0.00000000000E+00 0. -1.
         11    1    1    2    0    0  0.35809687878E+02  0.22990331255E+02  0.11189015800E+02  0.44000944896E+02  0.00000000000E+00 0.  1.
</event>
<event>
 7    1  0.2601031E-009  0.2458098E+03  0.7561462E-02  0.1115982E+00
         -2   -1    0    0    0  501 -0.00000000000E+00  0.00000000000E+00  0.63077055994E+02  0.63077055994E+02  0.00000000000E+00 0.  1.
          2   -1    0    0  501    0  0.00000000000E+00 -0.00000000000E+00 -0.12200763328E+04  0.12200763328E+04  0.00000000000E+00 0. -1.
         25    2    1    2    0    0 -0.18225517864E+03  0.13912189637E+03 -0.84304505021E+03  0.88257899350E+03  0.12509544715E+03 0.  0.
          5    1    3    3  502    0 -0.43426689800E+02  0.11081713437E+03 -0.36229544548E+03  0.38136829558E+03  0.41800000000E+01 0. -1.
         -5    1    3    3    0  502 -0.13882848884E+03  0.28304762000E+02 -0.48074960472E+03  0.50121069792E+03  0.41800000000E+01 0. -1.
        -11    1    1    2    0    0  0.11831758187E+03 -0.74208161940E+02 -0.11202465887E+03  0.17904029064E+03  0.00000000000E+00 0.  1.
         11    1    1    2    0    0  0.63937596776E+02 -0.64913734432E+02 -0.20192956770E+03  0.22153410462E+03  0.00000000000E+00 0. -1.
</event>
<event>
 7    1  0.2601031E-009  0.2209957E+03  0.7561462E-02  0.1133143E+00
         -2   -1    0    0    0  501 -0.00000000000E+00  0.00000000000E+00  0.26893575271E+03  0.26893575271E+03  0.00000000000E+00 0.  1.
          2   -1    0    0  501    0  0.00000000000E+00 -0.00000000000E+00 -0.22590934884E+03  0.22590934884E+03  0.00000000000E+00 0. -1.
         25    2    1    2    0    0  0.82507832450E+01 -0.20145060542E+03 -0.68123344146E+02  0.24685810164E+03  0.12509080893E+03 0.  0.
          5    1    3    3  502    0 -0.50455208716E+02 -0.48194042911E+02 -0.39263998681E+02  0.80171864460E+02  0.41800000000E+01 0. -1.
         -5    1    3    3    0  502  0.58705991961E+02 -0.15325656251E+03 -0.28859345465E+02  0.16668623718E+03  0.41800000000E+01 0. -1.
        -11    1    1    2    0    0  0.99606783228E+01  0.17777580087E+03  0.12240214461E+03  0.21606882119E+03  0.00000000000E+00 0.  1.
         11    1    1    2    0    0 -0.18211461568E+02  0.23674804553E+02 -0.11252396594E+02  0.31918178710E+02  0.00000000000E+00 0. -1.
</event>
<event>
 7    1  0.2601031E-009  0.1852097E+03  0.7561462E-02  0.1162854E+00
         -2   -1    0    0    0  501 -0.00000000000E+00  0.00000000000E+00  0.84924289315E+02  0.84924289315E+02  0.00000000000E+00 0.  1.
          2   -1    0    0  501    0  0.00000000000E+00 -0.00000000000E+00 -0.75950747297E+03  0.75950747297E+03  0.00000000000E+00 0. -1.
         25    2    1    2    0    0 -0.15701139539E+03  0.52221239112E+02 -0.82956558857E+02  0.22340411961E+03  0.12509186187E+03 0.  0.
          5    1    3    3  502    0 -0.12905964123E+03  0.73222536440E+02 -0.18016828461E+02  0.14953263638E+03  0.41800000000E+01 0. -1.
         -5    1    3    3    0  502 -0.27951754159E+02 -0.21001297328E+02 -0.64939730396E+02  0.73871483226E+02  0.41800000000E+01 0. -1.
        -11    1    1    2    0    0  0.15071201019E+03 -0.17785604049E+02 -0.51264177937E+03  0.53463261375E+03  0.00000000000E+00 0. -1.
         11    1    1    2    0    0  0.62993851990E+01 -0.34435635063E+02 -0.78984845424E+02  0.86395028923E+02  0.00000000000E+00 0.  1.
</event>
<event>
 7    1  0.2601031E-009  0.1098931E+03  0.7561462E-02  0.1260768E+00
          1   -1    0    0  501    0  0.00000000000E+00  0.00000000000E+00  0.18173044163E+03  0.18173044163E+03  0.00000000000E+00 0. -1.
         -1   -1    0    0    0  501 -0.00000000000E+00 -0.00000000000E+00 -0.73447963542E+02  0.73447963542E+02  0.00000000000E+00 0.  1.
         25    2    1    2    0    0 -0.35896844796E+01  0.41853842823E+02  0.80643661110E+02  0.15464589162E+03  0.12508925503E+03 0.  0.
          5    1    3    3  502    0  0.18295168363E+02 -0.37856281738E+02  0.52137538202E+02  0.67108915520E+02  0.41800000000E+01 0. -1.
         -5    1    3    3    0  502 -0.21884852842E+02  0.79710124561E+02  0.28506122908E+02  0.87536976100E+02  0.41800000000E+01 0. -1.
        -11    1    1    2    0    0 -0.36635853535E+02 -0.40369805467E+02  0.60340135601E+01  0.54848120089E+02  0.00000000000E+00 0.  1.
         11    1    1    2    0    0  0.40225538015E+02 -0.14840373555E+01  0.21604803418E+02  0.45684393464E+02  0.00000000000E+00 0. -1.
</event>
<event>
 7    1  0.2601031E-009  0.2758692E+03  0.7561462E-02  0.1097967E+00
         -4   -1    0    0    0  501 -0.00000000000E+00  0.00000000000E+00  0.61325274443E+02  0.61325274443E+02  0.00000000000E+00 0. -1.
          4   -1    0    0  501    0  0.00000000000E+00 -0.00000000000E+00 -0.13928999542E+04  0.13928999542E+04  0.00000000000E+00 0.  1.
         25    2    1    2    0    0 -0.16441966807E+03 -0.20891193914E+03 -0.84360522153E+03  0.89330567589E+03  0.12508890921E+03 0.  0.
          5    1    3    3  502    0  0.14312218006E+02 -0.79098872708E+01 -0.12251807851E+03  0.12367521119E+03  0.41800000000E+01 0.  1.
         -5    1    3    3    0  502 -0.17873188608E+03 -0.20100205187E+03 -0.72108714302E+03  0.76963046470E+03  0.41800000000E+01 0.  1.
        -11    1    1    2    0    0  0.14888116649E+03  0.18896815221E+03 -0.37784459719E+03  0.44792979797E+03  0.00000000000E+00 0. -1.
         11    1    1    2    0    0  0.15538501588E+02  0.19943786924E+02 -0.11012486100E+03  0.11298975475E+03  0.00000000000E+00 0.  1.
</event>
<event>
 7    1  0.2601031E-009  0.9560758E+02  0.7561462E-02  0.1289814E+00
         -2   -1    0    0    0  501 -0.00000000000E+00  0.00000000000E+00  0.27922548870E+02  0.27922548870E+02  0.00000000000E+00 0. -1.
          2   -1    0    0  501    0  0.00000000000E+00 -0.00000000000E+00 -0.64365996947E+03  0.64365996947E+03  0.00000000000E+00 0.  1.
         25    2    1    2    0    0 -0.70802434623E+02 -0.59386473777E+01 -0.38678817611E+03  0.41267566907E+03  0.12509141611E+03 0.  0.
          5    1    3    3  502    0 -0.19861273843E+02 -0.11003469367E+02 -0.60842418306E+00  0.23095218483E+02  0.41800000000E+01 0. -1.
         -5    1    3    3    0  502 -0.50941160780E+02  0.50648219895E+01 -0.38617975192E+03  0.38958045059E+03  0.41800000000E+01 0. -1.
        -11    1    1    2    0    0  0.80514446429E+02 -0.25025274246E+02 -0.19220134626E+03  0.20988139017E+03  0.00000000000E+00 0.  1.
         11    1    1    2    0    0 -0.97120118053E+01  0.30963921624E+02 -0.36747898230E+02  0.49025459100E+02  0.00000000000E+00 0. -1.
</event>
<event>
 7    1  0.2601031E-009  0.1821142E+03  0.7561462E-02  0.1165772E+00
          1   -1    0    0  501    0  0.00000000000E+00  0.00000000000E+00  0.22649631676E+03  0.22649631676E+03  0.00000000000E+00 0. -1.
         -1   -1    0    0    0  501 -0.00000000000E+00 -0.00000000000E+00 -0.18347127925E+03  0.18347127925E+03  0.00000000000E+00 0.  1.
         25    2    1    2    0    0  0.31396442863E+02  0.16688234498E+03  0.51363210943E+02  0.21707366632E+03  0.12508934200E+03 0.  0.
          5    1    3    3  502    0 -0.26990307011E+02  0.90286659774E+02  0.71780592743E+02  0.11853304814E+03  0.41800000000E+01 0.  1.
         -5    1    3    3    0  502  0.58386749874E+02  0.76595685206E+02 -0.20417381801E+02  0.98540618187E+02  0.41800000000E+01 0.  1.
        -11    1    1    2    0    0 -0.14774441422E+02 -0.14629440382E+03 -0.39266350854E+02  0.15219127116E+03  0.00000000000E+00 0.  1.
         11    1    1    2    0    0 -0.16622001440E+02 -0.20587941158E+02  0.30928177413E+02  0.40702658526E+02  0.00000000000E+00 0. -1.
</event>
<event>
 7    1  0.2601031E-009  0.1402565E+03  0.7561462E-02  0.1212984E+00
          1   -1    0    0  501    0  0.00000000000E+00  0.00000000000E+00  0.62023578107E+03  0.62023578107E+03  0.00000000000E+00 0. -1.
         -1   -1    0    0    0  501 -0.00000000000E+00 -0.00000000000E+00 -0.35604117009E+02  0.35604117009E+02  0.00000000000E+00 0.  1.
         25    2    1    2    0    0 -0.79247927457E+02 -0.48960756697E+02  0.23201164064E+03  0.27956138141E+03  0.12509106636E+03 0.  0.
          5    1    3    3  502    0  0.28135850172E+02 -0.30904996359E+02  0.36107958223E+02  0.55389546955E+02  0.41800000000E+01 0. -1.
         -5    1    3    3    0  502 -0.10738377763E+03 -0.18055760337E+02  0.19590368241E+03  0.22417183445E+03  0.41800000000E+01 0. -1.
        -11    1    1    2    0    0  0.66546268199E+02  0.75182350801E+02  0.29662554498E+03  0.31315731768E+03  0.00000000000E+00 0.  1.
         11    1    1    2    0    0  0.12701659258E+02 -0.26221594104E+02  0.55994478442E+02  0.63121198984E+02  0.00000000000E+00 0. -1.
</event>
<event>
 7    1  0.2601031E-009  0.9438175E+02  0.7561462E-02  0.1292575E+00
          2   -1    0    0  501    0  0.00000000000E+00  0.00000000000E+00  0.50023329399E+02  0.50023329399E+02  0.00000000000E+00 0. -1.
         -2   -1    0    0    0  501 -0.00000000000E+00 -0.00000000000E+00 -0.23756712233E+03  0.23756712233E+03  0.00000000000E+00 0.  1.
         25    2    1    2    0    0 -0.42583902176E+01 -0.14646864432E+02 -0.10350740376E+03  0.16307633301E+03  0.12508974071E+03 0.  0.
          5    1    3    3  502    0  0.42378425889E+02 -0.35441363613E+02 -0.97792477321E+01  0.56259464287E+02  0.41800000000E+01 0.  1.
         -5    1    3    3    0  502 -0.46636816107E+02  0.20794499182E+02 -0.93728156023E+02  0.10681686873E+03  0.41800000000E+01 0.  1.
        -11    1    1    2    0    0 -0.38273679395E+02  0.65026428857E+01 -0.12306899532E+02  0.40726142403E+02  0.00000000000E+00 0. -1.
         11    1    1    2    0    0  0.42532069613E+02  0.81442215458E+01 -0.71729489648E+02  0.83787976317E+02  0.00000000000E+00 0.  1.
</event>
<event>
 7    1  0.2601031E-009  0.2036750E+03  0.7561462E-02  0.1146675E+00
         -1   -1    0    0    0  501 -0.00000000000E+00  0.00000000000E+00  0.73027044965E+02  0.73027044965E+02  0.00000000000E+00 0.  1.
          1   -1    0    0  501    0  0.00000000000E+00 -0.00000000000E+00 -0.66324931974E+03  0.66324931974E+03  0.00000000000E+00 0. -1.
         25    2    1    2    0    0 -0.15921587189E+03 -0.99240340198E+02 -0.24759687445E+03  0.33488776613E+03  0.12508902701E+03 0.  0.
          5    1    3    3  502    0  0.16445283406E+02 -0.16401625620E+02 -0.50428602574E+01  0.24132208951E+02  0.41800000000E+01 0. -1.
         -5    1    3    3    0  502 -0.17566115530E+03 -0.82838714578E+02 -0.24255401420E+03  0.31075555718E+03  0.41800000000E+01 0. -1.
        -11    1    1    2    0    0  0.65880124092E+02  0.25898515886E+02 -0.53150148920E+02  0.88520405589E+02  0.00000000000E+00 0.  1.
         11    1    1    2    0    0  0.93335747798E+02  0.73341824313E+02 -0.28947525140E+03  0.31286819299E+03  0.00000000000E+00 0. -1.
</event>
<event>
 7    1  0.2601031E-009  0.1412417E+03  0.7561462E-02  0.1211668E+00
         -2   -1    0    0    0  501 -0.00000000000E+00  0.00000000000E+00  0.76788174359E+02  0.76788174359E+02  0.00000000000E+00 0.  1.
          2   -1    0    0  501    0  0.00000000000E+00 -0.00000000000E+00 -0.43229305879E+03  0.43229305879E+03  0.00000000000E+00 0. -1.
         25    2    1    2    0    0  0.11461157750E+03  0.68686392304E+02 -0.10546558256E+03  0.21124399977E+03  0.12508958450E+03 0.  0.
          5    1    3    3  502    0  0.68204631362E+02  0.53330456219E+02  0.85700018886E+01  0.87102965691E+02  0.41800000000E+01 0.  1.
         -5    1    3    3    0  502  0.46406946136E+02  0.15355936085E+02 -0.11403558444E+03  0.12414103408E+03  0.41800000000E+01 0.  1.
        -11    1    1    2    0    0 -0.22306327422E+02  0.10934840811E+02 -0.67914883877E+01  0.25753976414E+02  0.00000000000E+00 0.  1.
         11    1    1    2    0    0 -0.92305250076E+02 -0.79621233115E+02 -0.24324781349E+03  0.27208325697E+03  0.00000000000E+00 0. -1.
</event>
<event>
 7    1  0.2601031E-009  0.6094511E+02  0.7561462E-02  0.1393908E+00
          1   -1    0    0  501    0  0.00000000000E+00  0.00000000000E+00  0.31370316490E+03  0.31370316490E+03  0.00000000000E+00 0. -1.
         -1   -1    0    0    0  501 -0.00000000000E+00 -0.00000000000E+00 -0.54921721588E+02  0.54921721588E+02  0.00000000000E+00 0.  1.
         25    2    1    2    0    0  0.52709923596E+02 -0.80804245445E+00  0.18855880190E+03  0.23233956417E+03  0.12509301470E+03 0.  0.
          5    1    3    3  502    0  0.40916528358E+02  0.45739330683E+01  0.20605337610E+03  0.21016790753E+03  0.41800000000E+01 0.  1.
         -5    1    3    3    0  502  0.11793395239E+02 -0.53819755228E+01 -0.17494574194E+02  0.22171656637E+02  0.41800000000E+01 0.  1.
        -11    1    1    2    0    0 -0.15243711912E+02 -0.19117813137E+02 -0.23181553110E+02  0.33693410878E+02  0.00000000000E+00 0.  1.
         11    1    1    2    0    0 -0.37466211684E+02  0.19925855591E+02  0.93404194515E+02  0.10259191144E+03  0.00000000000E+00 0. -1.
</event>
<event>
 7    1  0.2601031E-009  0.1210312E+03  0.7561462E-02  0.1241405E+00
          2   -1    0    0  501    0  0.00000000000E+00  0.00000000000E+00  0.67603407009E+03  0.67603407009E+03  0.00000000000E+00 0. -1.
         -2   -1    0    0    0  501 -0.00000000000E+00 -0.00000000000E+00 -0.22915290307E+02  0.22915290307E+02  0.00000000000E+00 0.  1.
         25    2    1    2    0    0  0.15430060110E+01  0.60731162970E+02  0.38727753102E+03  0.41149008281E+03  0.12509815023E+03 0.  0.
          5    1    3    3  502    0  0.22167654793E+02 -0.31379791241E+02  0.64736293994E+02  0.75394670750E+02  0.41800000000E+01 0. -1.
         -5    1    3    3    0  502 -0.20624648782E+02  0.92110954210E+02  0.32254123703E+03  0.33609541206E+03  0.41800000000E+01 0. -1.
        -11    1    1    2    0    0  0.37446391913E+02 -0.82590050811E+00  0.10392513422E+03  0.11046876437E+03  0.00000000000E+00 0. -1.
         11    1    1    2    0    0 -0.38989397924E+02 -0.59905262462E+02  0.16191611454E+03  0.17699051322E+03  0.00000000000E+00 0.  1.
</event>
<event>
 7    1  0.2601031E-009  0.1270401E+03  0.7561462E-02  0.1231915E+00
          3   -1    0    0  501    0  0.00000000000E+00  0.00000000000E+00  0.84455994362E+03  0.84455994362E+03  0.00000000000E+00 0. -1.
         -3   -1    0    0    0  501 -0.00000000000E+00 -0.00000000000E+00 -0.20920594320E+02  0.20920594320E+02  0.00000000000E+00 0.  1.
         25    2    1    2    0    0 -0.41322736148E+02 -0.60726873344E+02  0.54386059107E+03  0.56287397042E+03  0.12508973735E+03 0.  0.
          5    1    3    3  502    0  0.44445514284E+02 -0.14184022781E+02  0.19989214624E+03  0.20530692334E+03  0.41800000000E+01 0. -1.
         -5    1    3    3    0  502 -0.85768250433E+02 -0.46542850563E+02  0.34396844482E+03  0.35756704708E+03  0.41800000000E+01 0. -1.
        -11    1    1    2    0    0  0.64650277887E+02  0.30771335353E+02  0.22373945870E+03  0.23491674885E+03  0.00000000000E+00 0.  1.
         11    1    1    2    0    0 -0.23327541738E+02  0.29955537991E+02  0.56039299533E+02  0.67689818673E+02  0.00000000000E+00 0. -1.
</event>
<event>
 7    1  0.2601031E-009  0.1476398E+03  0.7561462E-02  0.1203404E+00
          2   -1    0    0  501    0  0.00000000000E+00  0.00000000000E+00  0.45429860950E+03  0.45429860950E+03  0.00000000000E+00 0. -1.
         -2   -1    0    0    0  501 -0.00000000000E+00 -0.00000000000E+00 -0.60111966218E+02  0.60111966218E+02  0.00000000000E+00 0.  1.
         25    2    1    2    0    0 -0.49308362751E+02  0.94994190714E+02  0.10971458992E+03  0.19783899611E+03  0.12509103179E+03 0.  0.
          5    1    3    3  502    0  0.52679704741E+01 -0.25940849291E+02  0.39319125843E+02  0.47583035127E+02  0.41800000000E+01 0.  1.
         -5    1    3    3    0  502 -0.54576333225E+02  0.12093504000E+03  0.70395464080E+02  0.15025596099E+03  0.41800000000E+01 0.  1.
        -11    1    1    2    0    0  0.69714550980E+02 -0.91500948055E+02  0.21197255400E+03  0.24117401552E+03  0.00000000000E+00 0.  1.
         11    1    1    2    0    0 -0.20406188229E+02 -0.34932426591E+01  0.72499499361E+02  0.75397564085E+02  0.00000000000E+00 0. -1.
</event>
<event>
 7    1  0.2767165E-009  0.1321556E+03  0.7561462E-02  0.1224292E+00
         -2   -1    0    0    0  501 -0.00000000000E+00  0.00000000000E+00  0.17582315919E+02  0.17582315919E+02  0.00000000000E+00 0.  1.
          2   -1    0    0  501    0  0.00000000000E+00 -0.00000000000E+00 -0.20763637005E+04  0.20763637005E+04  0.00000000000E+00 0. -1.
         25    2    1    2    0    0  0.46277177261E+02 -0.98346424381E+02 -0.16971814492E+04  0.17052531971E+04  0.12509995346E+03 0.  0.
          5    1    3    3  502    0 -0.10256723585E+02 -0.59306114169E+02 -0.13481653801E+04  0.13495146461E+04  0.41800000000E+01 0.  1.
         -5    1    3    3    0  502  0.56533900846E+02 -0.39040310211E+02 -0.34901606911E+03  0.35573855099E+03  0.41800000000E+01 0.  1.
        -11    1    1    2    0    0  0.20051997755E+02  0.47544359787E+02 -0.82065436988E+02  0.96939593096E+02  0.00000000000E+00 0.  1.
         11    1    1    2    0    0 -0.66329175016E+02  0.50802064593E+02 -0.27953449838E+03  0.29175322622E+03  0.00000000000E+00 0. -1.
</event>
<event>
 7    1  0.2601031E-009  0.1342933E+03  0.7561462E-02  0.1221221E+00
          1   -1    0    0  501    0  0.00000000000E+00  0.00000000000E+00  0.17522816653E+03  0.17522816653E+03  0.00000000000E+00 0. -1.
         -1   -1    0    0    0  501 -0.00000000000E+00 -0.00000000000E+00 -0.10812844236E+03  0.10812844236E+03  0.00000000000E+00 0.  1.
         25    2    1    2    0    0 -0.85506966258E+02  0.56099956110E+01  0.48971509528E+02  0.15933117073E+03  0.12508117320E+03 0.  0.
          5    1    3    3  502    0 -0.49635494444E+02 -0.57146626849E+02  0.41805808707E+02  0.86571457829E+02  0.41800000000E+01 0.  1.
         -5    1    3    3    0  502 -0.35871471814E+02  0.62756622460E+02  0.71657008213E+01  0.72759712898E+02  0.41800000000E+01 0.  1.
        -11    1    1    2    0    0  0.55962546666E+01  0.31693360577E+02  0.15686192852E+02  0.35802846495E+02  0.00000000000E+00 0. -1.
         11    1    1    2    0    0  0.79910711592E+02 -0.37303356188E+02  0.24420217826E+01  0.88222591666E+02  0.00000000000E+00 0.  1.
</event>
<event>
 7    1  0.2601031E-009  0.1686790E+03  0.7561462E-02  0.1179232E+00
         -1   -1    0    0    0  501 -0.00000000000E+00  0.00000000000E+00  0.32584112243E+03  0.32584112243E+03  0.00000000000E+00 0.  1.
          1   -1    0    0  501    0  0.00000000000E+00 -0.00000000000E+00 -0.14340237025E+03  0.14340237025E+03  0.00000000000E+00 0. -1.
         25    2    1    2    0    0 -0.51564000937E+02 -0.12690783855E+03 -0.43126413681E+02  0.19045482882E+03  0.12509479839E+03 0.  0.
          5    1    3    3  502    0  0.36334923869E+01  0.19838578211E+02 -0.25271311782E+02  0.32601887239E+02  0.41800000000E+01 0.  1.
         -5    1    3    3    0  502 -0.55197493324E+02 -0.14674641676E+03 -0.17855101899E+02  0.15785294158E+03  0.41800000000E+01 0.  1.
        -11    1    1    2    0    0 -0.21191440162E+02  0.48663746202E+02  0.10528397415E+03  0.11790654156E+03  0.00000000000E+00 0.  1.
         11    1    1    2    0    0  0.72755441099E+02  0.78244092346E+02  0.12028119171E+03  0.16088212230E+03  0.00000000000E+00 0. -1.
</event>
<event>
 7    1  0.2601031E-009  0.1463034E+03  0.7561462E-02  0.1205090E+00
          2   -1    0    0  501    0  0.00000000000E+00  0.00000000000E+00  0.11118802594E+04  0.11118802594E+04  0.00000000000E+00 0. -1.
         -2   -1    0    0    0  501 -0.00000000000E+00 -0.00000000000E+00 -0.43558089127E+02  0.43558089127E+02  0.00000000000E+00 0.  1.
         25    2    1    2    0    0 -0.11332560866E+03 -0.44641797653E+02  0.93677175113E+03  0.95290261625E+03  0.12508596508E+03 0.  0.
          5    1    3    3  502    0 -0.99998286464E+02 -0.61104981938E+02  0.91411728483E+03  0.92160802890E+03  0.41800000000E+01 0.  1.
         -5    1    3    3    0  502 -0.13327322194E+02  0.16463184286E+02  0.22654466299E+02  0.31294587343E+02  0.41800000000E+01 0.  1.
        -11    1    1    2    0    0  0.56201832228E+01 -0.24913823187E+02  0.26247976068E+02  0.36622961280E+02  0.00000000000E+00 0.  1.
         11    1    1    2    0    0  0.10770542543E+03  0.69555620840E+02  0.10530244304E+03  0.16591277096E+03  0.00000000000E+00 0. -1.
</event>
<event>
 7    1  0.2601031E-009  0.9020434E+02  0.7561462E-02  0.1302358E+00
          2   -1    0    0  501    0  0.00000000000E+00  0.00000000000E+00  0.97231168982E+03  0.97231168982E+03  0.00000000000E+00 0. -1.
         -2   -1    0    0    0  501 -0.00000000000E+00 -0.00000000000E+00 -0.15567993621E+02  0.15567993621E+02  0.00000000000E+00 0.  1.
         25    2    1    2    0    0  0.23453352820E+01  0.29297061485E+02  0.74192610840E+03  0.75296945652E+03  0.12507930970E+03 0.  0.
          5    1    3    3  502    0  0.10685855800E+02 -0.40121179733E+02  0.48097075058E+03  0.48277762157E+03  0.41800000000E+01 0.  1.
         -5    1    3    3    0  502 -0.83405205176E+01  0.69418241219E+02  0.26095535782E+03  0.27019183495E+03  0.41800000000E+01 0.  1.
        -11    1    1    2    0    0  0.14668754115E+02  0.15123730080E+02  0.77497798497E+01  0.22449023287E+02  0.00000000000E+00 0.  1.
         11    1    1    2    0    0 -0.17014089397E+02 -0.44420791566E+02  0.20706780794E+03  0.21246120363E+03  0.00000000000E+00 0. -1.
</event>
<event>
 7    1  0.2601031E-009  0.1060339E+03  0.7561462E-02  0.1268096E+00
          2   -1    0    0  501    0  0.00000000000E+00  0.00000000000E+00  0.25049393856E+03  0.25049393856E+03  0.00000000000E+00 0. -1.
         -2   -1    0    0    0  501 -0.00000000000E+00 -0.00000000000E+00 -0.49403298933E+02  0.49403298933E+02  0.00000000000E+00 0.  1.
         25    2    1    2    0    0 -0.11463439344E+02 -0.63934838842E+02  0.11150606293E+03  0.17972177802E+03  0.12508893383E+03 0.  0.
          5    1    3    3  502    0  0.52175466700E+02 -0.37543068221E+02  0.25098199802E+02  0.69131420715E+02  0.41800000000E+01 0. -1.
         -5    1    3    3    0  502 -0.63638906044E+02 -0.26391770621E+02  0.86407863124E+02  0.11059035730E+03  0.41800000000E+01 0. -1.
        -11    1    1    2    0    0 -0.82144944957E+01  0.57270116383E+02  0.75310679268E+02  0.94968639888E+02  0.00000000000E+00 0. -1.
         11    1    1    2    0    0  0.19677933840E+02  0.66647224596E+01  0.14273897430E+02  0.25206819583E+02  0.00000000000E+00 0.  1.
</event>
<event>
 7    1  0.2601031E-009  0.1121810E+03  0.7561462E-02  0.1256584E+00
          2   -1    0    0  501    0  0.00000000000E+00  0.00000000000E+00  0.15340578432E+03  0.15340578432E+03  0.00000000000E+00 0.  1.
         -2   -1    0    0    0  501 -0.00000000000E+00 -0.00000000000E+00 -0.89741009681E+02  0.89741009681E+02  0.00000000000E+00 0. -1.
         25    2    1    2    0    0  0.37526197730E+02  0.55135175497E+01  0.12575710285E+02  0.13131949998E+03  0.12509215881E+03 0.  0.
          5    1    3    3  502    0 -0.24006639022E+02  0.49203720966E+02  0.14752546590E+01  0.54926984719E+02  0.41800000000E+01 0. -1.
         -5    1    3    3    0  502  0.61532836752E+02 -0.43690203416E+02  0.11100455626E+02  0.76392515264E+02  0.41800000000E+01 0. -1.
        -11    1    1    2    0    0  0.36640654967E+01 -0.39990513395E+02  0.40585292650E+02  0.57094943007E+02  0.00000000000E+00 0. -1.
         11    1    1    2    0    0 -0.41190263227E+02  0.34476995845E+02  0.10503771705E+02  0.54732351011E+02  0.00000000000E+00 0.  1.
</event>
<event>
 7    1  0.2601031E-009  0.1316186E+03  0.7561462E-02  0.1225074E+00
         -1   -1    0    0    0  501 -0.00000000000E+00  0.00000000000E+00  0.20652729799E+03  0.20652729799E+03  0.00000000000E+00 0.  1.
          1   -1    0    0  501    0  0.00000000000E+00 -0.00000000000E+00 -0.11690404587E+03  0.11690404587E+03  0.00000000000E+00 0. -1.
         25    2    1    2    0    0  0.83913618717E+02  0.73476853706E+02  0.49293670720E+02  0.17469381477E+03  0.12509084503E+03 0.  0.
          5    1    3    3  502    0  0.68288565146E+02  0.30951047892E+02  0.87484176892E+02  0.11529201664E+03  0.41800000000E+01 0. -1.
         -5    1    3    3    0  502  0.15625053571E+02  0.42525805814E+02 -0.38190506172E+02  0.59401798128E+02  0.41800000000E+01 0. -1.
        -11    1    1    2    0    0  0.21582170133E+01 -0.54456488685E+02  0.21585713469E+02  0.58618342577E+02  0.00000000000E+00 0.  1.
         11    1    1    2    0    0 -0.86071835730E+02 -0.19020365021E+02  0.18743867936E+02  0.90119186507E+02  0.00000000000E+00 0. -1.
</event>
<event>
 7    1  0.2601031E-009  0.1494940E+03  0.7561462E-02  0.1201096E+00
         -2   -1    0    0    0  501 -0.00000000000E+00  0.00000000000E+00  0.28452508362E+02  0.28452508362E+02  0.00000000000E+00 0.  1.
          2   -1    0    0  501    0  0.00000000000E+00 -0.00000000000E+00 -0.78978311235E+03  0.78978311235E+03  0.00000000000E+00 0. -1.
         25    2    1    2    0    0  0.91197470553E+02  0.48525834870E+02 -0.40486677136E+03  0.43616140615E+03  0.12509170386E+03 0.  0.
          5    1    3    3  502    0  0.27796342889E+02 -0.42213069747E+02 -0.10844931549E+03  0.11972178735E+03  0.41800000000E+01 0.  1.
         -5    1    3    3    0  502  0.63401127664E+02  0.90738904617E+02 -0.29641745587E+03  0.31643961880E+03  0.41800000000E+01 0.  1.
        -11    1    1    2    0    0  0.18557766337E+02 -0.35921962115E+01 -0.51800852437E+02  0.55141843261E+02  0.00000000000E+00 0.  1.
         11    1    1    2    0    0 -0.10975523689E+03 -0.44933638659E+02 -0.30466298019E+03  0.32693237130E+03  0.00000000000E+00 0. -1.
</event>
<event>
 7    1  0.2601031E-009  0.8963432E+02  0.7561462E-02  0.1303740E+00
          2   -1    0    0  501    0  0.00000000000E+00  0.00000000000E+00  0.17054031057E+04  0.17054031057E+04  0.00000000000E+00 0. -1.
         -2   -1    0    0    0  501 -0.00000000000E+00 -0.00000000000E+00 -0.13696479272E+02  0.13696479272E+02  0.00000000000E+00 0.  1.
         25    2    1    2    0    0  0.63378969429E+02  0.19289426569E+02  0.13886891397E+04  0.13958845898E+04  0.12508911083E+03 0.  0.
          5    1    3    3  502    0  0.45032448802E+01  0.15706048922E+02  0.21073573860E+02  0.26991241217E+02  0.41800000000E+01 0.  1.
         -5    1    3    3    0  502  0.58875724549E+02  0.35833776469E+01  0.13676155658E+04  0.13688933486E+04  0.41800000000E+01 0.  1.
        -11    1    1    2    0    0  0.21987843431E+01 -0.35622095689E+02  0.17342772956E+03  0.17706198275E+03  0.00000000000E+00 0. -1.
         11    1    1    2    0    0 -0.65577753772E+02  0.16332669121E+02  0.12958975715E+03  0.14615301238E+03  0.00000000000E+00 0.  1.
</event>
<event>
 7    1  0.2601031E-009  0.1547764E+03  0.7561462E-02  0.1194724E+00
          2   -1    0    0  501    0  0.00000000000E+00  0.00000000000E+00  0.21517487777E+04  0.21517487777E+04  0.00000000000E+00 0.  1.
         -2   -1    0    0    0  501 -0.00000000000E+00 -0.00000000000E+00 -0.13397382465E+02  0.13397382465E+02  0.00000000000E+00 0. -1.
         25    2    1    2    0    0 -0.12899986704E+03 -0.12063839025E+02  0.12621061699E+04  0.12748903379E+04  0.12508752058E+03 0.  0.
          5    1    3    3  502    0 -0.12758729381E+03 -0.32230597030E+02  0.69219273806E+03  0.70460314216E+03  0.41800000000E+01 0. -1.
         -5    1    3    3    0  502 -0.14125732345E+01  0.20166758005E+02  0.56991343180E+03  0.57028719575E+03  0.41800000000E+01 0. -1.
        -11    1    1    2    0    0  0.10628466325E+03 -0.29131199668E+02  0.62637676576E+03  0.63599757006E+03  0.00000000000E+00 0. -1.
         11    1    1    2    0    0  0.22715203787E+02  0.41195038693E+02  0.24986845962E+03  0.25425825220E+03  0.00000000000E+00 0.  1.
</event>
<event>
 7    1  0.2601031E-009  0.9377435E+02  0.7561462E-02  0.1293961E+00
          2   -1    0    0  501    0  0.00000000000E+00  0.00000000000E+00  0.23601366241E+02  0.23601366241E+02  0.00000000000E+00 0. -1.
         -2   -1    0    0    0  501 -0.00000000000E+00 -0.00000000000E+00 -0.11847283929E+04  0.11847283929E+04  0.00000000000E+00 0.  1.
         25    2    1    2    0    0 -0.31397089866E+01  0.29703656768E+02 -0.10645598579E+04  0.10722982984E+04  0.12507511637E+03 0.  0.
          5    1    3    3  502    0  0.39005412972E+02  0.46280127811E+02 -0.88468377161E+03  0.88676159176E+03  0.41800000000E+01 0. -1.
         -5    1    3    3    0  502 -0.42145121959E+02 -0.16576471043E+02 -0.17987608624E+03  0.18553670661E+03  0.41800000000E+01 0. -1.
        -11    1    1    2    0    0 -0.27625082284E+02 -0.40301164055E+02 -0.19922754170E+02  0.52765946680E+02  0.00000000000E+00 0. -1.
         11    1    1    2    0    0  0.30764791270E+02  0.10597507287E+02 -0.76644414684E+02  0.83265514139E+02  0.00000000000E+00 0.  1.
</event>
<event>
 7    1  0.2601031E-009  0.1391957E+03  0.7561462E-02  0.1214415E+00
         -2   -1    0    0    0  501 -0.00000000000E+00  0.00000000000E+00  0.14748223234E+03  0.14748223234E+03  0.00000000000E+00 0. -1.
          2   -1    0    0  501    0  0.00000000000E+00 -0.00000000000E+00 -0.22686380859E+03  0.22686380859E+03  0.00000000000E+00 0.  1.
         25    2    1    2    0    0  0.91434583508E+02  0.36254726122E+02  0.69613403178E+02  0.17368479088E+03  0.12508274242E+03 0.  0.
          5    1    3    3  502    0 -0.57146252881E+01  0.57418816166E+02  0.38205770500E+02  0.69330589869E+02  0.41800000000E+01 0.  1.
         -5    1    3    3    0  502  0.97149208796E+02 -0.21164090044E+02  0.31407632677E+02  0.10435420101E+03  0.41800000000E+01 0.  1.
        -11    1    1    2    0    0 -0.26867453626E+02 -0.48367337820E+02 -0.25806754455E+02  0.61051191697E+02  0.00000000000E+00 0.  1.
         11    1    1    2    0    0 -0.64567129883E+02  0.12112611698E+02 -0.12318822497E+03  0.13961005836E+03  0.00000000000E+00 0. -1.
</event>
<event>
 7    1  0.2601031E-009  0.9701707E+02  0.7561462E-02  0.1286697E+00
         -1   -1    0    0    0  501 -0.00000000000E+00  0.00000000000E+00  0.54800251793E+03  0.54800251793E+03  0.00000000000E+00 0.  1.
          1   -1    0    0  501    0  0.00000000000E+00 -0.00000000000E+00 -0.35210311510E+02  0.35210311510E+02  0.00000000000E+00 0. -1.
         25    2    1    2    0    0  0.44918040309E+02 -0.10444903775E+02  0.12679810463E+03  0.18398974228E+03  0.12509092520E+03 0.  0.
          5    1    3    3  502    0  0.56779338916E+02  0.19319194392E+02  0.13740411793E+03  0.14998162762E+03  0.41800000000E+01 0.  1.
         -5    1    3    3    0  502 -0.11861298607E+02 -0.29764098167E+02 -0.10606013306E+02  0.34008114658E+02  0.41800000000E+01 0.  1.
        -11    1    1    2    0    0 -0.10467705267E+02  0.48878614296E+02  0.20570671455E+03  0.21169304240E+03  0.00000000000E+00 0.  1.
         11    1    1    2    0    0 -0.34450335042E+02 -0.38433710522E+02  0.18028738724E+03  0.18753004476E+03  0.00000000000E+00 0. -1.
</event>
<event>
 7    1  0.2601031E-009  0.1764899E+03  0.7561462E-02  0.1171244E+00
         -3   -1    0    0    0  501 -0.00000000000E+00  0.00000000000E+00  0.32873136745E+03  0.32873136745E+03  0.00000000000E+00 0.  1.
          3   -1    0    0  501    0  0.00000000000E+00 -0.00000000000E+00 -0.16544039328E+03  0.16544039328E+03  0.00000000000E+00 0. -1.
         25    2    1    2    0    0  0.15267204790E+03  0.65600419824E+02  0.21315632158E+03  0.29781448252E+03  0.12508268976E+03 0.  0.
          5    1    3    3  502    0  0.94172609412E+02  0.61650403871E+02  0.47867792156E+02  0.12238484623E+03  0.41800000000E+01 0. -1.
         -5    1    3    3    0  502  0.58499438486E+02  0.39500159535E+01  0.16528852943E+03  0.17542963629E+03  0.41800000000E+01 0. -1.
        -11    1    1    2    0    0 -0.13620263862E+03 -0.25983391537E+02 -0.61824781484E+02  0.15181765052E+03  0.00000000000E+00 0. -1.
         11    1    1    2    0    0 -0.16469409277E+02 -0.39617028287E+02  0.11959434070E+02  0.44539627698E+02  0.00000000000E+00 0.  1.
</event>
<event>
 7    1  0.2601031E-009  0.1197972E+03  0.7561462E-02  0.1243432E+00
          1   -1    0    0  501    0  0.00000000000E+00  0.00000000000E+00  0.38219663292E+03  0.38219663292E+03  0.00000000000E+00 0. -1.
         -1   -1    0    0    0  501 -0.00000000000E+00 -0.00000000000E+00 -0.65656839783E+02  0.65656839783E+02  0.00000000000E+00 0.  1.
         25    2    1    2    0    0 -0.57328211619E+02 -0.21378112899E+02  0.30101592962E+02  0.14246694075E+03  0.12508867155E+03 0.  0.
          5    1    3    3  502    0  0.29790379960E+02 -0.38908635084E+02  0.21987654707E+01  0.49230636720E+02  0.41800000000E+01 0. -1.
         -5    1    3    3    0  502 -0.87118591580E+02  0.17530522185E+02  0.27902827491E+02  0.93236304028E+02  0.41800000000E+01 0. -1.
        -11    1    1    2    0    0 -0.19470438234E+02  0.14631704755E+02  0.36920257742E+02  0.44229969261E+02  0.00000000000E+00 0.  1.
         11    1    1    2    0    0  0.76798649853E+02  0.67464081443E+01  0.24951794244E+03  0.26115656270E+03  0.00000000000E+00 0. -1.
</event>
<event>
 7    1  0.2601031E-009  0.9673944E+02  0.7561462E-02  0.1287306E+00
         -2   -1    0    0    0  501 -0.00000000000E+00  0.00000000000E+00  0.25379981675E+02  0.25379981675E+02  0.00000000000E+00 0.  1.
          2   -1    0    0  501    0  0.00000000000E+00 -0.00000000000E+00 -0.51523358376E+03  0.51523358376E+03  0.00000000000E+00 0. -1.
         25    2    1    2    0    0 -0.34489684137E+02  0.14364188226E+02 -0.28294706998E+03  0.31161177319E+03  0.12508790734E+03 0.  0.
          5    1    3    3  502    0 -0.10583550514E+02 -0.52554178591E+02 -0.16812740016E+03  0.17651699157E+03  0.41800000000E+01 0.  1.
         -5    1    3    3    0  502 -0.23906133623E+02  0.66918366817E+02 -0.11481966982E+03  0.13509478161E+03  0.41800000000E+01 0.  1.
        -11    1    1    2    0    0  0.38685170089E+02  0.13021981465E+02 -0.19433833937E+03  0.19857871119E+03  0.00000000000E+00 0. -1.
         11    1    1    2    0    0 -0.41954859515E+01 -0.27386169691E+02 -0.12568192731E+02  0.30423081061E+02  0.00000000000E+00 0.  1.
</event>
<event>
 7    1  0.2601031E-009  0.1242683E+03  0.7561462E-02  0.1236217E+00
          1   -1    0    0  501    0  0.00000000000E+00  0.00000000000E+00  0.16020394086E+03  0.16020394086E+03  0.00000000000E+00 0. -1.
         -1   -1    0    0    0  501 -0.00000000000E+00 -0.00000000000E+00 -0.11116004873E+03  0.11116004873E+03  0.00000000000E+00 0.  1.
         25    2    1    2    0    0  0.36099294521E+02  0.75481969938E+02  0.55492573319E+02  0.16039611412E+03  0.12508717312E+03 0.  0.
          5    1    3    3  502    0 -0.17108728084E+02 -0.21350298188E+02  0.40156699671E+02  0.48770654474E+02  0.41800000000E+01 0. -1.
         -5    1    3    3    0  502  0.53208022605E+02  0.96832268127E+02  0.15335873648E+02  0.11162545964E+03  0.41800000000E+01 0. -1.
        -11    1    1    2    0    0  0.21032288348E+02 -0.96900928421E+01 -0.56159788575E+01  0.23828434085E+02  0.00000000000E+00 0.  1.
         11    1    1    2    0    0 -0.57131582869E+02 -0.65791877096E+02 -0.83270233270E+00  0.87139441392E+02  0.00000000000E+00 0. -1.
</event>
<event>
 7    1  0.2601031E-009  0.2028837E+03  0.7561462E-02  0.1147329E+00
          2   -1    0    0  501    0  0.00000000000E+00  0.00000000000E+00  0.86342571905E+02  0.86342571905E+02  0.00000000000E+00 0. -1.
         -2   -1    0    0    0  501 -0.00000000000E+00 -0.00000000000E+00 -0.59914870173E+03  0.59914870173E+03  0.00000000000E+00 0.  1.
         25    2    1    2    0    0  0.10273248725E+03  0.15068852789E+03 -0.38686049863E+03  0.44561132121E+03  0.12508959916E+03 0.  0.
          5    1    3    3  502    0  0.10806184923E+03  0.62337199641E+02 -0.28156165772E+03  0.30798981999E+03  0.41800000000E+01 0.  1.
         -5    1    3    3    0  502 -0.53293619785E+01  0.88351328244E+02 -0.10529884090E+03  0.13762150122E+03  0.41800000000E+01 0.  1.
        -11    1    1    2    0    0 -0.85211456477E+02 -0.15252835269E+03 -0.82935668349E+02  0.19340169537E+03  0.00000000000E+00 0.  1.
         11    1    1    2    0    0 -0.17521030773E+02  0.18398248011E+01 -0.43009962850E+02  0.46478257057E+02  0.00000000000E+00 0. -1.
</event>
<event>
 7    1  0.2601031E-009  0.1196876E+03  0.7561462E-02  0.1243613E+00
          2   -1    0    0  501    0  0.00000000000E+00  0.00000000000E+00  0.31273856096E+03  0.31273856096E+03  0.00000000000E+00 0.  1.
         -2   -1    0    0    0  501 -0.00000000000E+00 -0.00000000000E+00 -0.46824088978E+02  0.46824088978E+02  0.00000000000E+00 0. -1.
         25    2    1    2    0    0 -0.31580123788E+02  0.45079667090E+02  0.15463305959E+03  0.20636641485E+03  0.12508490499E+03 0.  0.
          5    1    3    3  502    0  0.46318671796E+02  0.16180716943E+01  0.64009132718E+02  0.79137089814E+02  0.41800000000E+01 0.  1.
         -5    1    3    3    0  502 -0.77898795583E+02  0.43461595396E+02  0.90623926871E+02  0.12722932504E+03  0.41800000000E+01 0.  1.
        -11    1    1    2    0    0 -0.28007410610E+02  0.12879415476E+01  0.43381759277E+02  0.51653178804E+02  0.00000000000E+00 0.  1.
         11    1    1    2    0    0  0.59587534398E+02 -0.46367608638E+02  0.67899653115E+02  0.10154305628E+03  0.00000000000E+00 0. -1.
</event>
<event>
 7    1  0.2601031E-009  0.6882730E+02  0.7561462E-02  0.1364127E+00
         -2   -1    0    0    0  501 -0.00000000000E+00  0.00000000000E+00  0.24536542379E+03  0.24536542379E+03  0.00000000000E+00 0.  1.
          2   -1    0    0  501    0  0.00000000000E+00 -0.00000000000E+00 -0.66112542102E+02  0.66112542102E+02  0.00000000000E+00 0. -1.
         25    2    1    2    0    0  0.59702599974E+02 -0.16481379771E+02  0.81862448222E+02  0.16180855244E+03  0.12507801922E+03 0.  0.
          5    1    3    3  502    0  0.59038184465E+02 -0.10739137508E+02  0.11399586512E+03  0.12889284683E+03  0.41800000000E+01 0.  1.
         -5    1    3    3    0  502  0.66441550921E+00 -0.57422422635E+01 -0.32133416900E+02  0.32915705610E+02  0.41800000000E+01 0.  1.
        -11    1    1    2    0    0 -0.50429526599E+02 -0.11553089811E+01  0.18539890097E+00  0.50443099276E+02  0.00000000000E+00 0. -1.
         11    1    1    2    0    0 -0.92730733746E+01  0.17636688752E+02  0.97205034564E+02  0.99226314174E+02  0.00000000000E+00 0.  1.
</event>
<event>
 7    1  0.2601031E-009  0.1176381E+03  0.7561462E-02  0.1247045E+00
         -2   -1    0    0    0  501 -0.00000000000E+00  0.00000000000E+00  0.56812513759E+02  0.56812513759E+02  0.00000000000E+00 0.  1.
          2   -1    0    0  501    0  0.00000000000E+00 -0.00000000000E+00 -0.27897010685E+03  0.27897010685E+03  0.00000000000E+00 0. -1.
         25    2    1    2    0    0 -0.51914872016E+02  0.36162781305E+02 -0.13765192763E+03  0.19646789392E+03  0.12509468203E+03 0.  0.
          5    1    3    3  502    0 -0.62235073471E+02  0.75179239278E+02 -0.81670143953E+02  0.12732873675E+03  0.41800000000E+01 0. -1.
         -5    1    3    3    0  502  0.10320201456E+02 -0.39016457972E+02 -0.55981783678E+02  0.69139157173E+02  0.41800000000E+01 0. -1.
        -11    1    1    2    0    0 -0.19053950581E+02 -0.78550641675E+01  0.54221030265E+01  0.21310895501E+02  0.00000000000E+00 0.  1.
         11    1    1    2    0    0  0.70968822597E+02 -0.28307717138E+02 -0.89927768490E+02  0.11800383119E+03  0.00000000000E+00 0. -1.
</event>
<event>
 7    1  0.2601031E-009  0.1066221E+03  0.7561462E-02  0.1266956E+00
         -2   -1    0    0    0  501 -0.00000000000E+00  0.00000000000E+00  0.20978753465E+02  0.20978753465E+02  0.00000000000E+00 0.  1.
          2   -1    0    0  501    0  0.00000000000E+00 -0.00000000000E+00 -0.60500038047E+03  0.60500038047E+03  0.00000000000E+00 0. -1.
         25    2    1    2    0    0 -0.11643584736E+02  0.12240601380E+02 -0.26524071596E+03  0.29374281168E+03  0.12508715611E+03 0.  0.
          5    1    3    3  502    0  0.53391407034E+02  0.25665834218E+02 -0.13519356059E+03  0.14766227892E+03  0.41800000000E+01 0. -1.
         -5    1    3    3    0  502 -0.65034991771E+02 -0.13425232838E+02 -0.13004715537E+03  0.14608053276E+03  0.41800000000E+01 0. -1.
        -11    1    1    2    0    0  0.46448719015E+02 -0.21676498668E+02 -0.24253864275E+03  0.24789583966E+03  0.00000000000E+00 0. -1.
         11    1    1    2    0    0 -0.34805134279E+02  0.94358972883E+01 -0.76242268296E+02  0.84340482597E+02  0.00000000000E+00 0.  1.
</event>
<event>
 7    1  0.2601031E-009  0.1699958E+03  0.7561462E-02  0.1177852E+00
         -1   -1    0    0    0  501 -0.00000000000E+00  0.00000000000E+00  0.19902731627E+03  0.19902731627E+03  0.00000000000E+00 0.  1.
          1   -1    0    0  501    0  0.00000000000E+00 -0.00000000000E+00 -0.17744519101E+03  0.17744519101E+03  0.00000000000E+00 0. -1.
         25    2    1    2    0    0 -0.14565456879E+03 -0.43957158292E+02  0.27133972801E+02  0.19882383699E+03  0.12508869054E+03 0.  0.
          5    1    3    3  502    0 -0.15623740406E+03 -0.55565469223E+02  0.47710058154E+02  0.17260176664E+03  0.41800000000E+01 0.  1.
         -5    1    3    3    0  502  0.10582835273E+02  0.11608310931E+02 -0.20576085353E+02  0.26222070352E+02  0.41800000000E+01 0.  1.
        -11    1    1    2    0    0  0.11830325291E+02  0.18002760269E+02  0.29847625834E+02  0.36809465382E+02  0.00000000000E+00 0.  1.
         11    1    1    2    0    0  0.13382424350E+03  0.25954398023E+02 -0.35399473370E+02  0.14083920491E+03  0.00000000000E+00 0. -1.
</event>
<event>
 7    1  0.2601031E-009  0.1091233E+03  0.7561462E-02  0.1262202E+00
          2   -1    0    0  501    0  0.00000000000E+00  0.00000000000E+00  0.18150336709E+04  0.18150336709E+04  0.00000000000E+00 0.  1.
         -2   -1    0    0    0  501 -0.00000000000E+00 -0.00000000000E+00 -0.87348072082E+01  0.87348072082E+01  0.00000000000E+00 0. -1.
         25    2    1    2    0    0 -0.20964377932E+02 -0.56237963695E+02  0.12700003797E+04  0.12775560257E+04  0.12508485418E+03 0.  0.
          5    1    3    3  502    0 -0.56063006634E+02 -0.58776155041E+02  0.48628291042E+03  0.49303776577E+03  0.41800000000E+01 0.  1.
         -5    1    3    3    0  502  0.35098628702E+02  0.25381913452E+01  0.78371746924E+03  0.78451825991E+03  0.41800000000E+01 0.  1.
        -11    1    1    2    0    0 -0.54737430136E+01  0.70989460159E+02  0.42241031994E+03  0.42836893411E+03  0.00000000000E+00 0.  1.
         11    1    1    2    0    0  0.26438120946E+02 -0.14751496464E+02  0.11388816409E+03  0.11784351831E+03  0.00000000000E+00 0. -1.
</event>
<event>
 7    1  0.2601031E-009  0.1189855E+03  0.7561462E-02  0.1244780E+00
          4   -1    0    0  501    0  0.00000000000E+00  0.00000000000E+00  0.21038932915E+03  0.21038932915E+03  0.00000000000E+00 0. -1.
         -4   -1    0    0    0  501 -0.00000000000E+00 -0.00000000000E+00 -0.90989626631E+02  0.90989626631E+02  0.00000000000E+00 0.  1.
         25    2    1    2    0    0 -0.66862884819E+02 -0.47546533552E+01  0.74856704483E+01  0.14211858888E+03  0.12509358875E+03 0.  0.
          5    1    3    3  502    0  0.28926844702E+02  0.27609668571E+02 -0.33442118801E+01  0.40344916608E+02  0.41800000000E+01 0.  1.
         -5    1    3    3    0  502 -0.95789729521E+02 -0.32364321926E+02  0.10829882328E+02  0.10177367227E+03  0.41800000000E+01 0.  1.
        -11    1    1    2    0    0 -0.11936764298E+02 -0.10974551225E+02 -0.53780450274E+01  0.17083632073E+02  0.00000000000E+00 0.  1.
         11    1    1    2    0    0  0.78799649117E+02  0.15729204580E+02  0.11729207710E+03  0.14217673483E+03  0.00000000000E+00 0. -1.
</event>
<event>
 7    1  0.2601031E-009  0.1067981E+03  0.7561462E-02  0.1266617E+00
         -1   -1    0    0    0  501 -0.00000000000E+00  0.00000000000E+00  0.57422692262E+02  0.57422692262E+02  0.00000000000E+00 0.  1.
          1   -1    0    0  501    0  0.00000000000E+00 -0.00000000000E+00 -0.23150766891E+03  0.23150766891E+03  0.00000000000E+00 0. -1.
         25    2    1    2    0    0 -0.41486572136E+01  0.92787653171E+01 -0.57499904744E+02  0.13805093379E+03  0.12509402237E+03 0.  0.
          5    1    3    3  502    0  0.42220317476E+02 -0.36839590411E+02 -0.98963192923E+01  0.57053660400E+02  0.41800000000E+01 0. -1.
         -5    1    3    3    0  502 -0.46368974690E+02  0.46118355728E+02 -0.47603585452E+02  0.80997273391E+02  0.41800000000E+01 0. -1.
        -11    1    1    2    0    0  0.42160116868E+02  0.17217505044E+02 -0.36525646681E+02  0.58378427520E+02  0.00000000000E+00 0.  1.
         11    1    1    2    0    0 -0.38011459655E+02 -0.26496270361E+02 -0.80059425219E+02  0.92500999857E+02  0.00000000000E+00 0. -1.
</event>
<event>
 7    1  0.2601031E-009  0.9584917E+02  0.7561462E-02  0.1289275E+00
         -4   -1    0    0    0  501 -0.00000000000E+00  0.00000000000E+00  0.38480968281E+03  0.38480968281E+03  0.00000000000E+00 0.  1.
          4   -1    0    0  501    0  0.00000000000E+00 -0.00000000000E+00 -0.50354354314E+02  0.50354354314E+02  0.00000000000E+00 0. -1.
         25    2    1    2    0    0 -0.13654098515E+02  0.21545124953E+02  0.30646150343E+03  0.33199059377E+03  0.12509386257E+03 0.  0.
          5    1    3    3  502    0 -0.53129811166E+02  0.45835731383E+01  0.54523759639E+02  0.76381272198E+02  0.41800000000E+01 0.  1.
         -5    1    3    3    0  502  0.39475712651E+02  0.16961551815E+02  0.25193774379E+03  0.25560932157E+03  0.41800000000E+01 0.  1.
        -11    1    1    2    0    0 -0.37233304032E+02 -0.23648295832E+02  0.27995145294E+02  0.52242597418E+02  0.00000000000E+00 0. -1.
         11    1    1    2    0    0  0.50887402547E+02  0.21031708792E+01 -0.13202299728E-02  0.50930845933E+02  0.00000000000E+00 0.  1.
</event>
<event>
 7    1  0.2601031E-009  0.1176701E+03  0.7561462E-02  0.1246991E+00
          2   -1    0    0  501    0  0.00000000000E+00  0.00000000000E+00  0.17117967238E+04  0.17117967238E+04  0.00000000000E+00 0. -1.
         -2   -1    0    0    0  501 -0.00000000000E+00 -0.00000000000E+00 -0.93903277250E+01  0.93903277250E+01  0.00000000000E+00 0.  1.
         25    2    1    2    0    0 -0.24074745755E+02  0.41076952058E+02  0.12428178358E+04  0.12500045946E+04  0.12509358178E+03 0.  0.
          5    1    3    3  502    0 -0.33278442945E+02 -0.39562922299E+02  0.42288030732E+03  0.42604918297E+03  0.41800000000E+01 0. -1.
         -5    1    3    3    0  502  0.92036971900E+01  0.80639874356E+02  0.81993752843E+03  0.82395541160E+03  0.41800000000E+01 0. -1.
        -11    1    1    2    0    0  0.18481770592E+02 -0.70176986856E+02  0.28483248855E+03  0.29393184900E+03  0.00000000000E+00 0.  1.
         11    1    1    2    0    0  0.55929751636E+01  0.29100034799E+02  0.17475607175E+03  0.17725060793E+03  0.00000000000E+00 0. -1.
</event>
<event>
 7    1  0.2601031E-009  0.1220891E+03  0.7561462E-02  0.1239690E+00
          1   -1    0    0  501    0  0.00000000000E+00  0.00000000000E+00  0.48391140528E+03  0.48391140528E+03  0.00000000000E+00 0. -1.
         -1   -1    0    0    0  501 -0.00000000000E+00 -0.00000000000E+00 -0.35659040959E+02  0.35659040959E+02  0.00000000000E+00 0.  1.
         25    2    1    2    0    0  0.70490649224E+02  0.12248178331E+02  0.19947200038E+03  0.24607945143E+03  0.12508824078E+03 0.  0.
          5    1    3    3  502    0 -0.14170958730E+02  0.38988494621E+02  0.20965074502E+02  0.46668249731E+02  0.41800000000E+01 0.  1.
         -5    1    3    3    0  502  0.84661607954E+02 -0.26740316290E+02  0.17850692588E+03  0.19941120170E+03  0.41800000000E+01 0.  1.
        -11    1    1    2    0    0 -0.37024755954E+02  0.38112392382E+02  0.11703451927E+03  0.12853196376E+03  0.00000000000E+00 0.  1.
         11    1    1    2    0    0 -0.33465893270E+02 -0.50360570713E+02  0.13174584467E+03  0.14495903105E+03  0.00000000000E+00 0. -1.
</event>
<event>
 7    1  0.2601031E-009  0.8732259E+02  0.7561462E-02  0.1309468E+00
         -1   -1    0    0    0  501 -0.00000000000E+00  0.00000000000E+00  0.85476004852E+02  0.85476004852E+02  0.00000000000E+00 0.  1.
          1   -1    0    0  501    0  0.00000000000E+00 -0.00000000000E+00 -0.15516065626E+03  0.15516065626E+03  0.00000000000E+00 0. -1.
         25    2    1    2    0    0 -0.22558538020E+02  0.24784127691E+02 -0.56359116507E+02  0.14123406861E+03  0.12509025342E+03 0.  0.
          5    1    3    3  502    0  0.22613246481E+02  0.42181333793E+02  0.18922841061E+02  0.51634970231E+02  0.41800000000E+01 0. -1.
         -5    1    3    3    0  502 -0.45171784501E+02 -0.17397206101E+02 -0.75281957568E+02  0.89599098379E+02  0.41800000000E+01 0. -1.
        -11    1    1    2    0    0  0.12982771353E+02  0.24544599598E+02 -0.35001115721E+02  0.44677374847E+02  0.00000000000E+00 0. -1.
         11    1    1    2    0    0  0.95757666668E+01 -0.49328727290E+02  0.21675580822E+02  0.54725217653E+02  0.00000000000E+00 0.  1.
</event>
<event>
 7    1  0.2601031E-009  0.1157304E+03  0.7561462E-02  0.1250312E+00
         -2   -1    0    0    0  501 -0.00000000000E+00  0.00000000000E+00  0.61450847592E+02  0.61450847592E+02  0.00000000000E+00 0.  1.
          2   -1    0    0  501    0  0.00000000000E+00 -0.00000000000E+00 -0.25198693804E+03  0.25198693804E+03  0.00000000000E+00 0. -1.
         25    2    1    2    0    0  0.70620514085E+01 -0.54352755460E+02 -0.14133047792E+03  0.19653729559E+03  0.12509400455E+03 0.  0.
          5    1    3    3  502    0  0.27079539862E+02 -0.84592635183E+02 -0.59659670825E+02  0.10707924229E+03  0.41800000000E+01 0. -1.
         -5    1    3    3    0  502 -0.20017488454E+02  0.30239879722E+02 -0.81670807091E+02  0.89458053302E+02  0.41800000000E+01 0. -1.
        -11    1    1    2    0    0  0.40524737898E+02  0.11824084110E+02 -0.19080833945E+02  0.46326467281E+02  0.00000000000E+00 0.  1.
         11    1    1    2    0    0 -0.47586789306E+02  0.42528671350E+02 -0.30124778584E+02  0.70574022757E+02  0.00000000000E+00 0. -1.
</event>
<event>
 7    1  0.2601031E-009  0.1290937E+03  0.7561462E-02  0.1228807E+00
         -1   -1    0    0    0  501 -0.00000000000E+00  0.00000000000E+00  0.53159994985E+02  0.53159994985E+02  0.00000000000E+00 0.  1.
          1   -1    0    0  501    0  0.00000000000E+00 -0.00000000000E+00 -0.36296990505E+03  0.36296990505E+03  0.00000000000E+00 0. -1.
         25    2    1    2    0    0 -0.68051889201E+02  0.65098736755E+02 -0.23164698636E+03  0.27960120296E+03  0.12509037235E+03 0.  0.
          5    1    3    3  502    0 -0.92055843742E+02  0.60982563395E+01 -0.12714952334E+03  0.15714942184E+03  0.41800000000E+01 0. -1.
         -5    1    3    3    0  502  0.24003954542E+02  0.59000480415E+02 -0.10449746302E+03  0.12245178112E+03  0.41800000000E+01 0. -1.
        -11    1    1    2    0    0  0.68436194252E+02 -0.45014141300E+02 -0.35307413577E+02  0.89198649397E+02  0.00000000000E+00 0.  1.
         11    1    1    2    0    0 -0.38430505173E+00 -0.20084595454E+02 -0.42855510128E+02  0.47330047678E+02  0.00000000000E+00 0. -1.
</event>
<event>
 7    1  0.2601031E-009  0.1060219E+03  0.7561462E-02  0.1268119E+00
          1   -1    0    0  501    0  0.00000000000E+00  0.00000000000E+00  0.21879031384E+03  0.21879031384E+03  0.00000000000E+00 0. -1.
         -1   -1    0    0    0  501 -0.00000000000E+00 -0.00000000000E+00 -0.76685277820E+02  0.76685277820E+02  0.00000000000E+00 0.  1.
         25    2    1    2    0    0 -0.51487646630E+02 -0.42037205960E+02  0.51801045798E+02  0.15082637307E+03  0.12508853675E+03 0.  0.
          5    1    3    3  502    0  0.73578878567E+01 -0.54381555833E+02  0.68894043387E+02  0.88177966311E+02  0.41800000000E+01 0.  1.
         -5    1    3    3    0  502 -0.58845534487E+02  0.12344349873E+02 -0.17092997589E+02  0.62648406759E+02  0.41800000000E+01 0.  1.
        -11    1    1    2    0    0  0.34158049817E+02 -0.14865989084E+02  0.74196468436E+02  0.83023405899E+02  0.00000000000E+00 0.  1.
         11    1    1    2    0    0  0.17329596813E+02  0.56903195043E+02  0.16107521788E+02  0.61625812692E+02  0.00000000000E+00 0. -1.
</event>
<event>
 7    1  0.2601031E-009  0.1340033E+03  0.7561462E-02  0.1221634E+00
         -2   -1    0    0    0  501 -0.00000000000E+00  0.00000000000E+00  0.32426244610E+02  0.32426244610E+02  0.00000000000E+00 0.  1.
          2   -1    0    0  501    0  0.00000000000E+00 -0.00000000000E+00 -0.60540732192E+03  0.60540732192E+03  0.00000000000E+00 0. -1.
         25    2    1    2    0    0  0.81278592337E+02  0.28079144948E+02 -0.32359666399E+03  0.35743164857E+03  0.12509170435E+03 0.  0.
          5    1    3    3  502    0  0.10626701052E+03  0.75756954591E+00 -0.28301892328E+03  0.30234158624E+03  0.41800000000E+01 0. -1.
         -5    1    3    3    0  502 -0.24988418185E+02  0.27321575403E+02 -0.40577740712E+02  0.55090062327E+02  0.41800000000E+01 0. -1.
        -11    1    1    2    0    0 -0.93340449462E+02 -0.44993972414E+02 -0.22873299420E+03  0.25110890007E+03  0.00000000000E+00 0. -1.
         11    1    1    2    0    0  0.12061857126E+02  0.16914827466E+02 -0.20651419117E+02  0.29293017889E+02  0.00000000000E+00 0.  1.
</event>
<event>
 7    1  0.2601031E-009  0.1519121E+03  0.7561462E-02  0.1198143E+00
         -2   -1    0    0    0  501 -0.00000000000E+00  0.00000000000E+00  0.27014069839E+02  0.27014069839E+02  0.00000000000E+00 0.  1.
          2   -1    0    0  501    0  0.00000000000E+00 -0.00000000000E+00 -0.98045072247E+03  0.98045072247E+03  0.00000000000E+00 0. -1.
         25    2    1    2    0    0  0.55240913046E+02 -0.10729031939E+03 -0.52965300649E+03  0.55744190545E+03  0.12508556895E+03 0.  0.
          5    1    3    3  502    0  0.56902775587E+02 -0.13611650643E+02 -0.34899761781E+03  0.35389265680E+03  0.41800000000E+01 0.  1.
         -5    1    3    3    0  502 -0.16618625417E+01 -0.93678668744E+02 -0.18065538868E+03  0.20354924864E+03  0.41800000000E+01 0.  1.
        -11    1    1    2    0    0  0.22752711821E+02  0.59793110316E+01 -0.69666305768E+02  0.73531164924E+02  0.00000000000E+00 0. -1.
         11    1    1    2    0    0 -0.77993624867E+02  0.10131100836E+03 -0.35411734038E+03  0.37649172194E+03  0.00000000000E+00 0.  1.
</event>
<event>
 7    1  0.2945881E-009  0.9342656E+02  0.7561462E-02  0.1294760E+00
         -1   -1    0    0    0  501 -0.00000000000E+00  0.00000000000E+00  0.22972068276E+02  0.22972068276E+02  0.00000000000E+00 0.  1.
          1   -1    0    0  501    0  0.00000000000E+00 -0.00000000000E+00 -0.70340485394E+03  0.70340485394E+03  0.00000000000E+00 0. -1.
         25    2    1    2    0    0 -0.32780146789E+02 -0.33211311450E+02 -0.50895680026E+03  0.52617689471E+03  0.12509025047E+03 0.  0.
          5    1    3    3  502    0 -0.77746726849E+02 -0.36507095079E+02 -0.28510248942E+03  0.29778889066E+03  0.41800000000E+01 0.  1.
         -5    1    3    3    0  502  0.44966580059E+02  0.32957836287E+01 -0.22385431084E+03  0.22838800405E+03  0.41800000000E+01 0.  1.
        -11    1    1    2    0    0  0.87207160365E+01 -0.52748546509E+01  0.93097657405E+01  0.13803866050E+02  0.00000000000E+00 0.  1.
         11    1    1    2    0    0  0.24059430753E+02  0.38486166101E+02 -0.18078575114E+03  0.18639616145E+03  0.00000000000E+00 0. -1.
</event>
<event>
 7    1  0.2601031E-009  0.1122558E+03  0.7561462E-02  0.1256449E+00
         -4   -1    0    0    0  501 -0.00000000000E+00  0.00000000000E+00  0.30759179987E+02  0.30759179987E+02  0.00000000000E+00 0.  1.
          4   -1    0    0  501    0  0.00000000000E+00 -0.00000000000E+00 -0.74560281424E+03  0.74560281424E+03  0.00000000000E+00 0. -1.
         25    2    1    2    0    0 -0.37216068867E+02  0.46911345195E+02 -0.61066289015E+03  0.62621201798E+03  0.12508643398E+03 0.  0.
          5    1    3    3  502    0 -0.42754163642E+02 -0.21578756884E+02 -0.10028104956E+03  0.11120846442E+03  0.41800000000E+01 0. -1.
         -5    1    3    3    0  502  0.55380947745E+01  0.68490102079E+02 -0.51038184059E+03  0.51500355356E+03  0.41800000000E+01 0. -1.
        -11    1    1    2    0    0  0.57323631154E+02 -0.60488228118E+02 -0.86622878766E+02  0.12020127934E+03  0.00000000000E+00 0.  1.
         11    1    1    2    0    0 -0.20107562287E+02  0.13576882923E+02 -0.17557865334E+02  0.29948696902E+02  0.00000000000E+00 0. -1.
</event>
<event>
 7    1  0.2601031E-009  0.8988364E+02  0.7561462E-02  0.1303134E+00
          2   -1    0    0  501    0  0.00000000000E+00  0.00000000000E+00  0.69405273457E+03  0.69405273457E+03  0.00000000000E+00 0. -1.
         -2   -1    0    0    0  501 -0.00000000000E+00 -0.00000000000E+00 -0.35743380992E+02  0.35743380992E+02  0.00000000000E+00 0.  1.
         25    2    1    2    0    0  0.58062008717E+02 -0.32262476493E+02  0.56673820760E+03  0.58416773900E+03  0.12509071544E+03 0.  0.
          5    1    3    3  502    0  0.22037427468E+02 -0.13878348535E+02  0.52582670203E+03  0.52648784386E+03  0.41800000000E+01 0.  1.
         -5    1    3    3    0  502  0.36024581249E+02 -0.18384127958E+02  0.40911505568E+02  0.57679895135E+02  0.41800000000E+01 0.  1.
        -11    1    1    2    0    0 -0.77466764086E+02  0.44933772134E+02  0.78070839006E+02  0.11880740431E+03  0.00000000000E+00 0.  1.
         11    1    1    2    0    0  0.19404755369E+02 -0.12671295641E+02  0.13500306973E+02  0.26820972252E+02  0.00000000000E+00 0. -1.
</event>
<event>
 7    1  0.2601031E-009  0.9798108E+02  0.7561462E-02  0.1284600E+00
         -1   -1    0    0    0  501 -0.00000000000E+00  0.00000000000E+00  0.13573836431E+03  0.13573836431E+03  0.00000000000E+00 0.  1.
          1   -1    0    0  501    0  0.00000000000E+00 -0.00000000000E+00 -0.10200460565E+03  0.10200460565E+03  0.00000000000E+00 0. -1.
         25    2    1    2    0    0 -0.74020085560E+01  0.41225649452E+02 -0.81935597688E+01  0.13217195881E+03  0.12509175980E+03 0.  0.
          5    1    3    3  502    0 -0.18242284821E+02  0.73701380667E+02  0.29058996069E+02  0.81403759866E+02  0.41800000000E+01 0.  1.
         -5    1    3    3    0  502  0.10840276265E+02 -0.32475731215E+02 -0.37252555838E+02  0.50768198943E+02  0.41800000000E+01 0.  1.
        -11    1    1    2    0    0 -0.24294173757E+02  0.91103567984E+01  0.37926592838E+02  0.45952496383E+02  0.00000000000E+00 0.  1.
         11    1    1    2    0    0  0.31696182313E+02 -0.50336006250E+02  0.40007255866E+01  0.59618514773E+02  0.00000000000E+00 0. -1.
</event>
<event>
 7    1  0.2601031E-009  0.1040484E+03  0.7561462E-02  0.1272006E+00
          2   -1    0    0  501    0  0.00000000000E+00  0.00000000000E+00  0.90673960398E+03  0.90673960398E+03  0.00000000000E+00 0.  1.
         -2   -1    0    0    0  501 -0.00000000000E+00 -0.00000000000E+00 -0.14504124046E+02  0.14504124046E+02  0.00000000000E+00 0. -1.
         25    2    1    2    0    0 -0.36540817716E+02 -0.92041392811E+01  0.48427793720E+03  0.50158957956E+03  0.12508812222E+03 0.  0.
          5    1    3    3  502    0  0.34981695758E+02  0.15267198016E+02  0.64695906791E+02  0.75231902334E+02  0.41800000000E+01 0.  1.
         -5    1    3    3    0  502 -0.71522513474E+02 -0.24471337297E+02  0.41958203041E+03  0.42635767723E+03  0.41800000000E+01 0.  1.
        -11    1    1    2    0    0 -0.23066640044E+02  0.23250973048E+02  0.88190979394E+02  0.94076173801E+02  0.00000000000E+00 0.  1.
         11    1    1    2    0    0  0.59607457760E+02 -0.14046833767E+02  0.31976656333E+03  0.32557797466E+03  0.00000000000E+00 0. -1.
</event>
<event>
 7    1  0.2601031E-009  0.1072303E+03  0.7561462E-02  0.1265787E+00
         -4   -1    0    0    0  501 -0.00000000000E+00  0.00000000000E+00  0.10092217715E+03  0.10092217715E+03  0.00000000000E+00 0.  1.
          4   -1    0    0  501    0  0.00000000000E+00 -0.00000000000E+00 -0.13490342888E+03  0.13490342888E+03  0.00000000000E+00 0. -1.
         25    2    1    2    0    0  0.25278913363E+02  0.13654220328E+02  0.14744130885E+02  0.12919407574E+03  0.12509299988E+03 0.  0.
          5    1    3    3  502    0  0.71769071752E+02 -0.15153501542E+02  0.71054087885E+01  0.73813193287E+02  0.41800000000E+01 0.  1.
         -5    1    3    3    0  502 -0.46490158389E+02  0.28807721870E+02  0.76387220969E+01  0.55380882456E+02  0.41800000000E+01 0.  1.
        -11    1    1    2    0    0  0.25191635073E+02 -0.23802379809E+02 -0.42401833900E+02  0.54763923164E+02  0.00000000000E+00 0. -1.
         11    1    1    2    0    0 -0.50470548436E+02  0.10148159481E+02 -0.63235487200E+01  0.51867607124E+02  0.00000000000E+00 0.  1.
</event>
<event>
 7    1  0.2601031E-009  0.2647909E+03  0.7561462E-02  0.1104298E+00
          1   -1    0    0  501    0  0.00000000000E+00  0.00000000000E+00  0.52630870320E+03  0.52630870320E+03  0.00000000000E+00 0. -1.
         -1   -1    0    0    0  501 -0.00000000000E+00 -0.00000000000E+00 -0.14922332649E+03  0.14922332649E+03  0.00000000000E+00 0.  1.
         25    2    1    2    0    0  0.25129544637E+03 -0.54480501150E+02  0.21942329204E+03  0.36043239918E+03  0.12508959555E+03 0.  0.
          5    1    3    3  502    0  0.67154887054E+02 -0.57038130579E+02  0.12622635795E+03  0.15399250967E+03  0.41800000000E+01 0.  1.
         -5    1    3    3    0  502  0.18414055932E+03  0.25576294294E+01  0.93196934088E+02  0.20643988950E+03  0.41800000000E+01 0.  1.
        -11    1    1    2    0    0 -0.11301639994E+03  0.26664688692E+02  0.12441622329E+03  0.17018551318E+03  0.00000000000E+00 0. -1.
         11    1    1    2    0    0 -0.13827904643E+03  0.27815812457E+02  0.33245861384E+02  0.14491411734E+03  0.00000000000E+00 0.  1.
</event>
<event>
 7    1  0.2601031E-009  0.1303189E+03  0.7561462E-02  0.1226983E+00
         -3   -1    0    0    0  501 -0.00000000000E+00  0.00000000000E+00  0.36161630577E+02  0.36161630577E+02  0.00000000000E+00 0.  1.
          3   -1    0    0  501    0  0.00000000000E+00 -0.00000000000E+00 -0.95538010003E+03  0.95538010003E+03  0.00000000000E+00 0. -1.
         25    2    1    2    0    0 -0.10597469128E+03 -0.16725461707E+02 -0.76350324018E+03  0.78108579116E+03  0.12508972430E+03 0.  0.
          5    1    3    3  502    0 -0.11214851931E+03 -0.24721623714E+02 -0.76131102625E+03  0.76993532205E+03  0.41800000000E+01 0.  1.
         -5    1    3    3    0  502  0.61738280300E+01  0.79961620065E+01 -0.21922139348E+01  0.11150469107E+02  0.41800000000E+01 0.  1.
        -11    1    1    2    0    0 -0.56214788290E+01 -0.17243159031E+02 -0.31552833600E+01  0.18408785150E+02  0.00000000000E+00 0.  1.
         11    1    1    2    0    0  0.11159617011E+03  0.33968620738E+02 -0.15255994592E+03  0.19204715430E+03  0.00000000000E+00 0. -1.
</event>
<event>
 7    1  0.2601031E-009  0.8502265E+02  0.7561462E-02  0.1315373E+00
          2   -1    0    0  501    0  0.00000000000E+00  0.00000000000E+00  0.50632302790E+03  0.50632302790E+03  0.00000000000E+00 0. -1.
         -2   -1    0    0    0  501 -0.00000000000E+00 -0.00000000000E+00 -0.27189088367E+02  0.27189088367E+02  0.00000000000E+00 0.  1.
         25    2    1    2    0    0  0.54548210355E+02 -0.34573547499E+02  0.21291462700E+03  0.25524744015E+03  0.12509108630E+03 0.  0.
          5    1    3    3  502    0 -0.15990081885E+02 -0.82483910201E+01 -0.92330951624E+01  0.20650450828E+02  0.41800000000E+01 0.  1.
         -5    1    3    3    0  502  0.70538292241E+02 -0.26325156479E+02  0.22214772216E+03  0.23459698932E+03  0.41800000000E+01 0.  1.
        -11    1    1    2    0    0  0.16189682866E+01  0.17340681306E+02  0.28562018954E+02  0.33453089741E+02  0.00000000000E+00 0.  1.
         11    1    1    2    0    0 -0.56167178642E+02  0.17232866193E+02  0.23765729358E+03  0.24481158638E+03  0.00000000000E+00 0. -1.
</event>
<event>
 7    1  0.2601031E-009  0.1004345E+03  0.7561462E-02  0.1279385E+00
          2   -1    0    0  501    0  0.00000000000E+00  0.00000000000E+00  0.31487418803E+03  0.31487418803E+03  0.00000000000E+00 0. -1.
         -2   -1    0    0    0  501 -0.00000000000E+00 -0.00000000000E+00 -0.42780257266E+02  0.42780257266E+02  0.00000000000E+00 0.  1.
         25    2    1    2    0    0  0.54192656145E+00  0.15086277252E+02  0.20483752949E+03  0.24048637313E+03  0.12508953883E+03 0.  0.
          5    1    3    3  502    0  0.56634264597E+02  0.13033376802E+02  0.53809738434E+02  0.79311217288E+02  0.41800000000E+01 0. -1.
         -5    1    3    3    0  502 -0.56092338036E+02  0.20529004501E+01  0.15102779106E+03  0.16117515584E+03  0.41800000000E+01 0. -1.
        -11    1    1    2    0    0  0.37621506652E+02 -0.27035937755E+02  0.10109720217E+02  0.47418626466E+02  0.00000000000E+00 0.  1.
         11    1    1    2    0    0 -0.38163433214E+02  0.11949660503E+02  0.57146681051E+02  0.69749445703E+02  0.00000000000E+00 0. -1.
</event>
<event>
 7    1  0.2601031E-009  0.1382857E+03  0.7561462E-02  0.1215654E+00
         -2   -1    0    0    0  501 -0.00000000000E+00  0.00000000000E+00  0.20252701700E+02  0.20252701700E+02  0.00000000000E+00 0.  1.
          2   -1    0    0  501    0  0.00000000000E+00 -0.00000000000E+00 -0.11682395544E+04  0.11682395544E+04  0.00000000000E+00 0. -1.
         25    2    1    2    0    0 -0.43518576795E+02  0.99890256668E+02 -0.59501216532E+03  0.61770391356E+03  0.12508684203E+03 0.  0.
          5    1    3    3  502    0 -0.31175050358E+02  0.11539083230E+03 -0.58074297073E+03  0.59293068600E+03  0.41800000000E+01 0.  1.
         -5    1    3    3    0  502 -0.12343526437E+02 -0.15500575630E+02 -0.14269194585E+02  0.24773227563E+02  0.41800000000E+01 0.  1.
        -11    1    1    2    0    0 -0.93152081135E-03  0.14412281517E+02 -0.25228546158E+02  0.29055006464E+02  0.00000000000E+00 0.  1.
         11    1    1    2    0    0  0.43519508316E+02 -0.11430253818E+03 -0.52774614125E+03  0.54173333610E+03  0.00000000000E+00 0. -1.
</event>
<event>
 7    1  0.2601031E-009  0.1108856E+03  0.7561462E-02  0.1258939E+00
          2   -1    0    0  501    0  0.00000000000E+00  0.00000000000E+00  0.88028026370E+02  0.88028026370E+02  0.00000000000E+00 0. -1.
         -2   -1    0    0    0  501 -0.00000000000E+00 -0.00000000000E+00 -0.23293407151E+03  0.23293407151E+03  0.00000000000E+00 0.  1.
         25    2    1    2    0    0  0.85231360399E+02 -0.13601589913E+01 -0.12045807148E+03  0.19344856403E+03  0.12508383233E+03 0.  0.
          5    1    3    3  502    0  0.13207208848E+02  0.38067708513E+02  0.76517610860E+01  0.41226237334E+02  0.41800000000E+01 0. -1.
         -5    1    3    3    0  502  0.72024151551E+02 -0.39427867504E+02 -0.12810983257E+03  0.15222232669E+03  0.41800000000E+01 0. -1.
        -11    1    1    2    0    0 -0.58607243161E+02  0.24737648846E+02  0.23568686782E+02  0.67839835038E+02  0.00000000000E+00 0.  1.
         11    1    1    2    0    0 -0.26624117237E+02 -0.23377489854E+02 -0.48016660438E+02  0.59673698814E+02  0.00000000000E+00 0. -1.
</event>
<event>
 7    1  0.2601031E-009  0.8349695E+02  0.7561462E-02  0.1319411E+00
          2   -1    0    0  501    0  0.00000000000E+00  0.00000000000E+00  0.82300050844E+03  0.82300050844E+03  0.00000000000E+00 0. -1.
         -2   -1    0    0    0  501 -0.00000000000E+00 -0.00000000000E+00 -0.19902190473E+02  0.19902190473E+02  0.00000000000E+00 0.  1.
         25    2    1    2    0    0 -0.27320320888E+02  0.10367863554E+02  0.69961173092E+03  0.71130652447E+03  0.12508599114E+03 0.  0.
          5    1    3    3  502    0  0.44919266969E+02  0.21490579540E+02  0.18992727662E+03  0.19639100886E+03  0.41800000000E+01 0. -1.
         -5    1    3    3    0  502 -0.72239587857E+02 -0.11122715985E+02  0.50968445429E+03  0.51491551561E+03  0.41800000000E+01 0. -1.
        -11    1    1    2    0    0  0.19604266940E+02  0.10018119799E+02  0.10724128564E+03  0.10947777561E+03  0.00000000000E+00 0. -1.
         11    1    1    2    0    0  0.77160539473E+01 -0.20385983353E+02 -0.37546985907E+01  0.22118398841E+02  0.00000000000E+00 0.  1.
</event>
<event>
 7    1  0.2601031E-009  0.1353529E+03  0.7561462E-02  0.1219722E+00
          2   -1    0    0  501    0  0.00000000000E+00  0.00000000000E+00  0.19735223192E+03  0.19735223192E+03  0.00000000000E+00 0. -1.
         -2   -1    0    0    0  501 -0.00000000000E+00 -0.00000000000E+00 -0.12760068698E+03  0.12760068698E+03  0.00000000000E+00 0.  1.
         25    2    1    2    0    0  0.84126746326E+02 -0.33573822288E+02 -0.35991300014E+02  0.15857865469E+03  0.12508918841E+03 0.  0.
          5    1    3    3  502    0 -0.11511253643E+02  0.33786433769E+02 -0.17854764622E+02  0.40128507161E+02  0.41800000000E+01 0.  1.
         -5    1    3    3    0  502  0.95637999969E+02 -0.67360256057E+02 -0.18136535393E+02  0.11845014753E+03  0.41800000000E+01 0.  1.
        -11    1    1    2    0    0 -0.81228900629E+01 -0.22071209033E+02 -0.15863221014E+01  0.23571933076E+02  0.00000000000E+00 0. -1.
         11    1    1    2    0    0 -0.76003856263E+02  0.55645031321E+02  0.10732916705E+03  0.14280233114E+03  0.00000000000E+00 0.  1.
</event>
<event>
 7    1  0.2601031E-009  0.1209043E+03  0.7561462E-02  0.1241613E+00
         -1   -1    0    0    0  501 -0.00000000000E+00  0.00000000000E+00  0.13241890326E+02  0.13241890326E+02  0.00000000000E+00 0.  1.
          1   -1    0    0  501    0  0.00000000000E+00 -0.00000000000E+00 -0.15599996381E+04  0.15599996381E+04  0.00000000000E+00 0. -1.
         25    2    1    2    0    0 -0.45172305421E+01 -0.64505037957E+02 -0.12165874428E+04  0.12247097046E+04  0.12509016506E+03 0.  0.
          5    1    3    3  502    0  0.24986653577E+02  0.29352856122E+02 -0.48096039807E+03  0.48252077669E+03  0.41800000000E+01 0.  1.
         -5    1    3    3    0  502 -0.29503884120E+02 -0.93857894079E+02 -0.73562704471E+03  0.74218892795E+03  0.41800000000E+01 0.  1.
        -11    1    1    2    0    0 -0.20585644791E+02 -0.12147122891E+02 -0.13903771445E+03  0.14107731003E+03  0.00000000000E+00 0. -1.
         11    1    1    2    0    0  0.25102875333E+02  0.76652160848E+02 -0.19113259053E+03  0.20745451375E+03  0.00000000000E+00 0.  1.
</event>
<event>
 7    1  0.2601031E-009  0.1303862E+03  0.7561462E-02  0.1226884E+00
          2   -1    0    0  501    0  0.00000000000E+00  0.00000000000E+00  0.79136208036E+03  0.79136208036E+03  0.00000000000E+00 0. -1.
         -2   -1    0    0    0  501 -0.00000000000E+00 -0.00000000000E+00 -0.35158399654E+02  0.35158399654E+02  0.00000000000E+00 0.  1.
         25    2    1    2    0    0 -0.12048875616E+03  0.17945021127E+02  0.51483229082E+03  0.54363474944E+03  0.12508752527E+03 0.  0.
          5    1    3    3  502    0 -0.74627067364E+02  0.10634490372E+02  0.95593304666E+02  0.12181068864E+03  0.41800000000E+01 0.  1.
         -5    1    3    3    0  502 -0.45861688796E+02  0.73105307549E+01  0.41923898616E+03  0.42182406080E+03  0.41800000000E+01 0.  1.
        -11    1    1    2    0    0  0.92302712700E+02 -0.42171721084E+02  0.12663466252E+03  0.16227933504E+03  0.00000000000E+00 0.  1.
         11    1    1    2    0    0  0.28186043459E+02  0.24226699957E+02  0.11473672736E+03  0.12060639553E+03  0.00000000000E+00 0. -1.
</event>
<event>
 7    1  0.2601031E-009  0.1308831E+03  0.7561462E-02  0.1226151E+00
          4   -1    0    0  501    0  0.00000000000E+00  0.00000000000E+00  0.27012038071E+02  0.27012038071E+02  0.00000000000E+00 0.  1.
         -4   -1    0    0    0  501 -0.00000000000E+00 -0.00000000000E+00 -0.82370269901E+03  0.82370269901E+03  0.00000000000E+00 0. -1.
         25    2    1    2    0    0 -0.99807161356E+02  0.12616754306E+02 -0.48581537345E+03  0.51165148337E+03  0.12510000563E+03 0.  0.
          5    1    3    3  502    0 -0.12956749176E+03  0.13898030138E+02 -0.40070342500E+03  0.42138058495E+03  0.41800000000E+01 0.  1.
         -5    1    3    3    0  502  0.29760330403E+02 -0.12812758321E+01 -0.85111948452E+02  0.90270898427E+02  0.41800000000E+01 0.  1.
        -11    1    1    2    0    0  0.18841334594E+02  0.22969330534E+01 -0.16344148166E+01  0.19051065654E+02  0.00000000000E+00 0.  1.
         11    1    1    2    0    0  0.80965826761E+02 -0.14913687359E+02 -0.30924087266E+03  0.32001218805E+03  0.00000000000E+00 0. -1.
</event>
<event>
 7    1  0.2601031E-009  0.1387968E+03  0.7561462E-02  0.1214957E+00
         -1   -1    0    0    0  501 -0.00000000000E+00  0.00000000000E+00  0.17007115099E+03  0.17007115099E+03  0.00000000000E+00 0.  1.
          1   -1    0    0  501    0  0.00000000000E+00 -0.00000000000E+00 -0.34331926226E+03  0.34331926226E+03  0.00000000000E+00 0. -1.
         25    2    1    2    0    0 -0.10612470969E+03  0.62358317831E+02 -0.27773324644E+03  0.32853428351E+03  0.12509198796E+03 0.  0.
          5    1    3    3  502    0 -0.74655299912E+02  0.83036502398E+02 -0.11082059239E+03  0.15737582608E+03  0.41800000000E+01 0.  1.
         -5    1    3    3    0  502 -0.31469409779E+02 -0.20678184567E+02 -0.16691265405E+03  0.17115845744E+03  0.41800000000E+01 0.  1.
        -11    1    1    2    0    0  0.42915530258E+02 -0.60989422197E+01 -0.80175116847E+01  0.44081972813E+02  0.00000000000E+00 0.  1.
         11    1    1    2    0    0  0.63209179434E+02 -0.56259375611E+02  0.11250264685E+03  0.14077415692E+03  0.00000000000E+00 0. -1.
</event>
<event>
 7    1  0.2601031E-009  0.2987560E+03  0.7561462E-02  0.1085864E+00
         -4   -1    0    0    0  501 -0.00000000000E+00  0.00000000000E+00  0.18239842394E+03  0.18239842394E+03  0.00000000000E+00 0.  1.
          4   -1    0    0  501    0  0.00000000000E+00 -0.00000000000E+00 -0.84092505093E+03  0.84092505093E+03  0.00000000000E+00 0. -1.
         25    2    1    2    0    0 -0.25331166092E+03  0.13226392468E+03 -0.13806065146E+02  0.31224948082E+03  0.12509431443E+03 0.  0.
          5    1    3    3  502    0 -0.20407995691E+03  0.15600712564E+03 -0.69736383805E+01  0.25700769657E+03  0.41800000000E+01 0. -1.
         -5    1    3    3    0  502 -0.49231704013E+02 -0.23743200956E+02 -0.68324267652E+01  0.55241784250E+02  0.41800000000E+01 0. -1.
        -11    1    1    2    0    0  0.21843215853E+03 -0.11530046716E+03 -0.45788647356E+03  0.52025650238E+03  0.00000000000E+00 0.  1.
         11    1    1    2    0    0  0.34879502397E+02 -0.16963457524E+02 -0.18683408829E+03  0.19081749166E+03  0.00000000000E+00 0. -1.
</event>
<event>
 7    1  0.2601031E-009  0.8555926E+02  0.7561462E-02  0.1313976E+00
          1   -1    0    0  501    0  0.00000000000E+00  0.00000000000E+00  0.57930789142E+03  0.57930789142E+03  0.00000000000E+00 0. -1.
         -1   -1    0    0    0  501 -0.00000000000E+00 -0.00000000000E+00 -0.28211660495E+02  0.28211660495E+02  0.00000000000E+00 0.  1.
         25    2    1    2    0    0 -0.75620082276E+01 -0.53962598708E+02  0.25006865205E+03  0.28486886484E+03  0.12508714319E+03 0.  0.
          5    1    3    3  502    0 -0.57852213021E+01 -0.45185513218E+02  0.26391896199E+03  0.26785423329E+03  0.41800000000E+01 0. -1.
         -5    1    3    3    0  502 -0.17767869255E+01 -0.87770854905E+01 -0.13850309943E+02  0.17014631557E+02  0.41800000000E+01 0. -1.
        -11    1    1    2    0    0  0.53893989650E+02  0.39947743913E+02  0.19126506906E+03  0.20268870468E+03  0.00000000000E+00 0.  1.
         11    1    1    2    0    0 -0.46331981423E+02  0.14014854795E+02  0.10976250982E+03  0.11996198239E+03  0.00000000000E+00 0. -1.
</event>
<event>
 7    1  0.2601031E-009  0.8241188E+02  0.7561462E-02  0.1322343E+00
         -1   -1    0    0    0  501 -0.00000000000E+00  0.00000000000E+00  0.16552286150E+03  0.16552286150E+03  0.00000000000E+00 0.  1.
          1   -1    0    0  501    0  0.00000000000E+00 -0.00000000000E+00 -0.91308645213E+02  0.91308645213E+02  0.00000000000E+00 0. -1.
         25    2    1    2    0    0 -0.42872667751E+02 -0.24788931238E+02  0.14477975100E+02  0.13531991824E+03  0.12509720923E+03 0.  0.
          5    1    3    3  502    0 -0.50088209518E+02 -0.33047056611E+02 -0.44729249608E+02  0.74960755425E+02  0.41800000000E+01 0.  1.
         -5    1    3    3    0  502  0.72155417665E+01  0.82581253733E+01  0.59207224708E+02  0.60359162811E+02  0.41800000000E+01 0.  1.
        -11    1    1    2    0    0  0.23644690377E+02  0.53435600158E+02  0.64098467948E+02  0.86735507957E+02  0.00000000000E+00 0.  1.
         11    1    1    2    0    0  0.19227977374E+02 -0.28646668920E+02 -0.43622267589E+01  0.34776080521E+02  0.00000000000E+00 0. -1.
</event>
<event>
 7    1  0.2601031E-009  0.2347270E+03  0.7561462E-02  0.1123356E+00
          1   -1    0    0  501    0  0.00000000000E+00  0.00000000000E+00  0.57861592225E+03  0.57861592225E+03  0.00000000000E+00 0. -1.
         -1   -1    0    0    0  501 -0.00000000000E+00 -0.00000000000E+00 -0.13595673280E+03  0.13595673280E+03  0.00000000000E+00 0.  1.
         25    2    1    2    0    0  0.14313561442E+03  0.18423218153E+03  0.36594918667E+03  0.45165963075E+03  0.12509322122E+03 0.  0.
          5    1    3    3  502    0  0.11841662100E+03  0.14043528485E+03  0.17353521431E+03  0.25273802319E+03  0.41800000000E+01 0. -1.
         -5    1    3    3    0  502  0.24718993422E+02  0.43796896680E+02  0.19241397236E+03  0.19892160756E+03  0.41800000000E+01 0. -1.
        -11    1    1    2    0    0 -0.82360756651E+02 -0.12941909826E+03  0.40276166972E+01  0.15345624434E+03  0.00000000000E+00 0. -1.
         11    1    1    2    0    0 -0.60774857767E+02 -0.54813083265E+02  0.72682386079E+02  0.10945677996E+03  0.00000000000E+00 0.  1.
</event>
<event>
 7    1  0.2601031E-009  0.1021539E+03  0.7561462E-02  0.1275831E+00
         -2   -1    0    0    0  501 -0.00000000000E+00  0.00000000000E+00  0.14474432456E+03  0.14474432456E+03  0.00000000000E+00 0.  1.
          2   -1    0    0  501    0  0.00000000000E+00 -0.00000000000E+00 -0.10160012662E+03  0.10160012662E+03  0.00000000000E+00 0. -1.
         25    2    1    2    0    0  0.50622739353E+02 -0.22757503020E+02  0.43541450768E+02  0.14361094830E+03  0.12509069052E+03 0.  0.
          5    1    3    3  502    0  0.64653087966E+02 -0.65111129636E+02  0.32757163374E+02  0.97519152675E+02  0.41800000000E+01 0.  1.
         -5    1    3    3    0  502 -0.14030348614E+02  0.42353626616E+02  0.10784287394E+02  0.46091795630E+02  0.41800000000E+01 0.  1.
        -11    1    1    2    0    0 -0.40299441630E+02 -0.24795065464E+01  0.38129377951E+02  0.55534155358E+02  0.00000000000E+00 0.  1.
         11    1    1    2    0    0 -0.10323297723E+02  0.25237009566E+02 -0.38526630774E+02  0.47199347522E+02  0.00000000000E+00 0. -1.
</event>
<event>
 7    1  0.2601031E-009  0.8510227E+02  0.7561462E-02  0.1315165E+00
         -2   -1    0    0    0  501 -0.00000000000E+00  0.00000000000E+00  0.28126748467E+02  0.28126748467E+02  0.00000000000E+00 0.  1.
          2   -1    0    0  501    0  0.00000000000E+00 -0.00000000000E+00 -0.86309073007E+03  0.86309073007E+03  0.00000000000E+00 0. -1.
         25    2    1    2    0    0 -0.66707070259E+01  0.96139872396E+01 -0.76283203673E+03  0.77310759482E+03  0.12508281190E+03 0.  0.
          5    1    3    3  502    0  0.23707763679E+02  0.32118690281E+02 -0.82836243122E+02  0.92048812587E+02  0.41800000000E+01 0. -1.
         -5    1    3    3    0  502 -0.30378470705E+02 -0.22504703042E+02 -0.67999579360E+03  0.68105878224E+03  0.41800000000E+01 0. -1.
        -11    1    1    2    0    0 -0.64513346393E+01 -0.49562416235E+02 -0.28593071114E+02  0.57581390548E+02  0.00000000000E+00 0.  1.
         11    1    1    2    0    0  0.13122041665E+02  0.39948428995E+02 -0.43538873762E+02  0.60528493167E+02  0.00000000000E+00 0. -1.
</event>
<event>
 7    1  0.2601031E-009  0.1028904E+03  0.7561462E-02  0.1274333E+00
         -1   -1    0    0    0  501 -0.00000000000E+00  0.00000000000E+00  0.34700284115E+02  0.34700284115E+02  0.00000000000E+00 0.  1.
          1   -1    0    0  501    0  0.00000000000E+00 -0.00000000000E+00 -0.59131554828E+03  0.59131554828E+03  0.00000000000E+00 0. -1.
         25    2    1    2    0    0 -0.19612538475E+02  0.43247249204E+02 -0.12726514508E+03  0.18466036012E+03  0.12509218689E+03 0.  0.
          5    1    3    3  502    0  0.33271536106E+02  0.39449957676E+02 -0.12036658280E+03  0.13103007643E+03  0.41800000000E+01 0.  1.
         -5    1    3    3    0  502 -0.52884074581E+02  0.37972915274E+01 -0.68985622782E+01  0.53630283690E+02  0.41800000000E+01 0.  1.
        -11    1    1    2    0    0 -0.30114964469E+02 -0.41222735464E+02 -0.25398748152E+03  0.25906729970E+03  0.00000000000E+00 0. -1.
         11    1    1    2    0    0  0.49727502945E+02 -0.20245137402E+01 -0.17536263757E+03  0.18228817257E+03  0.00000000000E+00 0.  1.
</event>
<event>
 7    1  0.2601031E-009  0.9197135E+02  0.7561462E-02  0.1298147E+00
          1   -1    0    0  501    0  0.00000000000E+00  0.00000000000E+00  0.19041582860E+03  0.19041582860E+03  0.00000000000E+00 0. -1.
         -1   -1    0    0    0  501 -0.00000000000E+00 -0.00000000000E+00 -0.67648822306E+02  0.67648822306E+02  0.00000000000E+00 0.  1.
         25    2    1    2    0    0  0.96091792566E+01 -0.12587303838E+01  0.10900034123E+03  0.16619950254E+03  0.12508908636E+03 0.  0.
          5    1    3    3  502    0 -0.56400580543E+02  0.65857720176E+01  0.35921832734E+02  0.67321975206E+02  0.41800000000E+01 0. -1.
         -5    1    3    3    0  502  0.66009759799E+02 -0.78445024015E+01  0.73078508497E+02  0.98877527330E+02  0.41800000000E+01 0. -1.
        -11    1    1    2    0    0 -0.23994089901E+02  0.23711914794E+02 -0.26961213069E+02  0.43184236285E+02  0.00000000000E+00 0.  1.
         11    1    1    2    0    0  0.14384910644E+02 -0.22453184410E+02  0.40727878129E+02  0.48680912084E+02  0.00000000000E+00 0. -1.
</event>
<event>
 7    1  0.2601031E-009  0.1226009E+03  0.7561462E-02  0.1238867E+00
         -1   -1    0    0    0  501 -0.00000000000E+00  0.00000000000E+00  0.77392530278E+02  0.77392530278E+02  0.00000000000E+00 0.  1.
          1   -1    0    0  501    0  0.00000000000E+00 -0.00000000000E+00 -0.22853780576E+03  0.22853780576E+03  0.00000000000E+00 0. -1.
         25    2    1    2    0    0 -0.72995422741E+02 -0.98871907787E+01 -0.10347544017E+03  0.17827254512E+03  0.12509134799E+03 0.  0.
          5    1    3    3  502    0  0.23595278487E+02  0.13282860744E+02  0.83508740344E+01  0.28642294838E+02  0.41800000000E+01 0. -1.
         -5    1    3    3    0  502 -0.96590701228E+02 -0.23170051523E+02 -0.11182631420E+03  0.14963025028E+03  0.41800000000E+01 0. -1.
        -11    1    1    2    0    0  0.48846093598E+02  0.51054415143E+02 -0.26859488507E+02  0.75590517185E+02  0.00000000000E+00 0.  1.
         11    1    1    2    0    0  0.24149329143E+02 -0.41167224364E+02 -0.20810346809E+02  0.52067273735E+02  0.00000000000E+00 0. -1.
</event>
<event>
 7    1  0.2601031E-009  0.1135904E+03  0.7561462E-02  0.1254062E+00
         -1   -1    0    0    0  501 -0.00000000000E+00  0.00000000000E+00  0.25343137232E+03  0.25343137232E+03  0.00000000000E+00 0.  1.
          1   -1    0    0  501    0  0.00000000000E+00 -0.00000000000E+00 -0.63818889871E+02  0.63818889871E+02  0.00000000000E+00 0. -1.
         25    2    1    2    0    0  0.34761876238E+02  0.27987280861E+01  0.39082346469E+02  0.13561860690E+03  0.12509498717E+03 0.  0.
          5    1    3    3  502    0 -0.10787902395E+02 -0.53238018026E+02  0.31387417419E+02  0.62875335177E+02  0.41800000000E+01 0.  1.
         -5    1    3    3    0  502  0.45549778633E+02  0.56036746112E+02  0.76949290501E+01  0.72743271726E+02  0.41800000000E+01 0.  1.
        -11    1    1    2    0    0  0.29391137241E+02 -0.17960862232E+02  0.65885201590E+02  0.74345755151E+02  0.00000000000E+00 0.  1.
         11    1    1    2    0    0 -0.64153013479E+02  0.15162134146E+02  0.84644934390E+02  0.10728590014E+03  0.00000000000E+00 0. -1.
</event>
<event>
 7    1  0.2601031E-009  0.8203709E+02  0.7561462E-02  0.1323368E+00
          1   -1    0    0  501    0  0.00000000000E+00  0.00000000000E+00  0.43929076708E+02  0.43929076708E+02  0.00000000000E+00 0. -1.
         -1   -1    0    0    0  501 -0.00000000000E+00 -0.00000000000E+00 -0.30592425469E+03  0.30592425469E+03  0.00000000000E+00 0.  1.
         25    2    1    2    0    0  0.16013915250E+02  0.20568722645E+02 -0.19973114296E+03  0.23710695927E+03  0.12509061849E+03 0.  0.
          5    1    3    3  502    0  0.62643398210E+01 -0.44688583239E+02 -0.14293421430E+03  0.14994656863E+03  0.41800000000E+01 0. -1.
         -5    1    3    3    0  502  0.97495754288E+01  0.65257305884E+02 -0.56796928664E+02  0.87160390649E+02  0.41800000000E+01 0. -1.
        -11    1    1    2    0    0 -0.60473056983E+00 -0.32900145304E+02 -0.79817074210E+02  0.86333948106E+02  0.00000000000E+00 0.  1.
         11    1    1    2    0    0 -0.15409184680E+02  0.12331422659E+02  0.17553039196E+02  0.26412424014E+02  0.00000000000E+00 0. -1.
</event>
<event>
 7    1  0.2601031E-009  0.1449679E+03  0.7561462E-02  0.1206796E+00
          1   -1    0    0  501    0  0.00000000000E+00  0.00000000000E+00  0.12991144982E+03  0.12991144982E+03  0.00000000000E+00 0. -1.
         -1   -1    0    0    0  501 -0.00000000000E+00 -0.00000000000E+00 -0.44154765158E+03  0.44154765158E+03  0.00000000000E+00 0.  1.
         25    2    1    2    0    0  0.11631115035E+03  0.45518074431E+02 -0.36788922630E+03  0.40815477322E+03  0.12509059630E+03 0.  0.
          5    1    3    3  502    0  0.15141679360E+02 -0.15932687733E+02 -0.75422117028E+00  0.22386653207E+02  0.41800000000E+01 0. -1.
         -5    1    3    3    0  502  0.10116947099E+03  0.61450762164E+02 -0.36713500513E+03  0.38576812002E+03  0.41800000000E+01 0. -1.
        -11    1    1    2    0    0 -0.94274524564E+02  0.45819961017E+01  0.53520006406E+02  0.10850378683E+03  0.00000000000E+00 0. -1.
         11    1    1    2    0    0 -0.22036625784E+02 -0.50100070533E+02  0.27330181359E+01  0.54800541343E+02  0.00000000000E+00 0.  1.
</event>
<event>
 7    1  0.4333957E-009  0.1166273E+03  0.7561462E-02  0.1248767E+00
         -2   -1    0    0    0  501 -0.00000000000E+00  0.00000000000E+00  0.17924341676E+02  0.17924341676E+02  0.00000000000E+00 0. -1.
          2   -1    0    0  501    0  0.00000000000E+00 -0.00000000000E+00 -0.13598260577E+04  0.13598260577E+04  0.00000000000E+00 0.  1.
         25    2    1    2    0    0  0.94761959713E+02 -0.49996073088E+01 -0.98449747055E+03  0.99693925886E+03  0.12509113182E+03 0.  0.
          5    1    3    3  502    0  0.10138524676E+03 -0.34872483285E+02 -0.90986438356E+03  0.91616904947E+03  0.41800000000E+01 0. -1.
         -5    1    3    3    0  502 -0.66232870438E+01  0.29872875976E+02 -0.74633086993E+02  0.80770209387E+02  0.41800000000E+01 0. -1.
        -11    1    1    2    0    0 -0.62909589446E+02  0.60977285245E+01 -0.33720666886E+03  0.34307890676E+03  0.00000000000E+00 0.  1.
         11    1    1    2    0    0 -0.31852370266E+02 -0.10981212156E+01 -0.20197576573E+02  0.37732233716E+02  0.00000000000E+00 0. -1.
</event>
<event>
 7    1  0.2601031E-009  0.9930813E+02  0.7561462E-02  0.1281758E+00
          1   -1    0    0  501    0  0.00000000000E+00  0.00000000000E+00  0.36462217157E+03  0.36462217157E+03  0.00000000000E+00 0. -1.
         -1   -1    0    0    0  501 -0.00000000000E+00 -0.00000000000E+00 -0.37063811131E+02  0.37063811131E+02  0.00000000000E+00 0.  1.
         25    2    1    2    0    0 -0.14259548214E+02  0.16247368704E+02  0.13400134065E+03  0.18458584290E+03  0.12509301498E+03 0.  0.
          5    1    3    3  502    0 -0.58050984733E+02  0.33292961152E+02  0.36669322558E+02  0.76422834988E+02  0.41800000000E+01 0. -1.
         -5    1    3    3    0  502  0.43791436519E+02 -0.17045592447E+02  0.97332018090E+02  0.10816300791E+03  0.41800000000E+01 0. -1.
        -11    1    1    2    0    0 -0.32515588130E+02 -0.18770957372E+02  0.33460467820E+02  0.50291303610E+02  0.00000000000E+00 0.  1.
         11    1    1    2    0    0  0.46775136344E+02  0.25235886673E+01  0.16009655197E+03  0.16680883620E+03  0.00000000000E+00 0. -1.
</event>
<event>
 7    1  0.2601031E-009  0.6688118E+02  0.7561462E-02  0.1371032E+00
         -2   -1    0    0    0  501 -0.00000000000E+00  0.00000000000E+00  0.10211633545E+03  0.10211633545E+03  0.00000000000E+00 0.  1.
          2   -1    0    0  501    0  0.00000000000E+00 -0.00000000000E+00 -0.16634074197E+03  0.16634074197E+03  0.00000000000E+00 0. -1.
         25    2    1    2    0    0 -0.13761083176E+02  0.24035357579E+02  0.31601684156E+02  0.13195970465E+03  0.12509049278E+03 0.  0.
          5    1    3    3  502    0  0.96425847924E+01 -0.33392423728E+01 -0.45468718878E+02  0.46786822691E+02  0.41800000000E+01 0. -1.
         -5    1    3    3    0  502 -0.23403667968E+02  0.27374599952E+02  0.77070403034E+02  0.85172881956E+02  0.41800000000E+01 0. -1.
        -11    1    1    2    0    0 -0.24490914585E+02  0.17432592866E+02 -0.63571900892E+01  0.30726439057E+02  0.00000000000E+00 0.  1.
         11    1    1    2    0    0  0.38251997761E+02 -0.41467950445E+02 -0.89468900592E+02  0.10577093372E+03  0.00000000000E+00 0. -1.
</event>
<event>
 7    1  0.2601031E-009  0.1044456E+03  0.7561462E-02  0.1271216E+00
         -2   -1    0    0    0  501 -0.00000000000E+00  0.00000000000E+00  0.63327416878E+02  0.63327416878E+02  0.00000000000E+00 0.  1.
          2   -1    0    0  501    0  0.00000000000E+00 -0.00000000000E+00 -0.27000332362E+03  0.27000332362E+03  0.00000000000E+00 0. -1.
         25    2    1    2    0    0  0.40818420535E+02 -0.40317730438E+01 -0.19197502956E+03  0.23276991958E+03  0.12508007371E+03 0.  0.
          5    1    3    3  502    0 -0.40360025088E+02  0.16855250629E+02 -0.41316407094E+02  0.60312096581E+02  0.41800000000E+01 0. -1.
         -5    1    3    3    0  502  0.81178445623E+02 -0.20887023673E+02 -0.15065862246E+03  0.17245782300E+03  0.41800000000E+01 0. -1.
        -11    1    1    2    0    0 -0.17646944272E+02  0.36847429286E+02  0.21778399377E+02  0.46297368894E+02  0.00000000000E+00 0.  1.
         11    1    1    2    0    0 -0.23171476263E+02 -0.32815656242E+02 -0.36479276559E+02  0.54263452020E+02  0.00000000000E+00 0. -1.
</event>
<event>
 7    1  0.2601031E-009  0.1161002E+03  0.7561462E-02  0.1249673E+00
          2   -1    0    0  501    0  0.00000000000E+00  0.00000000000E+00  0.16211784086E+04  0.16211784086E+04  0.00000000000E+00 0. -1.
         -2   -1    0    0    0  501 -0.00000000000E+00 -0.00000000000E+00 -0.14129413510E+02  0.14129413510E+02  0.00000000000E+00 0.  1.
         25    2    1    2    0    0 -0.32850091205E+02  0.34273498908E+02  0.13649131109E+04  0.13714546714E+04  0.12508522787E+03 0.  0.
          5    1    3    3  502    0 -0.37367863905E+02  0.79460320220E+02  0.93982056525E+03  0.94392291370E+03  0.41800000000E+01 0.  1.
         -5    1    3    3    0  502  0.45177726991E+01 -0.45186821312E+02  0.42509254567E+03  0.42753175774E+03  0.41800000000E+01 0.  1.
        -11    1    1    2    0    0  0.45815516183E+02  0.14630730014E+02  0.16282030107E+03  0.16977505772E+03  0.00000000000E+00 0. -1.
         11    1    1    2    0    0 -0.12965424978E+02 -0.48904228922E+02  0.79315583119E+02  0.94078092970E+02  0.00000000000E+00 0.  1.
</event>
<event>
 7    1  0.2601031E-009  0.1101343E+03  0.7561462E-02  0.1260321E+00
         -2   -1    0    0    0  501 -0.00000000000E+00  0.00000000000E+00  0.44894417904E+03  0.44894417904E+03  0.00000000000E+00 0. -1.
          2   -1    0    0  501    0  0.00000000000E+00 -0.00000000000E+00 -0.28519814551E+02  0.28519814551E+02  0.00000000000E+00 0.  1.
         25    2    1    2    0    0  0.14229214916E+02 -0.18533736031E+02  0.19841383512E+03  0.23571413785E+03  0.12508850822E+03 0.  0.
          5    1    3    3  502    0 -0.34825788995E+02 -0.54418885618E+02  0.83609331993E+02  0.10574612753E+03  0.41800000000E+01 0. -1.
         -5    1    3    3    0  502  0.49055003911E+02  0.35885149587E+02  0.11480450313E+03  0.12996801032E+03  0.41800000000E+01 0. -1.
        -11    1    1    2    0    0 -0.22955187566E+02  0.53683488180E+02  0.15402191127E+03  0.16471674684E+03  0.00000000000E+00 0. -1.
         11    1    1    2    0    0  0.87259726496E+01 -0.35149752149E+02  0.67988618101E+02  0.77033108895E+02  0.00000000000E+00 0.  1.
</event>
<event>
 7    1  0.2601031E-009  0.1283285E+03  0.7561462E-02  0.1229957E+00
          2   -1    0    0  501    0  0.00000000000E+00  0.00000000000E+00  0.55507912365E+03  0.55507912365E+03  0.00000000000E+00 0. -1.
         -2   -1    0    0    0  501 -0.00000000000E+00 -0.00000000000E+00 -0.37241692845E+02  0.37241692845E+02  0.00000000000E+00 0.  1.
         25    2    1    2    0    0 -0.26953389076E+01  0.93614469783E+02  0.30133380386E+03  0.33944138743E+03  0.12508980911E+03 0.  0.
          5    1    3    3  502    0  0.11582263138E+02 -0.22105049003E+02  0.13107922342E+02  0.28496877705E+02  0.41800000000E+01 0. -1.
         -5    1    3    3    0  502 -0.14277602046E+02  0.11571951879E+03  0.28822588152E+03  0.31094450972E+03  0.41800000000E+01 0. -1.
        -11    1    1    2    0    0 -0.30546568919E+02 -0.60427518405E+02  0.18316295954E+03  0.19527736070E+03  0.00000000000E+00 0.  1.
         11    1    1    2    0    0  0.33241907827E+02 -0.33186951378E+02  0.33340667402E+02  0.57602068370E+02  0.00000000000E+00 0. -1.
</event>
<event>
 7    1  0.2601031E-009  0.2029905E+03  0.7561462E-02  0.1147240E+00
          2   -1    0    0  501    0  0.00000000000E+00  0.00000000000E+00  0.41007085221E+03  0.41007085221E+03  0.00000000000E+00 0. -1.
         -2   -1    0    0    0  501 -0.00000000000E+00 -0.00000000000E+00 -0.14953300447E+03  0.14953300447E+03  0.00000000000E+00 0.  1.
         25    2    1    2    0    0 -0.98164922581E+02 -0.15698289921E+03 -0.52686439485E+01  0.22350960932E+03  0.12509518048E+03 0.  0.
          5    1    3    3  502    0 -0.11007249805E+03 -0.15490423779E+03  0.23984273733E+02  0.19158286849E+03  0.41800000000E+01 0. -1.
         -5    1    3    3    0  502  0.11907575473E+02 -0.20786614232E+01 -0.29252917682E+02  0.31926740827E+02  0.41800000000E+01 0. -1.
        -11    1    1    2    0    0  0.23092449850E+02  0.11460376457E+03  0.17867386243E+03  0.21352197360E+03  0.00000000000E+00 0.  1.
         11    1    1    2    0    0  0.75072472731E+02  0.42379134639E+02  0.87132629259E+02  0.12257227377E+03  0.00000000000E+00 0. -1.
</event>
<event>
 7    1  0.2695521E-009  0.1247293E+03  0.7561462E-02  0.1235493E+00
         -2   -1    0    0    0  501 -0.00000000000E+00  0.00000000000E+00  0.13125078419E+03  0.13125078419E+03  0.00000000000E+00 0.  1.
          2   -1    0    0  501    0  0.00000000000E+00 -0.00000000000E+00 -0.13446104809E+03  0.13446104809E+03  0.00000000000E+00 0. -1.
         25    2    1    2    0    0  0.58558678701E+02  0.48458893811E+02 -0.85321506892E+01  0.14661983680E+03  0.12508875132E+03 0.  0.
          5    1    3    3  502    0  0.61396018980E+02 -0.29272896580E+02  0.92509710898E+00  0.68152049312E+02  0.41800000000E+01 0. -1.
         -5    1    3    3    0  502 -0.28373402784E+01  0.77731790392E+02 -0.94572477982E+01  0.78467787488E+02  0.41800000000E+01 0. -1.
        -11    1    1    2    0    0 -0.58489297049E+02 -0.36446473520E+01  0.32168790011E+02  0.66851420137E+02  0.00000000000E+00 0.  1.
         11    1    1    2    0    0 -0.69381652773E-01 -0.44814246459E+02 -0.26846903224E+02  0.52240575344E+02  0.00000000000E+00 0. -1.
</event>
<event>
 7    1  0.2601031E-009  0.1976943E+03  0.7561462E-02  0.1151699E+00
         -2   -1    0    0    0  501 -0.00000000000E+00  0.00000000000E+00  0.25888355410E+02  0.25888355410E+02  0.00000000000E+00 0. -1.
          2   -1    0    0  501    0  0.00000000000E+00 -0.00000000000E+00 -0.19471805954E+04  0.19471805954E+04  0.00000000000E+00 0.  1.
         25    2    1    2    0    0 -0.67384782587E+02  0.16302856133E+03 -0.13809055103E+04  0.13977366903E+04  0.12509518909E+03 0.  0.
          5    1    3    3  502    0  0.15678702081E+02  0.11873774040E+01 -0.26024618268E+02  0.30691769581E+02  0.41800000000E+01 0. -1.
         -5    1    3    3    0  502 -0.83063484669E+02  0.16184118393E+03 -0.13548808921E+04  0.13670449208E+04  0.41800000000E+01 0. -1.
        -11    1    1    2    0    0 -0.19770698678E+02 -0.13032597269E+02 -0.75832032221E+02  0.79443226449E+02  0.00000000000E+00 0.  1.
         11    1    1    2    0    0  0.87155481265E+02 -0.14999596406E+03 -0.46455469744E+03  0.49588903402E+03  0.00000000000E+00 0. -1.
</event>
<event>
 7    1  0.2601031E-009  0.1068082E+03  0.7561462E-02  0.1266597E+00
          2   -1    0    0  501    0  0.00000000000E+00  0.00000000000E+00  0.50240675978E+03  0.50240675978E+03  0.00000000000E+00 0.  1.
         -2   -1    0    0    0  501 -0.00000000000E+00 -0.00000000000E+00 -0.68888408148E+02  0.68888408148E+02  0.00000000000E+00 0. -1.
         25    2    1    2    0    0 -0.31600821882E+02 -0.36985167716E+02  0.44691089201E+03  0.46662974348E+03  0.12508979785E+03 0.  0.
          5    1    3    3  502    0 -0.69068401277E+02 -0.43126301659E+01  0.35825349496E+03  0.36490009850E+03  0.41800000000E+01 0. -1.
         -5    1    3    3    0  502  0.37467579395E+02 -0.32672537550E+02  0.88657397045E+02  0.10172964497E+03  0.41800000000E+01 0. -1.
        -11    1    1    2    0    0  0.98538784866E+01 -0.25979343155E+02 -0.24605436437E+02  0.37114049823E+02  0.00000000000E+00 0. -1.
         11    1    1    2    0    0  0.21746943395E+02  0.62964510870E+02  0.11212896062E+02  0.67551374629E+02  0.00000000000E+00 0.  1.
</event>
<event>
 7    1  0.2601031E-009  0.1000891E+03  0.7561462E-02  0.1280109E+00
          2   -1    0    0  501    0  0.00000000000E+00  0.00000000000E+00  0.17934239321E+03  0.17934239321E+03  0.00000000000E+00 0. -1.
         -2   -1    0    0    0  501 -0.00000000000E+00 -0.00000000000E+00 -0.82516465710E+02  0.82516465710E+02  0.00000000000E+00 0.  1.
         25    2    1    2    0    0  0.41707762834E+02 -0.16710095946E+01  0.13670359164E+02  0.13257852227E+03  0.12509139097E+03 0.  0.
          5    1    3    3  502    0 -0.23671686173E+02  0.41492246763E+02  0.23694247613E+02  0.53486867899E+02  0.41800000000E+01 0.  1.
         -5    1    3    3    0  502  0.65379449007E+02 -0.43163256357E+02 -0.10023888450E+02  0.79091654373E+02  0.41800000000E+01 0.  1.
        -11    1    1    2    0    0 -0.53692780843E+02  0.15096999208E+02  0.93241302489E+02  0.10864977952E+03  0.00000000000E+00 0. -1.
         11    1    1    2    0    0  0.11985018008E+02 -0.13425989614E+02 -0.10085734157E+02  0.20630557124E+02  0.00000000000E+00 0.  1.
</event>
<event>
 7    1  0.2601031E-009  0.1079629E+03  0.7561462E-02  0.1264389E+00
          1   -1    0    0  501    0  0.00000000000E+00  0.00000000000E+00  0.12742936809E+04  0.12742936809E+04  0.00000000000E+00 0. -1.
         -1   -1    0    0    0  501 -0.00000000000E+00 -0.00000000000E+00 -0.14415279839E+02  0.14415279839E+02  0.00000000000E+00 0.  1.
         25    2    1    2    0    0  0.22293266822E+01  0.30527051163E+02  0.10679156858E+04  0.10756525214E+04  0.12509022416E+03 0.  0.
          5    1    3    3  502    0  0.49818540779E+02 -0.22555174257E+02  0.57161860464E+03  0.57424378487E+03  0.41800000000E+01 0. -1.
         -5    1    3    3    0  502 -0.47589214096E+02  0.53082225420E+02  0.49629708113E+03  0.50140873655E+03  0.41800000000E+01 0. -1.
        -11    1    1    2    0    0  0.24390847317E+02  0.20663820726E+02  0.94896396489E+02  0.10013607235E+03  0.00000000000E+00 0. -1.
         11    1    1    2    0    0 -0.26620173999E+02 -0.51190871890E+02  0.97066318789E+02  0.11292036695E+03  0.00000000000E+00 0.  1.
</event>
<event>
 7    1  0.2601031E-009  0.1667754E+03  0.7561462E-02  0.1181253E+00
          2   -1    0    0  501    0  0.00000000000E+00  0.00000000000E+00  0.34975233841E+03  0.34975233841E+03  0.00000000000E+00 0. -1.
         -2   -1    0    0    0  501 -0.00000000000E+00 -0.00000000000E+00 -0.89304832203E+02  0.89304832203E+02  0.00000000000E+00 0.  1.
         25    2    1    2    0    0  0.59994601173E+02  0.11860849362E+03  0.87090742149E+02  0.20223483145E+03  0.12508718062E+03 0.  0.
          5    1    3    3  502    0 -0.33006874918E+01  0.11244490190E+03  0.29584546548E+02  0.11639359216E+03  0.41800000000E+01 0. -1.
         -5    1    3    3    0  502  0.63295288665E+02  0.61635917172E+01  0.57506195602E+02  0.85841239289E+02  0.41800000000E+01 0. -1.
        -11    1    1    2    0    0 -0.81468084027E+02 -0.88788428494E+02  0.10786676751E+03  0.16172715691E+03  0.00000000000E+00 0.  1.
         11    1    1    2    0    0  0.21473482854E+02 -0.29820065124E+02  0.65489996547E+02  0.75095182252E+02  0.00000000000E+00 0. -1.
</event>
<event>
 7    1  0.2601031E-009  0.1613615E+03  0.7561462E-02  0.1187168E+00
          2   -1    0    0  501    0  0.00000000000E+00  0.00000000000E+00  0.38589565993E+03  0.38589565993E+03  0.00000000000E+00 0. -1.
         -2   -1    0    0    0  501 -0.00000000000E+00 -0.00000000000E+00 -0.80328971204E+02  0.80328971204E+02  0.00000000000E+00 0.  1.
         25    2    1    2    0    0  0.69043955045E+02  0.11956871371E+03  0.17986444260E+03  0.25896369821E+03  0.12508890539E+03 0.  0.
          5    1    3    3  502    0 -0.14524929868E+02  0.44694380133E+02  0.29781022407E+00  0.47181800454E+02  0.41800000000E+01 0.  1.
         -5    1    3    3    0  502  0.83568884913E+02  0.74874333578E+02  0.17956663237E+03  0.21178189775E+03  0.41800000000E+01 0.  1.
        -11    1    1    2    0    0  0.86479270784E+01 -0.71239085286E+02  0.41400372957E+02  0.82847961931E+02  0.00000000000E+00 0.  1.
         11    1    1    2    0    0 -0.77691882123E+02 -0.48329628425E+02  0.84301873169E+02  0.12441297099E+03  0.00000000000E+00 0. -1.
</event>
<event>
 7    1  0.2601031E-009  0.2214745E+03  0.7561462E-02  0.1132789E+00
         -1   -1    0    0    0  501 -0.00000000000E+00  0.00000000000E+00  0.29754643989E+03  0.29754643989E+03  0.00000000000E+00 0.  1.
          1   -1    0    0  501    0  0.00000000000E+00 -0.00000000000E+00 -0.27688769842E+03  0.27688769842E+03  0.00000000000E+00 0. -1.
         25    2    1    2    0    0  0.21182956618E+03  0.16888765755E+02 -0.14644455790E+03  0.28679374604E+03  0.12509056205E+03 0.  0.
          5    1    3    3  502    0  0.43641134920E+02  0.16729591550E+02  0.19194230322E+02  0.50698311296E+02  0.41800000000E+01 0. -1.
         -5    1    3    3    0  502  0.16818843126E+03  0.15917420454E+00 -0.16563878822E+03  0.23609543475E+03  0.41800000000E+01 0. -1.
        -11    1    1    2    0    0 -0.10503617556E+03  0.32742467728E+02  0.47642345474E+02  0.11989353799E+03  0.00000000000E+00 0. -1.
         11    1    1    2    0    0 -0.10679339062E+03 -0.49631233483E+02  0.11946095389E+03  0.16774685428E+03  0.00000000000E+00 0.  1.
</event>
<event>
 7    1  0.2601031E-009  0.7265710E+02  0.7561462E-02  0.1351284E+00
         -2   -1    0    0    0  501 -0.00000000000E+00  0.00000000000E+00  0.34183574092E+03  0.34183574092E+03  0.00000000000E+00 0.  1.
          2   -1    0    0  501    0  0.00000000000E+00 -0.00000000000E+00 -0.41148611906E+02  0.41148611906E+02  0.00000000000E+00 0. -1.
         25    2    1    2    0    0 -0.83972467210E+01 -0.19994968487E+02  0.23922159771E+03  0.27082312269E+03  0.12509148034E+03 0.  0.
          5    1    3    3  502    0  0.46985630350E+02 -0.67547977582E+01  0.18856856514E+03  0.19449640848E+03  0.41800000000E+01 0.  1.
         -5    1    3    3    0  502 -0.55382877071E+02 -0.13240170729E+02  0.50653032574E+02  0.76326714213E+02  0.41800000000E+01 0.  1.
        -11    1    1    2    0    0  0.98936894033E+01 -0.78810384906E+01 -0.21323156945E+02  0.24792597278E+02  0.00000000000E+00 0. -1.
         11    1    1    2    0    0 -0.14964426823E+01  0.27876006978E+02  0.82788688245E+02  0.87368632856E+02  0.00000000000E+00 0.  1.
</event>
<event>
 7    1  0.2601031E-009  0.1720176E+03  0.7561462E-02  0.1175760E+00
          1   -1    0    0  501    0  0.00000000000E+00  0.00000000000E+00  0.41465920388E+03  0.41465920388E+03  0.00000000000E+00 0. -1.
         -1   -1    0    0    0  501 -0.00000000000E+00 -0.00000000000E+00 -0.89074271670E+02  0.89074271670E+02  0.00000000000E+00 0.  1.
         25    2    1    2    0    0 -0.12763315082E+03 -0.11092829513E+03  0.16130434849E+03  0.26506956237E+03  0.12508985652E+03 0.  0.
          5    1    3    3  502    0 -0.82071038687E+02 -0.92099332068E+02  0.17461319942E+03  0.21383447844E+03  0.41800000000E+01 0. -1.
         -5    1    3    3    0  502 -0.45562112134E+02 -0.18828963067E+02 -0.13308850933E+02  0.51235083931E+02  0.41800000000E+01 0. -1.
        -11    1    1    2    0    0  0.65235760060E+02  0.73881492029E+02  0.76457751515E+02  0.12473959685E+03  0.00000000000E+00 0.  1.
         11    1    1    2    0    0  0.62397390761E+02  0.37046803106E+02  0.87822832203E+02  0.11392431633E+03  0.00000000000E+00 0. -1.
</event>
<event>
 7    1  0.2601031E-009  0.1261835E+03  0.7561462E-02  0.1233231E+00
          2   -1    0    0  501    0  0.00000000000E+00  0.00000000000E+00  0.75491467627E+02  0.75491467627E+02  0.00000000000E+00 0.  1.
         -2   -1    0    0    0  501 -0.00000000000E+00 -0.00000000000E+00 -0.23861321247E+03  0.23861321247E+03  0.00000000000E+00 0. -1.
         25    2    1    2    0    0  0.24598788455E+02  0.65870773831E+02 -0.13194712601E+03  0.19493585454E+03  0.12508350845E+03 0.  0.
          5    1    3    3  502    0 -0.30365787049E+02  0.76707815716E+02 -0.10206429687E+03  0.13130408642E+03  0.41800000000E+01 0.  1.
         -5    1    3    3    0  502  0.54964575503E+02 -0.10837041886E+02 -0.29882829146E+02  0.63631768126E+02  0.41800000000E+01 0.  1.
        -11    1    1    2    0    0 -0.96860224069E+01  0.22219856104E+02 -0.14611252968E+02  0.28302468950E+02  0.00000000000E+00 0. -1.
         11    1    1    2    0    0 -0.14912766048E+02 -0.88090629934E+02 -0.16563365861E+02  0.90866356602E+02  0.00000000000E+00 0.  1.
</event>
<event>
 7    1  0.2601031E-009  0.2425891E+03  0.7561462E-02  0.1118080E+00
          1   -1    0    0  501    0  0.00000000000E+00  0.00000000000E+00  0.36783886391E+02  0.36783886391E+02  0.00000000000E+00 0. -1.
         -1   -1    0    0    0  501 -0.00000000000E+00 -0.00000000000E+00 -0.18212079133E+04  0.18212079133E+04  0.00000000000E+00 0.  1.
         25    2    1    2    0    0 -0.17439702278E+02  0.23088425672E+03 -0.77848288230E+03  0.82176302359E+03  0.12508871129E+03 0.  0.
          5    1    3    3  502    0 -0.41529653633E+02  0.62972662379E+02 -0.39874171619E+03  0.40583580050E+03  0.41800000000E+01 0.  1.
         -5    1    3    3    0  502  0.24089951355E+02  0.16791159434E+03 -0.37974116611E+03  0.41592722309E+03  0.41800000000E+01 0.  1.
        -11    1    1    2    0    0  0.34347114195E+02 -0.67954825118E+02 -0.45944367212E+03  0.46571028587E+03  0.00000000000E+00 0. -1.
         11    1    1    2    0    0 -0.16907411917E+02 -0.16292943160E+03 -0.54649747250E+03  0.57051849024E+03  0.00000000000E+00 0.  1.
</event>
<event>
 7    1  0.3184541E-009  0.8068198E+02  0.7561462E-02  0.1327127E+00
         -1   -1    0    0    0  501 -0.00000000000E+00  0.00000000000E+00  0.31293841818E+02  0.31293841818E+02  0.00000000000E+00 0.  1.
          1   -1    0    0  501    0  0.00000000000E+00 -0.00000000000E+00 -0.48113702561E+03  0.48113702561E+03  0.00000000000E+00 0. -1.
         25    2    1    2    0    0  0.55860180570E+02 -0.48931225319E+00 -0.27510279815E+03  0.30732652552E+03  0.12508974594E+03 0.  0.
          5    1    3    3  502    0  0.42440873794E+02 -0.28021067210E+02 -0.27144412222E+03  0.27619882669E+03  0.41800000000E+01 0.  1.
         -5    1    3    3    0  502  0.13419306776E+02  0.27531754957E+02 -0.36586759346E+01  0.31127698838E+02  0.41800000000E+01 0.  1.
        -11    1    1    2    0    0 -0.47837913186E+02  0.24757063279E+02 -0.37812949927E+02  0.65811832541E+02  0.00000000000E+00 0.  1.
         11    1    1    2    0    0 -0.80222673844E+01 -0.24267751026E+02 -0.13692743571E+03  0.13929250936E+03  0.00000000000E+00 0. -1.
</event>
<event>
 7    1  0.2601031E-009  0.1105756E+03  0.7561462E-02  0.1259508E+00
          1   -1    0    0  501    0  0.00000000000E+00  0.00000000000E+00  0.13621135670E+03  0.13621135670E+03  0.00000000000E+00 0. -1.
         -1   -1    0    0    0  501 -0.00000000000E+00 -0.00000000000E+00 -0.91846932933E+02  0.91846932933E+02  0.00000000000E+00 0.  1.
         25    2    1    2    0    0  0.12081493526E+02 -0.23989143402E+02  0.22021859771E+02  0.12982977294E+03  0.12509742662E+03 0.  0.
          5    1    3    3  502    0 -0.54855152950E+02  0.15605097962E+00  0.19945901233E+02  0.58518574257E+02  0.41800000000E+01 0.  1.
         -5    1    3    3    0  502  0.66936646476E+02 -0.24145194381E+02  0.20759585374E+01  0.71311198679E+02  0.41800000000E+01 0.  1.
        -11    1    1    2    0    0 -0.37937307675E+02 -0.20706479919E+02  0.16503041138E+02  0.46263895113E+02  0.00000000000E+00 0.  1.
         11    1    1    2    0    0  0.25855814149E+02  0.44695623321E+02  0.58395228610E+01  0.51964621586E+02  0.00000000000E+00 0. -1.
</event>
<event>
 7    1  0.2601031E-009  0.1127921E+03  0.7561462E-02  0.1255485E+00
         -1   -1    0    0    0  501 -0.00000000000E+00  0.00000000000E+00  0.18864616242E+03  0.18864616242E+03  0.00000000000E+00 0.  1.
          1   -1    0    0  501    0  0.00000000000E+00 -0.00000000000E+00 -0.87648004435E+02  0.87648004435E+02  0.00000000000E+00 0. -1.
         25    2    1    2    0    0 -0.12788838410E+02 -0.68744404154E+02  0.64683807027E+02  0.15722682366E+03  0.12508769602E+03 0.  0.
          5    1    3    3  502    0 -0.33595435687E+02  0.61217001699E+01 -0.21924165378E+02  0.40795464693E+02  0.41800000000E+01 0.  1.
         -5    1    3    3    0  502  0.20806597277E+02 -0.74866104324E+02  0.86607972405E+02  0.11643135897E+03  0.41800000000E+01 0.  1.
        -11    1    1    2    0    0  0.43818063829E+02  0.71519939009E+01  0.15552204805E+02  0.47043010201E+02  0.00000000000E+00 0.  1.
         11    1    1    2    0    0 -0.31029225419E+02  0.61592410253E+02  0.20762146156E+02  0.72024332999E+02  0.00000000000E+00 0. -1.
</event>
<event>
 7    1  0.2601031E-009  0.1026391E+03  0.7561462E-02  0.1274842E+00
         -1   -1    0    0    0  501 -0.00000000000E+00  0.00000000000E+00  0.10405013343E+03  0.10405013343E+03  0.00000000000E+00 0.  1.
          1   -1    0    0  501    0  0.00000000000E+00 -0.00000000000E+00 -0.20931711887E+03  0.20931711887E+03  0.00000000000E+00 0. -1.
         25    2    1    2    0    0 -0.43377518962E+02 -0.73451559560E+01 -0.15209841669E+03  0.20179059457E+03  0.12509978110E+03 0.  0.
          5    1    3    3  502    0 -0.72232443036E+02  0.31844044926E+02 -0.11871738904E+03  0.14262839789E+03  0.41800000000E+01 0. -1.
         -5    1    3    3    0  502  0.28854924073E+02 -0.39189200882E+02 -0.33381027649E+02  0.59162196680E+02  0.41800000000E+01 0. -1.
        -11    1    1    2    0    0  0.29977405691E+02 -0.27106802182E+02 -0.11943351456E+02  0.42143412540E+02  0.00000000000E+00 0. -1.
         11    1    1    2    0    0  0.13400113271E+02  0.34451958138E+02  0.58774782705E+02  0.69433245188E+02  0.00000000000E+00 0.  1.
</event>
<event>
 7    1  0.2601031E-009  0.8143961E+02  0.7561462E-02  0.1325015E+00
         -2   -1    0    0    0  501 -0.00000000000E+00  0.00000000000E+00  0.36612520349E+02  0.36612520349E+02  0.00000000000E+00 0.  1.
          2   -1    0    0  501    0  0.00000000000E+00 -0.00000000000E+00 -0.36058908027E+03  0.36058908027E+03  0.00000000000E+00 0. -1.
         25    2    1    2    0    0 -0.15541113304E+02 -0.22192587208E+02 -0.24303097087E+03  0.27467327305E+03  0.12508923612E+03 0.  0.
          5    1    3    3  502    0  0.22298282414E+02  0.29557707764E+02 -0.18297244400E+03  0.18672776749E+03  0.41800000000E+01 0. -1.
         -5    1    3    3    0  502 -0.37839395718E+02 -0.51750294972E+02 -0.60058526867E+02  0.87945505555E+02  0.41800000000E+01 0. -1.
        -11    1    1    2    0    0 -0.20741894424E+02  0.56491474966E+01 -0.79789744090E+02  0.82634994486E+02  0.00000000000E+00 0. -1.
         11    1    1    2    0    0  0.36283007728E+02  0.16543439711E+02 -0.11558449597E+01  0.39893333088E+02  0.00000000000E+00 0.  1.
</event>
<event>
 7    1  0.2601031E-009  0.1058942E+03  0.7561462E-02  0.1268368E+00
         -2   -1    0    0    0  501 -0.00000000000E+00  0.00000000000E+00  0.47305375536E+02  0.47305375536E+02  0.00000000000E+00 0.  1.
          2   -1    0    0  501    0  0.00000000000E+00 -0.00000000000E+00 -0.31413450013E+03  0.31413450013E+03  0.00000000000E+00 0. -1.
         25    2    1    2    0    0  0.49651672391E+02  0.22403969481E+02 -0.12565098052E+03  0.18548132523E+03  0.12509167311E+03 0.  0.
          5    1    3    3  502    0  0.74172752960E+02 -0.26654814022E+01 -0.24387783226E+02  0.78236426577E+02  0.41800000000E+01 0.  1.
         -5    1    3    3    0  502 -0.24521080570E+02  0.25069450883E+02 -0.10126319730E+03  0.10724489865E+03  0.41800000000E+01 0.  1.
        -11    1    1    2    0    0 -0.53170773533E+02  0.22035023441E+02 -0.58729765673E+02  0.82230522266E+02  0.00000000000E+00 0.  1.
         11    1    1    2    0    0  0.35191011423E+01 -0.44438992921E+02 -0.82448378401E+02  0.93728028176E+02  0.00000000000E+00 0. -1.
</event>
<event>
 7    1  0.2601031E-009  0.1177146E+03  0.7561462E-02  0.1246916E+00
         -2   -1    0    0    0  501 -0.00000000000E+00  0.00000000000E+00  0.36483692732E+02  0.36483692732E+02  0.00000000000E+00 0.  1.
          2   -1    0    0  501    0  0.00000000000E+00 -0.00000000000E+00 -0.57883597494E+03  0.57883597494E+03  0.00000000000E+00 0. -1.
         25    2    1    2    0    0  0.69380747324E+02  0.12539212843E+02 -0.43168342494E+03  0.45493878786E+03  0.12509117224E+03 0.  0.
          5    1    3    3  502    0  0.99212280114E+02  0.35749714167E+02 -0.31357408135E+03  0.33085842212E+03  0.41800000000E+01 0.  1.
         -5    1    3    3    0  502 -0.29831532791E+02 -0.23210501324E+02 -0.11810934359E+03  0.12408036574E+03  0.41800000000E+01 0.  1.
        -11    1    1    2    0    0 -0.14431030139E+02 -0.30754256430E+02  0.16599751329E+01  0.34012268917E+02  0.00000000000E+00 0.  1.
         11    1    1    2    0    0 -0.54949717185E+02  0.18215043587E+02 -0.11232883240E+03  0.12636861089E+03  0.00000000000E+00 0. -1.
</event>
<event>
 7    1  0.2842317E-009  0.1192566E+03  0.7561462E-02  0.1244329E+00
          1   -1    0    0  501    0  0.00000000000E+00  0.00000000000E+00  0.10762838976E+04  0.10762838976E+04  0.00000000000E+00 0. -1.
         -1   -1    0    0    0  501 -0.00000000000E+00 -0.00000000000E+00 -0.15552088491E+02  0.15552088491E+02  0.00000000000E+00 0.  1.
         25    2    1    2    0    0  0.68720505460E+02  0.73189036418E+01  0.65008743230E+03  0.66560787625E+03  0.12507638094E+03 0.  0.
          5    1    3    3  502    0  0.10024641705E+03  0.15978378290E+02  0.37378573960E+03  0.38734726568E+03  0.41800000000E+01 0.  1.
         -5    1    3    3    0  502 -0.31525911593E+02 -0.86594746479E+01  0.27630169270E+03  0.27826061057E+03  0.41800000000E+01 0.  1.
        -11    1    1    2    0    0 -0.56611067080E+02  0.30458497811E+02  0.33175347165E+03  0.33792439828E+03  0.00000000000E+00 0. -1.
         11    1    1    2    0    0 -0.12109438380E+02 -0.37777401453E+02  0.78890905193E+02  0.88303711590E+02  0.00000000000E+00 0.  1.
</event>
<event>
 7    1  0.2601031E-009  0.1461434E+03  0.7561462E-02  0.1205294E+00
          4   -1    0    0  501    0  0.00000000000E+00  0.00000000000E+00  0.56046893979E+02  0.56046893979E+02  0.00000000000E+00 0. -1.
         -4   -1    0    0    0  501 -0.00000000000E+00 -0.00000000000E+00 -0.49450261794E+03  0.49450261794E+03  0.00000000000E+00 0.  1.
         25    2    1    2    0    0 -0.12298519752E+03  0.22747968678E+02 -0.20606637323E+03  0.27157576067E+03  0.12508882732E+03 0.  0.
          5    1    3    3  502    0 -0.10427334823E+03  0.62425406152E+02 -0.18810582770E+03  0.22398914549E+03  0.41800000000E+01 0.  1.
         -5    1    3    3    0  502 -0.18711849289E+02 -0.39677437474E+02 -0.17960545533E+02  0.47586615179E+02  0.41800000000E+01 0.  1.
        -11    1    1    2    0    0  0.72318094336E+02 -0.34551870047E+01 -0.20663479645E+03  0.21895155672E+03  0.00000000000E+00 0.  1.
         11    1    1    2    0    0  0.50667103185E+02 -0.19292781673E+02 -0.25754554279E+02  0.60022194528E+02  0.00000000000E+00 0. -1.
</event>
<event>
 7    1  0.2601031E-009  0.1091301E+03  0.7561462E-02  0.1262189E+00
          1   -1    0    0  501    0  0.00000000000E+00  0.00000000000E+00  0.16328958914E+02  0.16328958914E+02  0.00000000000E+00 0. -1.
         -1   -1    0    0    0  501 -0.00000000000E+00 -0.00000000000E+00 -0.81531137144E+03  0.81531137144E+03  0.00000000000E+00 0.  1.
         25    2    1    2    0    0  0.13450197366E+02 -0.12176024653E+02 -0.33321251478E+03  0.35638121495E+03  0.12509127461E+03 0.  0.
          5    1    3    3  502    0 -0.23595198865E+02 -0.59580544669E+02 -0.20223737465E+03  0.21218860200E+03  0.41800000000E+01 0. -1.
         -5    1    3    3    0  502  0.37045396231E+02  0.47404520016E+02 -0.13097514013E+03  0.14419261296E+03  0.41800000000E+01 0. -1.
        -11    1    1    2    0    0  0.27437213725E+02  0.36877014406E+02 -0.19834126882E+03  0.20359757809E+03  0.00000000000E+00 0.  1.
         11    1    1    2    0    0 -0.40887411091E+02 -0.24700989754E+02 -0.26742862893E+03  0.27166153731E+03  0.00000000000E+00 0. -1.
</event>
<event>
 7    1  0.2601031E-009  0.1176994E+03  0.7561462E-02  0.1246941E+00
         -1   -1    0    0    0  501 -0.00000000000E+00  0.00000000000E+00  0.16241068713E+03  0.16241068713E+03  0.00000000000E+00 0.  1.
          1   -1    0    0  501    0  0.00000000000E+00 -0.00000000000E+00 -0.14468289824E+03  0.14468289824E+03  0.00000000000E+00 0. -1.
         25    2    1    2    0    0 -0.80762363307E+02 -0.62801909878E+02 -0.24586844867E+02  0.16345566988E+03  0.12508638561E+03 0.  0.
          5    1    3    3  502    0 -0.57906627223E+02 -0.35461081969E+02 -0.75205646696E+02  0.10141019429E+03  0.41800000000E+01 0.  1.
         -5    1    3    3    0  502 -0.22855736084E+02 -0.27340827909E+02  0.50618801828E+02  0.62045475590E+02  0.41800000000E+01 0.  1.
        -11    1    1    2    0    0  0.65395518905E+02 -0.14629265875E+01  0.44620392152E+00  0.65413401876E+02  0.00000000000E+00 0. -1.
         11    1    1    2    0    0  0.15366844402E+02  0.64264836465E+02  0.41868429835E+02  0.78224513611E+02  0.00000000000E+00 0.  1.
</event>
<event>
 7    1  0.2601031E-009  0.1420884E+03  0.7561462E-02  0.1210546E+00
          1   -1    0    0  501    0  0.00000000000E+00  0.00000000000E+00  0.13602481574E+04  0.13602481574E+04  0.00000000000E+00 0.  1.
         -1   -1    0    0    0  501 -0.00000000000E+00 -0.00000000000E+00 -0.19910717105E+02  0.19910717105E+02  0.00000000000E+00 0. -1.
         25    2    1    2    0    0 -0.97857534403E+02  0.10315157158E+02  0.10299468477E+04  0.10421707736E+04  0.12508762101E+03 0.  0.
          5    1    3    3  502    0 -0.95907543387E+01  0.53180253170E+02  0.52276154019E+03  0.52556371850E+03  0.41800000000E+01 0. -1.
         -5    1    3    3    0  502 -0.88266780064E+02 -0.42865096012E+02  0.50718530746E+03  0.51660705514E+03  0.41800000000E+01 0. -1.
        -11    1    1    2    0    0  0.41744622105E+02  0.38949199039E+02  0.16399491288E+03  0.17364902830E+03  0.00000000000E+00 0. -1.
         11    1    1    2    0    0  0.56112912298E+02 -0.49264356197E+02  0.14639567979E+03  0.16433907259E+03  0.00000000000E+00 0.  1.
</event>
<event>
 7    1  0.2601031E-009  0.9810683E+02  0.7561462E-02  0.1284328E+00
         -1   -1    0    0    0  501 -0.00000000000E+00  0.00000000000E+00  0.42377646811E+02  0.42377646811E+02  0.00000000000E+00 0.  1.
          1   -1    0    0  501    0  0.00000000000E+00 -0.00000000000E+00 -0.45461600912E+03  0.45461600912E+03  0.00000000000E+00 0. -1.
         25    2    1    2    0    0 -0.51416437102E+02 -0.43476593391E+01 -0.34938104283E+03  0.37466899783E+03  0.12508873930E+03 0.  0.
          5    1    3    3  502    0 -0.62583509454E+02  0.19126559811E+02 -0.34068902735E+03  0.34694236798E+03  0.41800000000E+01 0. -1.
         -5    1    3    3    0  502  0.11167072352E+02 -0.23474219150E+02 -0.86920154839E+01  0.27726629850E+02  0.41800000000E+01 0. -1.
        -11    1    1    2    0    0  0.12878652209E+02 -0.42060052093E+02 -0.19960368581E+02  0.48304492324E+02  0.00000000000E+00 0. -1.
         11    1    1    2    0    0  0.38537784893E+02  0.46407711433E+02 -0.42896950891E+02  0.74020165770E+02  0.00000000000E+00 0.  1.
</event>
<event>
 7    1  0.2601031E-009  0.8984633E+02  0.7561462E-02  0.1303224E+00
         -1   -1    0    0    0  501 -0.00000000000E+00  0.00000000000E+00  0.55054724577E+02  0.55054724577E+02  0.00000000000E+00 0.  1.
          1   -1    0    0  501    0  0.00000000000E+00 -0.00000000000E+00 -0.47211316563E+03  0.47211316563E+03  0.00000000000E+00 0. -1.
         25    2    1    2    0    0 -0.66720866014E+02  0.18542320778E+01 -0.38072215145E+03  0.40626631434E+03  0.12509136430E+03 0.  0.
          5    1    3    3  502    0 -0.30192835203E+02 -0.24690186878E+02 -0.34834565626E+03  0.35054725967E+03  0.41800000000E+01 0. -1.
         -5    1    3    3    0  502 -0.36528030811E+02  0.26544418956E+02 -0.32376495191E+02  0.55719054671E+02  0.41800000000E+01 0. -1.
        -11    1    1    2    0    0  0.80731280305E+02  0.13690812743E+01  0.11520909353E+01  0.80751107217E+02  0.00000000000E+00 0.  1.
         11    1    1    2    0    0 -0.14010414292E+02 -0.32233133521E+01 -0.37488380540E+02  0.40150468653E+02  0.00000000000E+00 0. -1.
</event>
<event>
 7    1  0.2601031E-009  0.9510425E+02  0.7561462E-02  0.1290941E+00
         -1   -1    0    0    0  501 -0.00000000000E+00  0.00000000000E+00  0.35167276500E+02  0.35167276500E+02  0.00000000000E+00 0.  1.
          1   -1    0    0  501    0  0.00000000000E+00 -0.00000000000E+00 -0.63506079542E+03  0.63506079542E+03  0.00000000000E+00 0. -1.
         25    2    1    2    0    0  0.40317458228E+02  0.62312840066E+02 -0.16566731908E+03  0.22045889435E+03  0.12509226999E+03 0.  0.
          5    1    3    3  502    0  0.33248299945E+01  0.70706105969E+01  0.20714426268E+02  0.22530155000E+02  0.41800000000E+01 0.  1.
         -5    1    3    3    0  502  0.36992628233E+02  0.55242229469E+02 -0.18638174535E+03  0.19792873935E+03  0.41800000000E+01 0.  1.
        -11    1    1    2    0    0 -0.47993351865E+02  0.38291705951E+01 -0.22917472108E+03  0.23417744800E+03  0.00000000000E+00 0. -1.
         11    1    1    2    0    0  0.76758936374E+01 -0.66142010661E+02 -0.20505147876E+03  0.21559172957E+03  0.00000000000E+00 0.  1.
</event>
<event>
 7    1  0.2601031E-009  0.1246416E+03  0.7561462E-02  0.1235630E+00
         -2   -1    0    0    0  501 -0.00000000000E+00  0.00000000000E+00  0.30663619218E+02  0.30663619218E+02  0.00000000000E+00 0.  1.
          2   -1    0    0  501    0  0.00000000000E+00 -0.00000000000E+00 -0.79008805979E+03  0.79008805979E+03  0.00000000000E+00 0. -1.
         25    2    1    2    0    0 -0.35469466204E+02  0.56392951449E+02 -0.65523933092E+03  0.67039127333E+03  0.12509048947E+03 0.  0.
          5    1    3    3  502    0  0.19197568254E+02 -0.31917493393E+02 -0.19352136858E+03  0.19711739018E+03  0.41800000000E+01 0. -1.
         -5    1    3    3    0  502 -0.54667034458E+02  0.88310444842E+02 -0.46171796234E+03  0.47327388315E+03  0.41800000000E+01 0. -1.
        -11    1    1    2    0    0  0.50517936148E+02 -0.70832716044E+02 -0.77682688922E+02  0.11663591082E+03  0.00000000000E+00 0. -1.
         11    1    1    2    0    0 -0.15048469944E+02  0.14439764596E+02 -0.26502420725E+02  0.33724494859E+02  0.00000000000E+00 0.  1.
</event>
<event>
 7    1  0.2601031E-009  0.8204422E+02  0.7561462E-02  0.1323348E+00
         -2   -1    0    0    0  501 -0.00000000000E+00  0.00000000000E+00  0.72008954493E+02  0.72008954493E+02  0.00000000000E+00 0.  1.
          2   -1    0    0  501    0  0.00000000000E+00 -0.00000000000E+00 -0.18206687777E+03  0.18206687777E+03  0.00000000000E+00 0. -1.
         25    2    1    2    0    0  0.20169197430E+02  0.19478899723E+02 -0.22085493265E+02  0.13008138633E+03  0.12508866454E+03 0.  0.
          5    1    3    3  502    0 -0.27711371509E+02  0.65903177696E+01  0.40771892957E+02  0.49911642475E+02  0.41800000000E+01 0. -1.
         -5    1    3    3    0  502  0.47880568938E+02  0.12888581954E+02 -0.62857386222E+02  0.80169743852E+02  0.41800000000E+01 0. -1.
        -11    1    1    2    0    0  0.93562076665E+01  0.28058892813E+02 -0.43060069756E+02  0.52239924341E+02  0.00000000000E+00 0. -1.
         11    1    1    2    0    0 -0.29525405096E+02 -0.47537792536E+02 -0.44912360252E+02  0.71754521591E+02  0.00000000000E+00 0.  1.
</event>
<event>
 7    1  0.2601031E-009  0.1109455E+03  0.7561462E-02  0.1258829E+00
         -1   -1    0    0    0  501 -0.00000000000E+00  0.00000000000E+00  0.14124540294E+03  0.14124540294E+03  0.00000000000E+00 0.  1.
          1   -1    0    0  501    0  0.00000000000E+00 -0.00000000000E+00 -0.10864512037E+03  0.10864512037E+03  0.00000000000E+00 0. -1.
         25    2    1    2    0    0  0.30761114050E+02 -0.13792523777E+02  0.66383172349E+02  0.14557203815E+03  0.12509201761E+03 0.  0.
          5    1    3    3  502    0  0.45739094559E+02 -0.59786781584E+02  0.60498782120E+02  0.96664880185E+02  0.41800000000E+01 0.  1.
         -5    1    3    3    0  502 -0.14977980509E+02  0.45994257807E+02  0.58843902283E+01  0.48907157960E+02  0.41800000000E+01 0.  1.
        -11    1    1    2    0    0  0.24618170308E+02  0.31341097111E+02 -0.74864449416E+01  0.40550777246E+02  0.00000000000E+00 0. -1.
         11    1    1    2    0    0 -0.55379284358E+02 -0.17548573334E+02 -0.26296444842E+02  0.63767707920E+02  0.00000000000E+00 0.  1.
</event>
<event>
 7    1  0.2601031E-009  0.1246066E+03  0.7561462E-02  0.1235685E+00
          2   -1    0    0  501    0  0.00000000000E+00  0.00000000000E+00  0.39457917915E+03  0.39457917915E+03  0.00000000000E+00 0. -1.
         -2   -1    0    0    0  501 -0.00000000000E+00 -0.00000000000E+00 -0.51304985056E+02  0.51304985056E+02  0.00000000000E+00 0.  1.
         25    2    1    2    0    0  0.71495079824E+02 -0.56792826062E+02  0.17413772419E+03  0.23304008257E+03  0.12508701598E+03 0.  0.
          5    1    3    3  502    0  0.99930743888E+02 -0.18042236968E+02  0.88579403601E+02  0.13481639007E+03  0.41800000000E+01 0. -1.
         -5    1    3    3    0  502 -0.28435664065E+02 -0.38750589094E+02  0.85558320593E+02  0.98223692501E+02  0.41800000000E+01 0. -1.
        -11    1    1    2    0    0 -0.57866430355E+02  0.21894876028E+02  0.16368135381E+03  0.17498427056E+03  0.00000000000E+00 0. -1.
         11    1    1    2    0    0 -0.13628649468E+02  0.34897950034E+02  0.54551160868E+01  0.37859811072E+02  0.00000000000E+00 0.  1.
</event>
<event>
 7    1  0.2601031E-009  0.9381187E+02  0.7561462E-02  0.1293875E+00
          2   -1    0    0  501    0  0.00000000000E+00  0.00000000000E+00  0.30822352463E+03  0.30822352463E+03  0.00000000000E+00 0. -1.
         -2   -1    0    0    0  501 -0.00000000000E+00 -0.00000000000E+00 -0.50001539883E+02  0.50001539883E+02  0.00000000000E+00 0.  1.
         25    2    1    2    0    0  0.45888916286E+02  0.38297413020E+02  0.14416631494E+03  0.20001048301E+03  0.12509109667E+03 0.  0.
          5    1    3    3  502    0  0.43505216482E+02 -0.52868464652E+01 -0.52098749367E+01  0.44331363656E+02  0.41800000000E+01 0.  1.
         -5    1    3    3    0  502  0.23836998041E+01  0.43584259486E+02  0.14937618988E+03  0.15567911935E+03  0.41800000000E+01 0.  1.
        -11    1    1    2    0    0 -0.43680880681E+02 -0.62056924934E+02  0.52728570321E+02  0.92408784201E+02  0.00000000000E+00 0.  1.
         11    1    1    2    0    0 -0.22080356050E+01  0.23759511913E+02  0.61327099483E+02  0.65805797302E+02  0.00000000000E+00 0. -1.
</event>
<event>
 7    1  0.2601031E-009  0.1205364E+03  0.7561462E-02  0.1242215E+00
         -2   -1    0    0    0  501 -0.00000000000E+00  0.00000000000E+00  0.28675138158E+02  0.28675138158E+02  0.00000000000E+00 0. -1.
          2   -1    0    0  501    0  0.00000000000E+00 -0.00000000000E+00 -0.74971262173E+03  0.74971262173E+03  0.00000000000E+00 0.  1.
         25    2    1    2    0    0  0.61444939253E+02  0.14872602316E+02 -0.19100661812E+03  0.23691326855E+03  0.12509074224E+03 0.  0.
          5    1    3    3  502    0 -0.31973693011E+02  0.18506352504E+02 -0.20609011745E+02  0.42508891927E+02  0.41800000000E+01 0. -1.
         -5    1    3    3    0  502  0.93418632264E+02 -0.36337501874E+01 -0.17039760637E+03  0.19440437663E+03  0.41800000000E+01 0. -1.
        -11    1    1    2    0    0  0.13395375107E+02 -0.30984530198E+02 -0.14118889012E+03  0.14516810903E+03  0.00000000000E+00 0. -1.
         11    1    1    2    0    0 -0.74840314360E+02  0.16111927881E+02 -0.38884197533E+03  0.39630638230E+03  0.00000000000E+00 0.  1.
</event>
<event>
 7    1  0.2601031E-009  0.8526898E+02  0.7561462E-02  0.1314731E+00
          1   -1    0    0  501    0  0.00000000000E+00  0.00000000000E+00  0.46824195447E+02  0.46824195447E+02  0.00000000000E+00 0. -1.
         -1   -1    0    0    0  501 -0.00000000000E+00 -0.00000000000E+00 -0.29317913193E+03  0.29317913193E+03  0.00000000000E+00 0.  1.
         25    2    1    2    0    0  0.13683927116E+02 -0.35921675578E+02 -0.10848543800E+03  0.16998284661E+03  0.12508981271E+03 0.  0.
          5    1    3    3  502    0 -0.14180422345E+02 -0.46651595173E+02 -0.12596146176E+03  0.13513407401E+03  0.41800000000E+01 0.  1.
         -5    1    3    3    0  502  0.27864349461E+02  0.10729919595E+02  0.17476023756E+02  0.34848772599E+02  0.41800000000E+01 0.  1.
        -11    1    1    2    0    0  0.23153105884E+02 -0.15742384816E+02 -0.15069021251E+02  0.31795666265E+02  0.00000000000E+00 0. -1.
         11    1    1    2    0    0 -0.36837033000E+02  0.51664060394E+02 -0.12280047723E+03  0.13822481451E+03  0.00000000000E+00 0.  1.
</event>
<event>
 7    1  0.2601031E-009  0.1135368E+03  0.7561462E-02  0.1254157E+00
         -2   -1    0    0    0  501 -0.00000000000E+00  0.00000000000E+00  0.23640404263E+02  0.23640404263E+02  0.00000000000E+00 0.  1.
          2   -1    0    0  501    0  0.00000000000E+00 -0.00000000000E+00 -0.88154155310E+03  0.88154155310E+03  0.00000000000E+00 0. -1.
         25    2    1    2    0    0 -0.56800845445E+02 -0.53890367791E+02 -0.30679947040E+03  0.34044645903E+03  0.12508944257E+03 0.  0.
          5    1    3    3  502    0 -0.46775764356E+02  0.82214887135E+01 -0.25331832427E+03  0.25776580615E+03  0.41800000000E+01 0. -1.
         -5    1    3    3    0  502 -0.10025081089E+02 -0.62111856504E+02 -0.53481146127E+02  0.82680652877E+02  0.41800000000E+01 0. -1.
        -11    1    1    2    0    0 -0.20763535237E+02  0.27402362139E+02 -0.88776942154E+02  0.95201677004E+02  0.00000000000E+00 0.  1.
         11    1    1    2    0    0  0.77564380682E+02  0.26488005652E+02 -0.46232473629E+03  0.46953382133E+03  0.00000000000E+00 0. -1.
</event>
<event>
 7    1  0.2601031E-009  0.1129564E+03  0.7561462E-02  0.1255191E+00
         -1   -1    0    0    0  501 -0.00000000000E+00  0.00000000000E+00  0.17415749678E+03  0.17415749678E+03  0.00000000000E+00 0.  1.
          1   -1    0    0  501    0  0.00000000000E+00 -0.00000000000E+00 -0.15917296713E+03  0.15917296713E+03  0.00000000000E+00 0. -1.
         25    2    1    2    0    0 -0.57096157154E+02  0.29289988157E+02  0.11534917821E+03  0.18184681916E+03  0.12507980716E+03 0.  0.
          5    1    3    3  502    0 -0.15102239407E+02  0.62609009705E+02  0.12426880350E+02  0.65725683614E+02  0.41800000000E+01 0.  1.
         -5    1    3    3    0  502 -0.41993917747E+02 -0.33319021548E+02  0.10292229786E+03  0.11612113555E+03  0.41800000000E+01 0.  1.
        -11    1    1    2    0    0  0.20278611925E+02 -0.57660973279E+02 -0.80151515635E+02  0.10079819145E+03  0.00000000000E+00 0.  1.
         11    1    1    2    0    0  0.36817545229E+02  0.28370985122E+02 -0.20213132929E+02  0.50685453301E+02  0.00000000000E+00 0. -1.
</event>
<event>
 7    1  0.2601031E-009  0.1750831E+03  0.7561462E-02  0.1172648E+00
         -1   -1    0    0    0  501 -0.00000000000E+00  0.00000000000E+00  0.81416114287E+03  0.81416114287E+03  0.00000000000E+00 0.  1.
          1   -1    0    0  501    0  0.00000000000E+00 -0.00000000000E+00 -0.38406925036E+02  0.38406925036E+02  0.00000000000E+00 0. -1.
         25    2    1    2    0    0 -0.12338234080E+03 -0.63325971868E+02  0.36980523764E+03  0.41429206339E+03  0.12509444142E+03 0.  0.
          5    1    3    3  502    0 -0.58863598824E+02  0.35350818598E+02  0.13778265424E+03  0.15400044107E+03  0.41800000000E+01 0. -1.
         -5    1    3    3    0  502 -0.64518741971E+02 -0.98676790467E+02  0.23202258340E+03  0.26029162232E+03  0.41800000000E+01 0. -1.
        -11    1    1    2    0    0  0.13534734425E+03  0.47235150526E+02  0.37426856912E+03  0.40078301470E+03  0.00000000000E+00 0.  1.
         11    1    1    2    0    0 -0.11965003456E+02  0.16090821343E+02  0.31680411083E+02  0.37492989819E+02  0.00000000000E+00 0. -1.
</event>
<event>
 7    1  0.2601031E-009  0.7647762E+02  0.7561462E-02  0.1339355E+00
         -1   -1    0    0    0  501 -0.00000000000E+00  0.00000000000E+00  0.49134015048E+02  0.49134015048E+02  0.00000000000E+00 0. -1.
          1   -1    0    0  501    0  0.00000000000E+00 -0.00000000000E+00 -0.33591181104E+03  0.33591181104E+03  0.00000000000E+00 0.  1.
         25    2    1    2    0    0  0.26877898781E+02  0.64392260217E+02 -0.15618948770E+03  0.21192231734E+03  0.12508848028E+03 0.  0.
          5    1    3    3  502    0  0.34049130822E+02  0.29062691810E+02  0.63264556505E+01  0.45403521957E+02  0.41800000000E+01 0. -1.
         -5    1    3    3    0  502 -0.71712320405E+01  0.35329568406E+02 -0.16251594335E+03  0.16651879538E+03  0.41800000000E+01 0. -1.
        -11    1    1    2    0    0 -0.20769660061E+02 -0.28333955830E+02  0.23856702411E+01  0.35211976010E+02  0.00000000000E+00 0. -1.
         11    1    1    2    0    0 -0.61082387202E+01 -0.36058304387E+02 -0.13297397854E+03  0.13791153274E+03  0.00000000000E+00 0.  1.
</event>
<event>
 7    1  0.2601031E-009  0.1050221E+03  0.7561462E-02  0.1270076E+00
          2   -1    0    0  501    0  0.00000000000E+00  0.00000000000E+00  0.42701443549E+03  0.42701443549E+03  0.00000000000E+00 0. -1.
         -2   -1    0    0    0  501 -0.00000000000E+00 -0.00000000000E+00 -0.67871463210E+02  0.67871463210E+02  0.00000000000E+00 0.  1.
         25    2    1    2    0    0  0.95053566619E+02 -0.83055176734E+01  0.31708168310E+03  0.35396754439E+03  0.12509223227E+03 0.  0.
          5    1    3    3  502    0  0.96191742392E+02 -0.12353282805E+02  0.10962430001E+03  0.14642545699E+03  0.41800000000E+01 0.  1.
         -5    1    3    3    0  502 -0.11381757731E+01  0.40477651318E+01  0.20745738309E+03  0.20754208740E+03  0.41800000000E+01 0.  1.
        -11    1    1    2    0    0 -0.21735062145E+02 -0.18937007766E+02 -0.24794073501E+02  0.38023272746E+02  0.00000000000E+00 0.  1.
         11    1    1    2    0    0 -0.73318504474E+02  0.27242525439E+02  0.66855362684E+02  0.10289508157E+03  0.00000000000E+00 0. -1.
</event>
<event>
 7    1  0.2601031E-009  0.1268603E+03  0.7561462E-02  0.1232190E+00
         -1   -1    0    0    0  501 -0.00000000000E+00  0.00000000000E+00  0.48167818656E+02  0.48167818656E+02  0.00000000000E+00 0.  1.
          1   -1    0    0  501    0  0.00000000000E+00 -0.00000000000E+00 -0.34799353837E+03  0.34799353837E+03  0.00000000000E+00 0. -1.
         25    2    1    2    0    0  0.59774372643E+02 -0.33031598999E+02 -0.19491330346E+03  0.24145771007E+03  0.12508624116E+03 0.  0.
          5    1    3    3  502    0 -0.19853704518E+02  0.31972408674E+02 -0.70442952197E+02  0.79975536345E+02  0.41800000000E+01 0. -1.
         -5    1    3    3    0  502  0.79628077161E+02 -0.65004007673E+02 -0.12447035126E+03  0.16148217372E+03  0.41800000000E+01 0. -1.
        -11    1    1    2    0    0  0.14926636078E+02  0.35211263288E+02 -0.43947821702E+02  0.58258463414E+02  0.00000000000E+00 0.  1.
         11    1    1    2    0    0 -0.74701008722E+02 -0.21796642893E+01 -0.60964594550E+02  0.96445183546E+02  0.00000000000E+00 0. -1.
</event>
<event>
 7    1  0.2601031E-009  0.1903579E+03  0.7561462E-02  0.1158139E+00
         -2   -1    0    0    0  501 -0.00000000000E+00  0.00000000000E+00  0.82894027942E+02  0.82894027942E+02  0.00000000000E+00 0.  1.
          2   -1    0    0  501    0  0.00000000000E+00 -0.00000000000E+00 -0.48942846372E+03  0.48942846372E+03  0.00000000000E+00 0. -1.
         25    2    1    2    0    0 -0.10598763796E+03 -0.12811795079E+03 -0.25745231081E+03  0.33102342902E+03  0.12508888642E+03 0.  0.
          5    1    3    3  502    0 -0.11341982166E+03 -0.41786746808E+02 -0.15967708484E+03  0.20031083839E+03  0.41800000000E+01 0.  1.
         -5    1    3    3    0  502  0.74321837006E+01 -0.86331203986E+02 -0.97775225975E+02  0.13071259064E+03  0.41800000000E+01 0.  1.
        -11    1    1    2    0    0  0.20792618475E+02  0.61352272608E+02 -0.10770904134E+02  0.65669221962E+02  0.00000000000E+00 0.  1.
         11    1    1    2    0    0  0.85195019482E+02  0.66765678187E+02 -0.13831122084E+03  0.17562984068E+03  0.00000000000E+00 0. -1.
</event>
<event>
 7    1  0.2601031E-009  0.9793478E+02  0.7561462E-02  0.1284700E+00
          1   -1    0    0  501    0  0.00000000000E+00  0.00000000000E+00  0.12917501965E+03  0.12917501965E+03  0.00000000000E+00 0. -1.
         -1   -1    0    0    0  501 -0.00000000000E+00 -0.00000000000E+00 -0.10643588308E+03  0.10643588308E+03  0.00000000000E+00 0.  1.
         25    2    1    2    0    0  0.22365701359E+00 -0.16096114383E+02  0.56063045516E+02  0.13802169801E+03  0.12509112330E+03 0.  0.
          5    1    3    3  502    0 -0.61123789795E+02 -0.18174404202E+02  0.21337336963E+02  0.67373444291E+02  0.41800000000E+01 0. -1.
         -5    1    3    3    0  502  0.61347446809E+02  0.20782898185E+01  0.34725708553E+02  0.70648253716E+02  0.41800000000E+01 0. -1.
        -11    1    1    2    0    0 -0.13610400202E+02 -0.24316980622E+02  0.16238387940E+02  0.32252810468E+02  0.00000000000E+00 0. -1.
         11    1    1    2    0    0  0.13386743189E+02  0.40413095005E+02 -0.49562296892E+02  0.65336394255E+02  0.00000000000E+00 0.  1.
</event>
<event>
 7    1  0.2601031E-009  0.9701555E+02  0.7561462E-02  0.1286700E+00
          2   -1    0    0  501    0  0.00000000000E+00  0.00000000000E+00  0.16157764953E+03  0.16157764953E+03  0.00000000000E+00 0. -1.
         -2   -1    0    0    0  501 -0.00000000000E+00 -0.00000000000E+00 -0.82725803641E+02  0.82725803641E+02  0.00000000000E+00 0.  1.
         25    2    1    2    0    0  0.33211800795E+00 -0.33163866144E+02  0.69283116094E+02  0.14679578232E+03  0.12509556032E+03 0.  0.
          5    1    3    3  502    0  0.35316181840E+02  0.28025245556E+02 -0.34724246983E+01  0.45411201498E+02  0.41800000000E+01 0. -1.
         -5    1    3    3    0  502 -0.34984063832E+02 -0.61189111700E+02  0.72755540792E+02  0.10138458082E+03  0.41800000000E+01 0. -1.
        -11    1    1    2    0    0 -0.32546417328E+02  0.90999701509E+00  0.32909311222E+02  0.46293845601E+02  0.00000000000E+00 0. -1.
         11    1    1    2    0    0  0.32214299320E+02  0.32253869129E+02 -0.23340581431E+02  0.51213825243E+02  0.00000000000E+00 0.  1.
</event>
<event>
 7    1  0.2601031E-009  0.1194131E+03  0.7561462E-02  0.1244068E+00
          2   -1    0    0  501    0  0.00000000000E+00  0.00000000000E+00  0.70567452968E+03  0.70567452968E+03  0.00000000000E+00 0. -1.
         -2   -1    0    0    0  501 -0.00000000000E+00 -0.00000000000E+00 -0.32293104705E+02  0.32293104705E+02  0.00000000000E+00 0.  1.
         25    2    1    2    0    0  0.50536525777E+02  0.91153402098E+02  0.34892380769E+03  0.38503723252E+03  0.12507183414E+03 0.  0.
          5    1    3    3  502    0  0.12708957478E+02  0.74362962239E+01 -0.74258803946E+01  0.17012707055E+02  0.41800000000E+01 0. -1.
         -5    1    3    3    0  502  0.37827568299E+02  0.83717105874E+02  0.35634968809E+03  0.36802452546E+03  0.41800000000E+01 0. -1.
        -11    1    1    2    0    0 -0.55934232135E+02 -0.18808175931E+02  0.90986415874E+02  0.10844774631E+03  0.00000000000E+00 0.  1.
         11    1    1    2    0    0  0.53977063574E+01 -0.72345226166E+02  0.23347120140E+03  0.24448265556E+03  0.00000000000E+00 0. -1.
</event>
<event>
 7    1  0.2601031E-009  0.1021503E+03  0.7561462E-02  0.1275838E+00
          1   -1    0    0  501    0  0.00000000000E+00  0.00000000000E+00  0.65550337276E+03  0.65550337276E+03  0.00000000000E+00 0. -1.
         -1   -1    0    0    0  501 -0.00000000000E+00 -0.00000000000E+00 -0.28969670471E+02  0.28969670471E+02  0.00000000000E+00 0.  1.
         25    2    1    2    0    0  0.15625007988E+02  0.70707198357E+02  0.44894595215E+03  0.47163832549E+03  0.12508634355E+03 0.  0.
          5    1    3    3  502    0  0.57593222488E+02  0.68282422398E+02  0.19930032088E+03  0.21844349107E+03  0.41800000000E+01 0. -1.
         -5    1    3    3    0  502 -0.41968214499E+02  0.24247759585E+01  0.24964563127E+03  0.25319483442E+03  0.41800000000E+01 0. -1.
        -11    1    1    2    0    0 -0.85751695123E+01 -0.26206166110E+02  0.16323563680E+03  0.16554808908E+03  0.00000000000E+00 0. -1.
         11    1    1    2    0    0 -0.70498384762E+01 -0.44501032246E+02  0.14352113336E+02  0.47286628668E+02  0.00000000000E+00 0.  1.
</event>
<event>
 7    1  0.2601031E-009  0.1674615E+03  0.7561462E-02  0.1180521E+00
         -4   -1    0    0    0  501 -0.00000000000E+00  0.00000000000E+00  0.23640437982E+03  0.23640437982E+03  0.00000000000E+00 0.  1.
          4   -1    0    0  501    0  0.00000000000E+00 -0.00000000000E+00 -0.12330833193E+03  0.12330833193E+03  0.00000000000E+00 0. -1.
         25    2    1    2    0    0  0.11146935282E+03  0.69294836933E+02  0.66485295422E+02  0.19311767339E+03  0.12508777008E+03 0.  0.
          5    1    3    3  502    0  0.42712104384E+02  0.96971322341E+02  0.28910678775E+02  0.10991387976E+03  0.41800000000E+01 0.  1.
         -5    1    3    3    0  502  0.68757248435E+02 -0.27676485408E+02  0.37574616647E+02  0.83203793622E+02  0.41800000000E+01 0.  1.
        -11    1    1    2    0    0 -0.15067975645E+02 -0.55196790291E+02  0.38219789811E+02  0.68807571398E+02  0.00000000000E+00 0.  1.
         11    1    1    2    0    0 -0.96401377175E+02 -0.14098046642E+02  0.83909626536E+01  0.97787466960E+02  0.00000000000E+00 0. -1.
</event>
<event>
 7    1  0.2601031E-009  0.1185559E+03  0.7561462E-02  0.1245499E+00
         -1   -1    0    0    0  501 -0.00000000000E+00  0.00000000000E+00  0.32687623346E+02  0.32687623346E+02  0.00000000000E+00 0.  1.
          1   -1    0    0  501    0  0.00000000000E+00 -0.00000000000E+00 -0.21282320923E+04  0.21282320923E+04  0.00000000000E+00 0. -1.
         25    2    1    2    0    0 -0.25900176964E+02 -0.52536596369E+02 -0.20315240247E+04  0.20362142048E+04  0.12509001328E+03 0.  0.
          5    1    3    3  502    0 -0.60608085031E+02 -0.68738055141E+02 -0.10724263765E+04  0.10763429126E+04  0.41800000000E+01 0. -1.
         -5    1    3    3    0  502  0.34707908067E+02  0.16201458771E+02 -0.95909764828E+03  0.95987129215E+03  0.41800000000E+01 0. -1.
        -11    1    1    2    0    0 -0.18812674813E+01 -0.24695538122E+02 -0.17897935908E+02  0.30557239408E+02  0.00000000000E+00 0.  1.
         11    1    1    2    0    0  0.27781444446E+02  0.77232134492E+02 -0.46122508335E+02  0.94148271512E+02  0.00000000000E+00 0. -1.
</event>
<event>
 7    1  0.2601031E-009  0.2772314E+03  0.7561462E-02  0.1097211E+00
         -2   -1    0    0    0  501 -0.00000000000E+00  0.00000000000E+00  0.18152096574E+03  0.18152096574E+03  0.00000000000E+00 0.  1.
          2   -1    0    0  501    0  0.00000000000E+00 -0.00000000000E+00 -0.65313603254E+03  0.65313603254E+03  0.00000000000E+00 0. -1.
         25    2    1    2    0    0  0.20561565196E+03 -0.16289485242E+03 -0.47517369164E+03  0.55700088707E+03  0.12508965461E+03 0.  0.
          5    1    3    3  502    0  0.15337364676E+03 -0.46361397973E+02 -0.22726144195E+03  0.27809726741E+03  0.41800000000E+01 0.  1.
         -5    1    3    3    0  502  0.52242005201E+02 -0.11653345444E+03 -0.24791224969E+03  0.27890361966E+03  0.41800000000E+01 0.  1.
        -11    1    1    2    0    0 -0.13422103083E+03  0.77098939159E+02  0.40652028935E+02  0.16003786737E+03  0.00000000000E+00 0.  1.
         11    1    1    2    0    0 -0.71394621127E+02  0.85795913257E+02 -0.37093404096E+02  0.11761824384E+03  0.00000000000E+00 0. -1.
</event>
<event>
 7    1  0.2601031E-009  0.1790768E+03  0.7561462E-02  0.1168700E+00
          1   -1    0    0  501    0  0.00000000000E+00  0.00000000000E+00  0.40244609893E+03  0.40244609893E+03  0.00000000000E+00 0. -1.
         -1   -1    0    0    0  501 -0.00000000000E+00 -0.00000000000E+00 -0.21760954830E+03  0.21760954830E+03  0.00000000000E+00 0.  1.
         25    2    1    2    0    0 -0.39922470825E+02  0.14987121551E+03  0.33336694141E+03  0.38837757561E+03  0.12509371965E+03 0.  0.
          5    1    3    3  502    0 -0.69924110439E+02  0.43554551479E+02  0.96264498615E+02  0.12677028938E+03  0.41800000000E+01 0.  1.
         -5    1    3    3    0  502  0.30001639614E+02  0.10631666403E+03  0.23710244279E+03  0.26160728623E+03  0.41800000000E+01 0.  1.
        -11    1    1    2    0    0  0.12062748262E+02 -0.13080769492E+03 -0.76214620974E+02  0.15187110125E+03  0.00000000000E+00 0. -1.
         11    1    1    2    0    0  0.27859722563E+02 -0.19063520595E+02 -0.72315769797E+02  0.79806970373E+02  0.00000000000E+00 0.  1.
</event>
<event>
 7    1  0.2601031E-009  0.1898575E+03  0.7561462E-02  0.1158590E+00
          1   -1    0    0  501    0  0.00000000000E+00  0.00000000000E+00  0.44352311117E+03  0.44352311117E+03  0.00000000000E+00 0. -1.
         -1   -1    0    0    0  501 -0.00000000000E+00 -0.00000000000E+00 -0.97579241773E+02  0.97579241773E+02  0.00000000000E+00 0.  1.
         25    2    1    2    0    0 -0.16793775819E+03 -0.41235694998E+02  0.12586083018E+03  0.24777066840E+03  0.12508350161E+03 0.  0.
          5    1    3    3  502    0  0.10500791641E+02 -0.11488001845E+02  0.48266700245E+02  0.50886025233E+02  0.41800000000E+01 0. -1.
         -5    1    3    3    0  502 -0.17843854983E+03 -0.29747693153E+02  0.77594129938E+02  0.19688464316E+03  0.41800000000E+01 0. -1.
        -11    1    1    2    0    0  0.70224275841E+02  0.47428808673E+02  0.15217065581E+03  0.17417476654E+03  0.00000000000E+00 0. -1.
         11    1    1    2    0    0  0.97713482346E+02 -0.61931136749E+01  0.67912383402E+02  0.11915691801E+03  0.00000000000E+00 0.  1.
</event>
<event>
 7    1  0.2601031E-009  0.1087879E+03  0.7561462E-02  0.1262831E+00
         -1   -1    0    0    0  501 -0.00000000000E+00  0.00000000000E+00  0.15586780711E+03  0.15586780711E+03  0.00000000000E+00 0.  1.
          1   -1    0    0  501    0  0.00000000000E+00 -0.00000000000E+00 -0.13129314312E+03  0.13129314312E+03  0.00000000000E+00 0. -1.
         25    2    1    2    0    0 -0.21674698718E+02 -0.75278417144E+02  0.38371222603E+02  0.15250593535E+03  0.12509627069E+03 0.  0.
          5    1    3    3  502    0  0.46504400509E+01 -0.43667599658E+02  0.81553306482E+02  0.92719469642E+02  0.41800000000E+01 0.  1.
         -5    1    3    3    0  502 -0.26325138769E+02 -0.31610817486E+02 -0.43182083879E+02  0.59786465704E+02  0.41800000000E+01 0.  1.
        -11    1    1    2    0    0  0.64671383118E+02  0.53413364985E+02  0.19895537262E+01  0.83900737049E+02  0.00000000000E+00 0.  1.
         11    1    1    2    0    0 -0.42996684400E+02  0.21865052159E+02 -0.15786112341E+02  0.50754277831E+02  0.00000000000E+00 0. -1.
</event>
<event>
 7    1  0.2601031E-009  0.1600217E+03  0.7561462E-02  0.1188672E+00
         -2   -1    0    0    0  501 -0.00000000000E+00  0.00000000000E+00  0.62703331470E+02  0.62703331470E+02  0.00000000000E+00 0.  1.
          2   -1    0    0  501    0  0.00000000000E+00 -0.00000000000E+00 -0.53919247240E+03  0.53919247240E+03  0.00000000000E+00 0. -1.
         25    2    1    2    0    0 -0.67247405688E+02  0.12519209892E+03 -0.31984396820E+03  0.37167668206E+03  0.12509243299E+03 0.  0.
          5    1    3    3  502    0 -0.33951959261E+01  0.79928496305E+02 -0.26279396391E+03  0.27473301903E+03  0.41800000000E+01 0.  1.
         -5    1    3    3    0  502 -0.63852209762E+02  0.45263602612E+02 -0.57050004287E+02  0.96943663031E+02  0.41800000000E+01 0.  1.
        -11    1    1    2    0    0 -0.14195508466E+02 -0.26878039458E+01  0.11443126140E+01  0.14492970779E+02  0.00000000000E+00 0.  1.
         11    1    1    2    0    0  0.81442914153E+02 -0.12250429497E+03 -0.15778948534E+03  0.21572615103E+03  0.00000000000E+00 0. -1.
</event>
<event>
 7    1  0.2601031E-009  0.6680431E+02  0.7561462E-02  0.1371310E+00
          1   -1    0    0  501    0  0.00000000000E+00  0.00000000000E+00  0.58777152266E+02  0.58777152266E+02  0.00000000000E+00 0.  1.
         -1   -1    0    0    0  501 -0.00000000000E+00 -0.00000000000E+00 -0.21700114663E+03  0.21700114663E+03  0.00000000000E+00 0. -1.
         25    2    1    2    0    0 -0.36376590931E+00  0.10011341175E+02 -0.52847522597E+02  0.13616633318E+03  0.12509216749E+03 0.  0.
          5    1    3    3  502    0 -0.25589888497E+02  0.19528662222E+02  0.32878885009E+02  0.46202862692E+02  0.41800000000E+01 0.  1.
         -5    1    3    3    0  502  0.25226122588E+02 -0.95173210467E+01 -0.85726407606E+02  0.89963470485E+02  0.41800000000E+01 0.  1.
        -11    1    1    2    0    0 -0.27856467484E+02  0.18743282321E+02 -0.90730216141E+02  0.96743297101E+02  0.00000000000E+00 0. -1.
         11    1    1    2    0    0  0.28220233393E+02 -0.28754623496E+02 -0.14646255622E+02  0.42868668616E+02  0.00000000000E+00 0.  1.
</event>
<event>
 7    1  0.2601031E-009  0.1887142E+03  0.7561462E-02  0.1159626E+00
          1   -1    0    0  501    0  0.00000000000E+00  0.00000000000E+00  0.67197169328E+02  0.67197169328E+02  0.00000000000E+00 0. -1.
         -1   -1    0    0    0  501 -0.00000000000E+00 -0.00000000000E+00 -0.65920087866E+03  0.65920087866E+03  0.00000000000E+00 0.  1.
         25    2    1    2    0    0  0.78233196105E+02  0.16170781617E+03 -0.29603706821E+03  0.36817937442E+03  0.12509298625E+03 0.  0.
          5    1    3    3  502    0  0.10894923404E+01  0.91284866098E+02 -0.58103602775E+02  0.10829411262E+03  0.41800000000E+01 0. -1.
         -5    1    3    3    0  502  0.77143703765E+02  0.70422950073E+02 -0.23793346543E+03  0.25988526180E+03  0.41800000000E+01 0. -1.
        -11    1    1    2    0    0 -0.16782879183E+02 -0.63290504702E+02 -0.38851703433E+02  0.76136770872E+02  0.00000000000E+00 0. -1.
         11    1    1    2    0    0 -0.61450316922E+02 -0.98417311470E+02 -0.25711493769E+03  0.28208190270E+03  0.00000000000E+00 0.  1.
</event>
<event>
 7    1  0.2601031E-009  0.1223322E+03  0.7561462E-02  0.1239299E+00
          4   -1    0    0  501    0  0.00000000000E+00  0.00000000000E+00  0.90180199904E+03  0.90180199904E+03  0.00000000000E+00 0. -1.
         -4   -1    0    0    0  501 -0.00000000000E+00 -0.00000000000E+00 -0.48658443684E+02  0.48658443684E+02  0.00000000000E+00 0.  1.
         25    2    1    2    0    0 -0.50600390825E+02 -0.32283047777E+02  0.82433552256E+03  0.83592934168E+03  0.12508483443E+03 0.  0.
          5    1    3    3  502    0 -0.15058642468E+02  0.46120107729E+02  0.20963585026E+03  0.21521730685E+03  0.41800000000E+01 0.  1.
         -5    1    3    3    0  502 -0.35541748356E+02 -0.78403155506E+02  0.61469967229E+03  0.62071203483E+03  0.41800000000E+01 0.  1.
        -11    1    1    2    0    0 -0.23214081726E+02  0.27251008113E+02  0.16923299988E+02  0.39596832147E+02  0.00000000000E+00 0.  1.
         11    1    1    2    0    0  0.73814472551E+02  0.50320396645E+01  0.11884732809E+02  0.74934268897E+02  0.00000000000E+00 0. -1.
</event>
<event>
 7    1  0.2601031E-009  0.1223752E+03  0.7561462E-02  0.1239229E+00
         -1   -1    0    0    0  501 -0.00000000000E+00  0.00000000000E+00  0.33839716762E+02  0.33839716762E+02  0.00000000000E+00 0.  1.
          1   -1    0    0  501    0  0.00000000000E+00 -0.00000000000E+00 -0.45092275757E+03  0.45092275757E+03  0.00000000000E+00 0. -1.
         25    2    1    2    0    0 -0.48920357105E+02 -0.32904338526E+02 -0.23004816134E+03  0.26841421529E+03  0.12509251616E+03 0.  0.
          5    1    3    3  502    0 -0.86210263940E+02 -0.46870941558E+02 -0.16069077169E+03  0.18832974082E+03  0.41800000000E+01 0. -1.
         -5    1    3    3    0  502  0.37289906834E+02  0.13966603032E+02 -0.69357389642E+02  0.80084474462E+02  0.41800000000E+01 0. -1.
        -11    1    1    2    0    0  0.47348822758E+02 -0.21546963523E+02 -0.11331647354E+03  0.12468683102E+03  0.00000000000E+00 0. -1.
         11    1    1    2    0    0  0.15715343468E+01  0.54451302049E+02 -0.73718405931E+02  0.91661428027E+02  0.00000000000E+00 0.  1.
</event>
<event>
 7    1  0.2601031E-009  0.1422304E+03  0.7561462E-02  0.1210359E+00
          3   -1    0    0  501    0  0.00000000000E+00  0.00000000000E+00  0.37883961888E+03  0.37883961888E+03  0.00000000000E+00 0. -1.
         -3   -1    0    0    0  501 -0.00000000000E+00 -0.00000000000E+00 -0.67233652865E+02  0.67233652865E+02  0.00000000000E+00 0.  1.
         25    2    1    2    0    0 -0.66646141926E+02 -0.80070794507E+02  0.23854644955E+03  0.28879869173E+03  0.12508890991E+03 0.  0.
          5    1    3    3  502    0 -0.93068213945E+02 -0.51801900369E+02  0.22247087742E+03  0.24668987217E+03  0.41800000000E+01 0.  1.
         -5    1    3    3    0  502  0.26422072019E+02 -0.28268894138E+02  0.16075572132E+02  0.42108819562E+02  0.41800000000E+01 0.  1.
        -11    1    1    2    0    0  0.48542805922E+02 -0.78562109097E+01  0.31078496836E+02  0.58172132695E+02  0.00000000000E+00 0. -1.
         11    1    1    2    0    0  0.18103336004E+02  0.87927005416E+02  0.41981019622E+02  0.99102447318E+02  0.00000000000E+00 0.  1.
</event>
<event>
 7    1  0.2601031E-009  0.6255830E+02  0.7561462E-02  0.1387399E+00
         -1   -1    0    0    0  501 -0.00000000000E+00  0.00000000000E+00  0.58898575545E+03  0.58898575545E+03  0.00000000000E+00 0.  1.
          1   -1    0    0  501    0  0.00000000000E+00 -0.00000000000E+00 -0.20412882624E+02  0.20412882624E+02  0.00000000000E+00 0. -1.
         25    2    1    2    0    0 -0.12209540271E+02 -0.11589453890E+02  0.29471086567E+03  0.32060150205E+03  0.12508972963E+03 0.  0.
          5    1    3    3  502    0  0.11898593981E+02 -0.15858879663E+02  0.29506655525E+03  0.29576143263E+03  0.41800000000E+01 0. -1.
         -5    1    3    3    0  502 -0.24108134253E+02  0.42694257734E+01 -0.35568958636E+00  0.24840069418E+02  0.41800000000E+01 0. -1.
        -11    1    1    2    0    0 -0.28726345260E+02 -0.13776652903E+02  0.46345340025E+02  0.56239573427E+02  0.00000000000E+00 0. -1.
         11    1    1    2    0    0  0.40935885532E+02  0.25366106793E+02  0.22751666713E+03  0.23255756260E+03  0.00000000000E+00 0.  1.
</event>
<event>
 7    1  0.2601031E-009  0.1103300E+03  0.7561462E-02  0.1259960E+00
          2   -1    0    0  501    0  0.00000000000E+00  0.00000000000E+00  0.34871310480E+03  0.34871310480E+03  0.00000000000E+00 0. -1.
         -2   -1    0    0    0  501 -0.00000000000E+00 -0.00000000000E+00 -0.46702997207E+02  0.46702997207E+02  0.00000000000E+00 0.  1.
         25    2    1    2    0    0 -0.66177678999E+02 -0.17591256852E+01  0.18252547640E+03  0.23096968087E+03  0.12509542048E+03 0.  0.
          5    1    3    3  502    0  0.35290242410E+01  0.38028512844E+02  0.85979767782E+01  0.39370285825E+02  0.41800000000E+01 0. -1.
         -5    1    3    3    0  502 -0.69706703240E+02 -0.39787638529E+02  0.17392749963E+03  0.19159939505E+03  0.41800000000E+01 0. -1.
        -11    1    1    2    0    0  0.81243155261E+02  0.14020760214E+02  0.11930654252E+03  0.14502097463E+03  0.00000000000E+00 0. -1.
         11    1    1    2    0    0 -0.15065476262E+02 -0.12261634529E+02  0.17808866550E+00  0.19425446504E+02  0.00000000000E+00 0.  1.
</event>
<event>
 7    1  0.2601031E-009  0.1259605E+03  0.7561462E-02  0.1233576E+00
          4   -1    0    0  501    0  0.00000000000E+00  0.00000000000E+00  0.11261176341E+04  0.11261176341E+04  0.00000000000E+00 0. -1.
         -4   -1    0    0    0  501 -0.00000000000E+00 -0.00000000000E+00 -0.85945661640E+02  0.85945661640E+02  0.00000000000E+00 0.  1.
         25    2    1    2    0    0 -0.72113231658E+02 -0.15737589182E+01  0.10804991556E+04  0.10901046250E+04  0.12508746260E+03 0.  0.
          5    1    3    3  502    0  0.15261248077E+02 -0.43959915499E+02  0.31079918593E+03  0.31429124429E+03  0.41800000000E+01 0.  1.
         -5    1    3    3    0  502 -0.87374479735E+02  0.42386156581E+02  0.76969996970E+03  0.77581338074E+03  0.41800000000E+01 0.  1.
        -11    1    1    2    0    0  0.31246038830E+02 -0.39293332874E+02  0.21258625095E+01  0.50247390403E+02  0.00000000000E+00 0. -1.
         11    1    1    2    0    0  0.40867192828E+02  0.40867091792E+02 -0.42453045656E+02  0.71711280331E+02  0.00000000000E+00 0.  1.
</event>
<event>
 7    1  0.2601031E-009  0.9287591E+02  0.7561462E-02  0.1296033E+00
          2   -1    0    0  501    0  0.00000000000E+00  0.00000000000E+00  0.16746906569E+03  0.16746906569E+03  0.00000000000E+00 0. -1.
         -2   -1    0    0    0  501 -0.00000000000E+00 -0.00000000000E+00 -0.88301060207E+02  0.88301060207E+02  0.00000000000E+00 0.  1.
         25    2    1    2    0    0 -0.53500258696E+02 -0.38585999683E+01  0.28714993373E+02  0.13910397394E+03  0.12509275857E+03 0.  0.
          5    1    3    3  502    0 -0.23507043827E+01 -0.35490752936E+02 -0.35916639290E+02  0.50720772204E+02  0.41800000000E+01 0.  1.
         -5    1    3    3    0  502 -0.51149554313E+02  0.31632152968E+02  0.64631632662E+02  0.88383201732E+02  0.41800000000E+01 0.  1.
        -11    1    1    2    0    0  0.12090962296E+02  0.35523222902E+02 -0.79765448166E+01  0.38362950900E+02  0.00000000000E+00 0.  1.
         11    1    1    2    0    0  0.41409296400E+02 -0.31664622933E+02  0.58429556927E+02  0.78303201062E+02  0.00000000000E+00 0. -1.
</event>
<event>
 7    1  0.2601031E-009  0.1450033E+03  0.7561462E-02  0.1206751E+00
         -2   -1    0    0    0  501 -0.00000000000E+00  0.00000000000E+00  0.12801987429E+03  0.12801987429E+03  0.00000000000E+00 0. -1.
          2   -1    0    0  501    0  0.00000000000E+00 -0.00000000000E+00 -0.23346718200E+03  0.23346718200E+03  0.00000000000E+00 0.  1.
         25    2    1    2    0    0  0.12291375391E+03 -0.24388324312E+02 -0.10910509645E+03  0.20796787534E+03  0.12507651194E+03 0.  0.
          5    1    3    3  502    0  0.64537661940E+02 -0.60763499875E+02 -0.10702315319E+03  0.13902784054E+03  0.41800000000E+01 0.  1.
         -5    1    3    3    0  502  0.58376091966E+02  0.36375175564E+02 -0.20819432630E+01  0.68940034800E+02  0.41800000000E+01 0.  1.
        -11    1    1    2    0    0 -0.25921606915E+02 -0.12258006711E+02 -0.32842007578E+02  0.43598003342E+02  0.00000000000E+00 0.  1.
         11    1    1    2    0    0 -0.96992146990E+02  0.36646331023E+02  0.36499796322E+02  0.10992117761E+03  0.00000000000E+00 0. -1.
</event>
<event>
 7    1  0.2601031E-009  0.9703140E+02  0.7561462E-02  0.1286665E+00
          2   -1    0    0  501    0  0.00000000000E+00  0.00000000000E+00  0.90570247078E+02  0.90570247078E+02  0.00000000000E+00 0. -1.
         -2   -1    0    0    0  501 -0.00000000000E+00 -0.00000000000E+00 -0.15702120217E+03  0.15702120217E+03  0.00000000000E+00 0.  1.
         25    2    1    2    0    0 -0.15551054815E+02  0.20339744733E+02  0.73968002700E+01  0.12789743104E+03  0.12508996639E+03 0.  0.
          5    1    3    3  502    0  0.51818828060E+02 -0.35807209670E+01 -0.12467223323E+02  0.53580934684E+02  0.41800000000E+01 0. -1.
         -5    1    3    3    0  502 -0.67369882875E+02  0.23920465700E+02  0.19864023593E+02  0.74316496360E+02  0.41800000000E+01 0. -1.
        -11    1    1    2    0    0 -0.86159330488E+01  0.20863325190E+02  0.88065779225E+01  0.24229495558E+02  0.00000000000E+00 0. -1.
         11    1    1    2    0    0  0.24166987864E+02 -0.41203069923E+02 -0.82654333286E+02  0.95464522648E+02  0.00000000000E+00 0.  1.
</event>
<event>
 7    1  0.2601031E-009  0.1274636E+03  0.7561462E-02  0.1231269E+00
         -1   -1    0    0    0  501 -0.00000000000E+00  0.00000000000E+00  0.17833407428E+03  0.17833407428E+03  0.00000000000E+00 0.  1.
          1   -1    0    0  501    0  0.00000000000E+00 -0.00000000000E+00 -0.14719514956E+03  0.14719514956E+03  0.00000000000E+00 0. -1.
         25    2    1    2    0    0  0.90308898536E+02 -0.53129399190E+02  0.74306784191E+02  0.17929761207E+03  0.12509078824E+03 0.  0.
          5    1    3    3  502    0 -0.10080599036E+02  0.28928646441E+01  0.62661577758E+02  0.63670502353E+02  0.41800000000E+01 0.  1.
         -5    1    3    3    0  502  0.10038949757E+03 -0.56022263834E+02  0.11645206433E+02  0.11562710971E+03  0.41800000000E+01 0.  1.
        -11    1    1    2    0    0 -0.80850374885E+02  0.66023489525E+01  0.13725102189E+01  0.81131115579E+02  0.00000000000E+00 0. -1.
         11    1    1    2    0    0 -0.94585236515E+01  0.46527050237E+02 -0.44540369692E+02  0.65100496202E+02  0.00000000000E+00 0.  1.
</event>
<event>
 7    1  0.2601031E-009  0.8266539E+02  0.7561462E-02  0.1321653E+00
          1   -1    0    0  501    0  0.00000000000E+00  0.00000000000E+00  0.63970466887E+03  0.63970466887E+03  0.00000000000E+00 0. -1.
         -1   -1    0    0    0  501 -0.00000000000E+00 -0.00000000000E+00 -0.21206854376E+02  0.21206854376E+02  0.00000000000E+00 0.  1.
         25    2    1    2    0    0 -0.29641623475E+02 -0.17877102922E+02  0.28305178911E+03  0.31139055291E+03  0.12509014540E+03 0.  0.
          5    1    3    3  502    0  0.18265720665E+01 -0.36045511550E+02  0.12568519729E+02  0.38445485516E+02  0.41800000000E+01 0.  1.
         -5    1    3    3    0  502 -0.31468195542E+02  0.18168408627E+02  0.27048326938E+03  0.27294506740E+03  0.41800000000E+01 0.  1.
        -11    1    1    2    0    0  0.35639460436E+02  0.49075890410E+02  0.27055741994E+03  0.27727230595E+03  0.00000000000E+00 0. -1.
         11    1    1    2    0    0 -0.59978369609E+01 -0.31198787488E+02  0.64888605446E+02  0.72248664387E+02  0.00000000000E+00 0.  1.
</event>
<event>
 7    1  0.2601031E-009  0.1470209E+03  0.7561462E-02  0.1204182E+00
         -2   -1    0    0    0  501 -0.00000000000E+00  0.00000000000E+00  0.31853627592E+02  0.31853627592E+02  0.00000000000E+00 0. -1.
          2   -1    0    0  501    0  0.00000000000E+00 -0.00000000000E+00 -0.78867242393E+03  0.78867242393E+03  0.00000000000E+00 0.  1.
         25    2    1    2    0    0 -0.10663724501E+03  0.88862078964E+01 -0.52022072151E+03  0.54564496829E+03  0.12509342755E+03 0.  0.
          5    1    3    3  502    0 -0.12372980968E+03  0.38059269936E+02 -0.38516280487E+03  0.40635628762E+03  0.41800000000E+01 0.  1.
         -5    1    3    3    0  502  0.17092564673E+02 -0.29173062039E+02 -0.13505791664E+03  0.13928868067E+03  0.41800000000E+01 0.  1.
        -11    1    1    2    0    0  0.40815370694E+02  0.32955502196E+02 -0.14705919215E+03  0.15613572816E+03  0.00000000000E+00 0.  1.
         11    1    1    2    0    0  0.65821874313E+02 -0.41841710092E+02 -0.89538882673E+02  0.11874535507E+03  0.00000000000E+00 0. -1.
</event>
<event>
 7    1  0.2601031E-009  0.1217745E+03  0.7561462E-02  0.1240198E+00
          1   -1    0    0  501    0  0.00000000000E+00  0.00000000000E+00  0.86853370762E+02  0.86853370762E+02  0.00000000000E+00 0. -1.
         -1   -1    0    0    0  501 -0.00000000000E+00 -0.00000000000E+00 -0.23714228513E+03  0.23714228513E+03  0.00000000000E+00 0.  1.
         25    2    1    2    0    0 -0.73603740725E+02  0.39977697223E+02 -0.34354499007E+02  0.15441158655E+03  0.12508788724E+03 0.  0.
          5    1    3    3  502    0  0.31855114956E+02  0.23084668204E+02  0.62919326315E+01  0.40058845106E+02  0.41800000000E+01 0. -1.
         -5    1    3    3    0  502 -0.10545885568E+03  0.16893029019E+02 -0.40646431638E+02  0.11435274145E+03  0.41800000000E+01 0. -1.
        -11    1    1    2    0    0  0.13830602880E+02  0.11678022772E+02 -0.81358972374E+02  0.83348330383E+02  0.00000000000E+00 0.  1.
         11    1    1    2    0    0  0.59773137846E+02 -0.51655719996E+02 -0.34575442990E+02  0.86235738961E+02  0.00000000000E+00 0. -1.
</event>
<event>
 7    1  0.2601031E-009  0.2716559E+03  0.7561462E-02  0.1100336E+00
         -2   -1    0    0    0  501 -0.00000000000E+00  0.00000000000E+00  0.99888201962E+02  0.99888201962E+02  0.00000000000E+00 0.  1.
          2   -1    0    0  501    0  0.00000000000E+00 -0.00000000000E+00 -0.81653049996E+03  0.81653049996E+03  0.00000000000E+00 0. -1.
         25    2    1    2    0    0 -0.24320219542E+03 -0.92332584296E+02 -0.29395098581E+03  0.41198072378E+03  0.12509324812E+03 0.  0.
          5    1    3    3  502    0 -0.17568829673E+03 -0.11390800926E+03 -0.25829905706E+03  0.33253163378E+03  0.41800000000E+01 0. -1.
         -5    1    3    3    0  502 -0.67513898689E+02  0.21575424965E+02 -0.35651928746E+02  0.79449090001E+02  0.41800000000E+01 0. -1.
        -11    1    1    2    0    0  0.10403814134E+03  0.19624201099E+02 -0.24743539591E+03  0.26913438887E+03  0.00000000000E+00 0. -1.
         11    1    1    2    0    0  0.13916405408E+03  0.72708383197E+02 -0.17525591628E+03  0.23530358928E+03  0.00000000000E+00 0.  1.
</event>
<event>
 7    1  0.2601031E-009  0.1352320E+03  0.7561462E-02  0.1219893E+00
          3   -1    0    0  501    0  0.00000000000E+00  0.00000000000E+00  0.45495532644E+03  0.45495532644E+03  0.00000000000E+00 0. -1.
         -3   -1    0    0    0  501 -0.00000000000E+00 -0.00000000000E+00 -0.51303762012E+02  0.51303762012E+02  0.00000000000E+00 0.  1.
         25    2    1    2    0    0 -0.14618282809E+02 -0.10397527491E+03  0.17930282092E+03  0.24253300534E+03  0.12509278599E+03 0.  0.
          5    1    3    3  502    0  0.49817330082E+02 -0.41988725952E+02  0.38812883262E+02  0.75952167781E+02  0.41800000000E+01 0.  1.
         -5    1    3    3    0  502 -0.64435612891E+02 -0.61986548958E+02  0.14048993766E+03  0.16658083756E+03  0.41800000000E+01 0.  1.
        -11    1    1    2    0    0  0.29396380000E+02  0.37913439018E+02  0.26914121845E+02  0.55008599055E+02  0.00000000000E+00 0. -1.
         11    1    1    2    0    0 -0.14778097191E+02  0.66061835891E+02  0.19743462167E+03  0.20871748406E+03  0.00000000000E+00 0.  1.
</event>
<event>
 7    1  0.2601031E-009  0.1193342E+03  0.7561462E-02  0.1244199E+00
          1   -1    0    0  501    0  0.00000000000E+00  0.00000000000E+00  0.44947776318E+03  0.44947776318E+03  0.00000000000E+00 0. -1.
         -1   -1    0    0    0  501 -0.00000000000E+00 -0.00000000000E+00 -0.40374482716E+02  0.40374482716E+02  0.00000000000E+00 0.  1.
         25    2    1    2    0    0 -0.89596703852E+01 -0.59705935294E+02  0.13419026289E+03  0.19312860202E+03  0.12508619373E+03 0.  0.
          5    1    3    3  502    0  0.49182501692E+02  0.81328246845E-01  0.78605589471E+02  0.92818296596E+02  0.41800000000E+01 0. -1.
         -5    1    3    3    0  502 -0.58142172077E+02 -0.59787263541E+02  0.55584673416E+02  0.10031030542E+03  0.41800000000E+01 0. -1.
        -11    1    1    2    0    0  0.36975431719E+02 -0.30304004606E+01  0.14604641778E+03  0.15068484338E+03  0.00000000000E+00 0. -1.
         11    1    1    2    0    0 -0.28015761334E+02  0.62736335755E+02  0.12886659979E+03  0.14603880049E+03  0.00000000000E+00 0.  1.
</event>
<event>
 7    1  0.2601031E-009  0.1569421E+03  0.7561462E-02  0.1192193E+00
          1   -1    0    0  501    0  0.00000000000E+00  0.00000000000E+00  0.11567767403E+04  0.11567767403E+04  0.00000000000E+00 0. -1.
         -1   -1    0    0    0  501 -0.00000000000E+00 -0.00000000000E+00 -0.25957437396E+02  0.25957437396E+02  0.00000000000E+00 0.  1.
         25    2    1    2    0    0  0.11575153767E+03 -0.70850929520E+02  0.52011389356E+03  0.55189178843E+03  0.12509121143E+03 0.  0.
          5    1    3    3  502    0 -0.77783239099E+00 -0.55938889620E+02  0.90434080141E+02  0.10642161268E+03  0.41800000000E+01 0. -1.
         -5    1    3    3    0  502  0.11652937006E+03 -0.14912039900E+02  0.42967981341E+03  0.44547017574E+03  0.41800000000E+01 0. -1.
        -11    1    1    2    0    0 -0.92541371784E+02  0.38074514856E+02  0.54281774382E+03  0.55196438036E+03  0.00000000000E+00 0.  1.
         11    1    1    2    0    0 -0.23210165887E+02  0.32776414664E+02  0.67887665485E+02  0.78878008873E+02  0.00000000000E+00 0. -1.
</event>
<event>
 7    1  0.2601031E-009  0.1064598E+03  0.7561462E-02  0.1267270E+00
          1   -1    0    0  501    0  0.00000000000E+00  0.00000000000E+00  0.12422620440E+03  0.12422620440E+03  0.00000000000E+00 0. -1.
         -1   -1    0    0    0  501 -0.00000000000E+00 -0.00000000000E+00 -0.11736299145E+03  0.11736299145E+03  0.00000000000E+00 0.  1.
         25    2    1    2    0    0  0.31087709217E+02  0.22157671480E+02  0.41298191901E+02  0.13715172756E+03  0.12509055780E+03 0.  0.
          5    1    3    3  502    0 -0.33114421684E+02 -0.19884634904E+02  0.45926991733E+02  0.60155835946E+02  0.41800000000E+01 0. -1.
         -5    1    3    3    0  502  0.64202130901E+02  0.42042306384E+02 -0.46287998328E+01  0.76995891619E+02  0.41800000000E+01 0. -1.
        -11    1    1    2    0    0 -0.15109808412E+01  0.33844789986E+02 -0.38203808361E+01  0.34093227803E+02  0.00000000000E+00 0.  1.
         11    1    1    2    0    0 -0.29576728376E+02 -0.56002461466E+02 -0.30614598107E+02  0.70344240481E+02  0.00000000000E+00 0. -1.
</event>
<event>
 7    1  0.2678092E-009  0.9768768E+02  0.7561462E-02  0.1285235E+00
          3   -1    0    0  501    0  0.00000000000E+00  0.00000000000E+00  0.12477352013E+03  0.12477352013E+03  0.00000000000E+00 0. -1.
         -3   -1    0    0    0  501 -0.00000000000E+00 -0.00000000000E+00 -0.12704380557E+03  0.12704380557E+03  0.00000000000E+00 0.  1.
         25    2    1    2    0    0  0.49669605083E+02  0.13881141318E+02 -0.39165866907E+02  0.14085731696E+03  0.12508822030E+03 0.  0.
          5    1    3    3  502    0  0.70611000350E+02  0.10745726933E+02 -0.72039807785E+02  0.10153122832E+03  0.41800000000E+01 0. -1.
         -5    1    3    3    0  502 -0.20941395267E+02  0.31354143852E+01  0.32873940879E+02  0.39326088643E+02  0.41800000000E+01 0. -1.
        -11    1    1    2    0    0  0.71934462480E+01  0.29727828561E+02  0.50607635999E+00  0.30589958698E+02  0.00000000000E+00 0.  1.
         11    1    1    2    0    0 -0.56863051331E+02 -0.43608969880E+02  0.36389505106E+02  0.80370050034E+02  0.00000000000E+00 0. -1.
</event>
<event>
 7    1  0.2601031E-009  0.1286839E+03  0.7561462E-02  0.1229422E+00
          2   -1    0    0  501    0  0.00000000000E+00  0.00000000000E+00  0.46569331373E+02  0.46569331373E+02  0.00000000000E+00 0. -1.
         -2   -1    0    0    0  501 -0.00000000000E+00 -0.00000000000E+00 -0.60490258924E+03  0.60490258924E+03  0.00000000000E+00 0.  1.
         25    2    1    2    0    0 -0.79976609100E+02  0.39047449276E+02 -0.47178079315E+03  0.49613047244E+03  0.12508943840E+03 0.  0.
          5    1    3    3  502    0 -0.60606896852E+02  0.82532971773E+02 -0.36559989083E+03  0.37969150630E+03  0.41800000000E+01 0.  1.
         -5    1    3    3    0  502 -0.19369712248E+02 -0.43485522498E+02 -0.10618090232E+03  0.11643896614E+03  0.41800000000E+01 0.  1.
        -11    1    1    2    0    0  0.23972843583E+02  0.15800040190E+02  0.10513595216E+02  0.30575712319E+02  0.00000000000E+00 0. -1.
         11    1    1    2    0    0  0.56003765517E+02 -0.54847489466E+02 -0.97066059932E+02  0.12476573586E+03  0.00000000000E+00 0.  1.
</event>
<event>
 7    1  0.2601031E-009  0.1016682E+03  0.7561462E-02  0.1276826E+00
          1   -1    0    0  501    0  0.00000000000E+00  0.00000000000E+00  0.36572998976E+03  0.36572998976E+03  0.00000000000E+00 0. -1.
         -1   -1    0    0    0  501 -0.00000000000E+00 -0.00000000000E+00 -0.37027728644E+02  0.37027728644E+02  0.00000000000E+00 0.  1.
         25    2    1    2    0    0  0.55620082768E+01 -0.38066490288E+02  0.18109564120E+03  0.22343633299E+03  0.12509264574E+03 0.  0.
          5    1    3    3  502    0  0.40544256433E+02  0.25826275424E+02  0.11607979448E+03  0.12570928493E+03  0.41800000000E+01 0. -1.
         -5    1    3    3    0  502 -0.34982248156E+02 -0.63892765712E+02  0.65015846724E+02  0.97727048055E+02  0.41800000000E+01 0. -1.
        -11    1    1    2    0    0  0.32044130262E+02  0.29492520778E+02  0.23765915377E+02  0.49613040623E+02  0.00000000000E+00 0.  1.
         11    1    1    2    0    0 -0.37606138539E+02  0.85739695101E+01  0.12384070454E+03  0.12970834480E+03  0.00000000000E+00 0. -1.
</event>
<event>
 7    1  0.2601031E-009  0.1175596E+03  0.7561462E-02  0.1247178E+00
         -2   -1    0    0    0  501 -0.00000000000E+00  0.00000000000E+00  0.17896595098E+03  0.17896595098E+03  0.00000000000E+00 0.  1.
          2   -1    0    0  501    0  0.00000000000E+00 -0.00000000000E+00 -0.88251002165E+02  0.88251002165E+02  0.00000000000E+00 0. -1.
         25    2    1    2    0    0  0.57925935978E+02  0.79607453811E+01  0.79225955337E+02  0.15919037571E+03  0.12508411648E+03 0.  0.
          5    1    3    3  502    0 -0.35879244255E+02  0.20170900330E+02  0.37035820621E+02  0.55527558901E+02  0.41800000000E+01 0. -1.
         -5    1    3    3    0  502  0.93805180232E+02 -0.12210154949E+02  0.42190134716E+02  0.10366281681E+03  0.41800000000E+01 0. -1.
        -11    1    1    2    0    0 -0.59933757996E+02 -0.36681071955E+02 -0.11476226299E+02  0.71198737049E+02  0.00000000000E+00 0. -1.
         11    1    1    2    0    0  0.20078220186E+01  0.28720326574E+02  0.22965219776E+02  0.36827840381E+02  0.00000000000E+00 0.  1.
</event>
<event>
 7    1  0.2601031E-009  0.1378249E+03  0.7561462E-02  0.1216286E+00
          2   -1    0    0  501    0  0.00000000000E+00  0.00000000000E+00  0.23348856381E+03  0.23348856381E+03  0.00000000000E+00 0.  1.
         -2   -1    0    0    0  501 -0.00000000000E+00 -0.00000000000E+00 -0.10600979347E+03  0.10600979347E+03  0.00000000000E+00 0. -1.
         25    2    1    2    0    0  0.88976146518E+02  0.67070171006E+02  0.42567321595E+02  0.17284409974E+03  0.12509174018E+03 0.  0.
          5    1    3    3  502    0  0.33405988694E+02  0.93434568689E+02  0.49210404879E+02  0.11083823824E+03  0.41800000000E+01 0.  1.
         -5    1    3    3    0  502  0.55570157823E+02 -0.26364397683E+02 -0.66430832842E+01  0.62005861507E+02  0.41800000000E+01 0.  1.
        -11    1    1    2    0    0 -0.52064633495E+02 -0.55277790231E+02  0.99572522910E+02  0.12522398920E+03  0.00000000000E+00 0.  1.
         11    1    1    2    0    0 -0.36911513023E+02 -0.11792380775E+02 -0.14661074163E+02  0.41430268326E+02  0.00000000000E+00 0. -1.
</event>
<event>
 7    1  0.2601031E-009  0.1255603E+03  0.7561462E-02  0.1234196E+00
          1   -1    0    0  501    0  0.00000000000E+00  0.00000000000E+00  0.33522337530E+03  0.33522337530E+03  0.00000000000E+00 0. -1.
         -1   -1    0    0    0  501 -0.00000000000E+00 -0.00000000000E+00 -0.72383326868E+02  0.72383326868E+02  0.00000000000E+00 0.  1.
         25    2    1    2    0    0  0.19117186346E+02 -0.10793828536E+03  0.10678132081E+03  0.19765272859E+03  0.12509280708E+03 0.  0.
          5    1    3    3  502    0  0.41820916663E+02 -0.81180312646E+02  0.68669925519E+01  0.91672570699E+02  0.41800000000E+01 0.  1.
         -5    1    3    3    0  502 -0.22703730317E+02 -0.26757972714E+02  0.99914328263E+02  0.10598015789E+03  0.41800000000E+01 0.  1.
        -11    1    1    2    0    0 -0.35293071823E+02  0.35184780932E+02  0.17859721277E+02  0.52939015594E+02  0.00000000000E+00 0.  1.
         11    1    1    2    0    0  0.16175885477E+02  0.72753504428E+02  0.13819900634E+03  0.15701495798E+03  0.00000000000E+00 0. -1.
</event>
<event>
 7    1  0.2601031E-009  0.1042067E+03  0.7561462E-02  0.1271691E+00
          2   -1    0    0  501    0  0.00000000000E+00  0.00000000000E+00  0.39084509525E+03  0.39084509525E+03  0.00000000000E+00 0. -1.
         -2   -1    0    0    0  501 -0.00000000000E+00 -0.00000000000E+00 -0.54295019050E+02  0.54295019050E+02  0.00000000000E+00 0.  1.
         25    2    1    2    0    0 -0.59800507899E+02 -0.58169890119E+01  0.30298613181E+03  0.33325324944E+03  0.12508874486E+03 0.  0.
          5    1    3    3  502    0 -0.65510635297E+02 -0.51742379136E+02  0.13345691360E+03  0.15747106821E+03  0.41800000000E+01 0.  1.
         -5    1    3    3    0  502  0.57101273977E+01  0.45925390124E+02  0.16952921821E+03  0.17578218123E+03  0.41800000000E+01 0.  1.
        -11    1    1    2    0    0 -0.20007425922E+01  0.15654658571E+02 -0.22757922135E+02  0.27694662406E+02  0.00000000000E+00 0.  1.
         11    1    1    2    0    0  0.61801250491E+02 -0.98376695591E+01  0.56321866530E+02  0.84192202454E+02  0.00000000000E+00 0. -1.
</event>
<event>
 7    1  0.2601031E-009  0.1429166E+03  0.7561462E-02  0.1209457E+00
         -1   -1    0    0    0  501 -0.00000000000E+00  0.00000000000E+00  0.19162551244E+02  0.19162551244E+02  0.00000000000E+00 0.  1.
          1   -1    0    0  501    0  0.00000000000E+00 -0.00000000000E+00 -0.11863803387E+04  0.11863803387E+04  0.00000000000E+00 0. -1.
         25    2    1    2    0    0  0.77041214856E+02  0.56482042015E+02 -0.79862915442E+03  0.81399124132E+03  0.12509054643E+03 0.  0.
          5    1    3    3  502    0  0.36677802008E+02  0.92420641766E+02 -0.42793337266E+03  0.43935325198E+03  0.41800000000E+01 0. -1.
         -5    1    3    3    0  502  0.40363412848E+02 -0.35938599751E+02 -0.37069578176E+03  0.37463798934E+03  0.41800000000E+01 0. -1.
        -11    1    1    2    0    0  0.18199193059E+02  0.48409829882E+01 -0.50825114865E+02  0.54201826956E+02  0.00000000000E+00 0. -1.
         11    1    1    2    0    0 -0.95240407915E+02 -0.61323025003E+02 -0.31776351814E+03  0.33734982163E+03  0.00000000000E+00 0.  1.
</event>
<event>
 7    1  0.2601031E-009  0.1383287E+03  0.7561462E-02  0.1215596E+00
          1   -1    0    0  501    0  0.00000000000E+00  0.00000000000E+00  0.84840248708E+02  0.84840248708E+02  0.00000000000E+00 0. -1.
         -1   -1    0    0    0  501 -0.00000000000E+00 -0.00000000000E+00 -0.49011247133E+03  0.49011247133E+03  0.00000000000E+00 0.  1.
         25    2    1    2    0    0 -0.75194826837E+01 -0.39544136861E+02  0.11933970014E+02  0.13194304060E+03  0.12508503085E+03 0.  0.
          5    1    3    3  502    0  0.46442668082E+02  0.20156522042E+02  0.57145576072E+01  0.51120791934E+02  0.41800000000E+01 0.  1.
         -5    1    3    3    0  502 -0.53962150765E+02 -0.59700658903E+02  0.62194124067E+01  0.80822248666E+02  0.41800000000E+01 0.  1.
        -11    1    1    2    0    0  0.66073603769E+02  0.53572707838E+02 -0.29097351383E+03  0.30315234106E+03  0.00000000000E+00 0. -1.
         11    1    1    2    0    0 -0.58554121086E+02 -0.14028570977E+02 -0.12623267881E+03  0.13985733838E+03  0.00000000000E+00 0.  1.
</event>
<event>
 7    1  0.2601031E-009  0.1676061E+03  0.7561462E-02  0.1180368E+00
          2   -1    0    0  501    0  0.00000000000E+00  0.00000000000E+00  0.18119936247E+03  0.18119936247E+03  0.00000000000E+00 0. -1.
         -2   -1    0    0    0  501 -0.00000000000E+00 -0.00000000000E+00 -0.28307061747E+03  0.28307061747E+03  0.00000000000E+00 0.  1.
         25    2    1    2    0    0 -0.11484816390E+03 -0.10094303171E+03 -0.18983033408E+03  0.27396859927E+03  0.12507454277E+03 0.  0.
          5    1    3    3  502    0 -0.10632913111E+03 -0.30368080484E+02 -0.16476306906E+03  0.19847530264E+03  0.41800000000E+01 0.  1.
         -5    1    3    3    0  502 -0.85190327936E+01 -0.70574951222E+02 -0.25067265019E+02  0.75493296625E+02  0.41800000000E+01 0.  1.
        -11    1    1    2    0    0  0.55439619087E+02  0.56437522330E+02  0.84844737111E+02  0.11600592531E+03  0.00000000000E+00 0. -1.
         11    1    1    2    0    0  0.59408544813E+02  0.44505509376E+02  0.31143419745E+01  0.74295455363E+02  0.00000000000E+00 0.  1.
</event>
<event>
 7    1  0.2601031E-009  0.1289222E+03  0.7561462E-02  0.1229064E+00
         -1   -1    0    0    0  501 -0.00000000000E+00  0.00000000000E+00  0.80544055113E+02  0.80544055113E+02  0.00000000000E+00 0.  1.
          1   -1    0    0  501    0  0.00000000000E+00 -0.00000000000E+00 -0.43470972128E+03  0.43470972128E+03  0.00000000000E+00 0. -1.
         25    2    1    2    0    0  0.94940131453E+02  0.63616926630E+02 -0.32426883971E+03  0.36586756260E+03  0.12509217017E+03 0.  0.
          5    1    3    3  502    0  0.79889308850E+02  0.55565513672E+02 -0.33249201941E+03  0.34646535664E+03  0.41800000000E+01 0. -1.
         -5    1    3    3    0  502  0.15050822603E+02  0.80514129579E+01  0.82231797010E+01  0.19402205958E+02  0.41800000000E+01 0. -1.
        -11    1    1    2    0    0 -0.37019857322E+02 -0.75184306310E+02 -0.14213482365E+01  0.83816287094E+02  0.00000000000E+00 0.  1.
         11    1    1    2    0    0 -0.57920274131E+02  0.11567379680E+02 -0.28475478222E+02  0.65569926705E+02  0.00000000000E+00 0. -1.
</event>
<event>
 7    1  0.2601031E-009  0.1030552E+03  0.7561462E-02  0.1273999E+00
          2   -1    0    0  501    0  0.00000000000E+00  0.00000000000E+00  0.12812513056E+03  0.12812513056E+03  0.00000000000E+00 0.  1.
         -2   -1    0    0    0  501 -0.00000000000E+00 -0.00000000000E+00 -0.87528868840E+02  0.87528868840E+02  0.00000000000E+00 0. -1.
         25    2    1    2    0    0 -0.15666107310E+02  0.57218061190E+01  0.13853459561E+02  0.12696261295E+03  0.12509764491E+03 0.  0.
          5    1    3    3  502    0  0.39984799205E+02  0.43063757229E+02  0.94904929267E+01  0.59672549888E+02  0.41800000000E+01 0. -1.
         -5    1    3    3    0  502 -0.55650906515E+02 -0.37341951110E+02  0.43629666339E+01  0.67290063059E+02  0.41800000000E+01 0. -1.
        -11    1    1    2    0    0 -0.21406209631E+02 -0.29171320569E+02  0.26458079950E+02  0.44824343265E+02  0.00000000000E+00 0.  1.
         11    1    1    2    0    0  0.37072316942E+02  0.23449514450E+02  0.28472220955E+00  0.43867043188E+02  0.00000000000E+00 0. -1.
</event>
<event>
 7    1  0.2601031E-009  0.1129374E+03  0.7561462E-02  0.1255225E+00
          2   -1    0    0  501    0  0.00000000000E+00  0.00000000000E+00  0.96098142038E+02  0.96098142038E+02  0.00000000000E+00 0. -1.
         -2   -1    0    0    0  501 -0.00000000000E+00 -0.00000000000E+00 -0.19120969064E+03  0.19120969064E+03  0.00000000000E+00 0.  1.
         25    2    1    2    0    0 -0.42147028949E+02 -0.65948256141E+02 -0.79306041086E+02  0.16751410785E+03  0.12508390639E+03 0.  0.
          5    1    3    3  502    0 -0.40863643610E+02  0.10533100026E+02  0.15922959035E+02  0.45296761359E+02  0.41800000000E+01 0.  1.
         -5    1    3    3    0  502 -0.12833853388E+01 -0.76481356167E+02 -0.95229000121E+02  0.12221734649E+03  0.41800000000E+01 0.  1.
        -11    1    1    2    0    0  0.62873971146E+02  0.54365772696E+02 -0.34077365892E+02  0.89833403334E+02  0.00000000000E+00 0.  1.
         11    1    1    2    0    0 -0.20726942197E+02  0.11582483446E+02  0.18271858376E+02  0.29960321495E+02  0.00000000000E+00 0. -1.
</event>
<event>
 7    1  0.2601031E-009  0.1266945E+03  0.7561462E-02  0.1232445E+00
          4   -1    0    0  501    0  0.00000000000E+00  0.00000000000E+00  0.25056845284E+02  0.25056845284E+02  0.00000000000E+00 0. -1.
         -4   -1    0    0    0  501 -0.00000000000E+00 -0.00000000000E+00 -0.73272773441E+03  0.73272773441E+03  0.00000000000E+00 0.  1.
         25    2    1    2    0    0 -0.60010505595E+02 -0.45404038416E+02 -0.27711665019E+03  0.31321542744E+03  0.12508988243E+03 0.  0.
          5    1    3    3  502    0 -0.94454414997E+02 -0.13458279066E+02 -0.21471743036E+03  0.23499746613E+03  0.41800000000E+01 0.  1.
         -5    1    3    3    0  502  0.34443909402E+02 -0.31945759350E+02 -0.62399219827E+02  0.78217961303E+02  0.41800000000E+01 0.  1.
        -11    1    1    2    0    0  0.79460605586E+02  0.26929059196E+02 -0.32250844821E+03  0.33324294626E+03  0.00000000000E+00 0. -1.
         11    1    1    2    0    0 -0.19450099990E+02  0.18474979220E+02 -0.10804579073E+03  0.11132620599E+03  0.00000000000E+00 0.  1.
</event>
<event>
 7    1  0.2601031E-009  0.1236108E+03  0.7561462E-02  0.1237256E+00
          2   -1    0    0  501    0  0.00000000000E+00  0.00000000000E+00  0.77374019852E+03  0.77374019852E+03  0.00000000000E+00 0. -1.
         -2   -1    0    0    0  501 -0.00000000000E+00 -0.00000000000E+00 -0.22074756905E+02  0.22074756905E+02  0.00000000000E+00 0.  1.
         25    2    1    2    0    0 -0.49539215021E+02  0.45041605617E+02  0.44632141946E+03  0.46833114641E+03  0.12509345772E+03 0.  0.
          5    1    3    3  502    0 -0.72430027740E+02  0.66999375989E+02  0.23968112900E+03  0.25922874320E+03  0.41800000000E+01 0. -1.
         -5    1    3    3    0  502  0.22890812719E+02 -0.21957770371E+02  0.20664029046E+03  0.20910240321E+03  0.41800000000E+01 0. -1.
        -11    1    1    2    0    0  0.76624966439E+02 -0.19102638814E+02  0.17797924427E+03  0.19471237168E+03  0.00000000000E+00 0.  1.
         11    1    1    2    0    0 -0.27085751418E+02 -0.25938966804E+02  0.12736477787E+03  0.13277143733E+03  0.00000000000E+00 0. -1.
</event>
<event>
 7    1  0.2601031E-009  0.1153465E+03  0.7561462E-02  0.1250977E+00
          1   -1    0    0  501    0  0.00000000000E+00  0.00000000000E+00  0.68342773345E+03  0.68342773345E+03  0.00000000000E+00 0. -1.
         -1   -1    0    0    0  501 -0.00000000000E+00 -0.00000000000E+00 -0.26245630505E+02  0.26245630505E+02  0.00000000000E+00 0.  1.
         25    2    1    2    0    0  0.64901216986E+02  0.30038841196E+02  0.27211515242E+03  0.30791153826E+03  0.12509340219E+03 0.  0.
          5    1    3    3  502    0  0.33871355846E+02  0.67873975022E+02  0.82980877537E+02  0.11250530507E+03  0.41800000000E+01 0. -1.
         -5    1    3    3    0  502  0.31029861140E+02 -0.37835133826E+02  0.18913427488E+03  0.19540623319E+03  0.41800000000E+01 0. -1.
        -11    1    1    2    0    0 -0.16130219296E+02 -0.50282336830E+02  0.27056809440E+03  0.27567297850E+03  0.00000000000E+00 0.  1.
         11    1    1    2    0    0 -0.48770997690E+02  0.20243495634E+02  0.11449885613E+03  0.12608884719E+03  0.00000000000E+00 0. -1.
</event>
<event>
 7    1  0.2601031E-009  0.1049969E+03  0.7561462E-02  0.1270126E+00
         -1   -1    0    0    0  501 -0.00000000000E+00  0.00000000000E+00  0.95355542319E+01  0.95355542319E+01  0.00000000000E+00 0.  1.
          1   -1    0    0  501    0  0.00000000000E+00 -0.00000000000E+00 -0.19686193526E+04  0.19686193526E+04  0.00000000000E+00 0. -1.
         25    2    1    2    0    0  0.24767415776E+02 -0.25014648360E+02 -0.16193525571E+04  0.16245582715E+04  0.12509082995E+03 0.  0.
          5    1    3    3  502    0  0.27749450916E+01 -0.68693316257E+02 -0.12584706092E+04  0.12603540053E+04  0.41800000000E+01 0. -1.
         -5    1    3    3    0  502  0.21992470685E+02  0.43678667897E+02 -0.36088194797E+03  0.36420426627E+03  0.41800000000E+01 0. -1.
        -11    1    1    2    0    0 -0.55322188491E+02  0.50830190875E+01 -0.26067316243E+03  0.26652744556E+03  0.00000000000E+00 0. -1.
         11    1    1    2    0    0  0.30554772715E+02  0.19931629272E+02 -0.79058078776E+02  0.87069189734E+02  0.00000000000E+00 0.  1.
</event>
<event>
 7    1  0.2601031E-009  0.1357323E+03  0.7561462E-02  0.1219190E+00
         -2   -1    0    0    0  501 -0.00000000000E+00  0.00000000000E+00  0.55582335389E+03  0.55582335389E+03  0.00000000000E+00 0.  1.
          2   -1    0    0  501    0  0.00000000000E+00 -0.00000000000E+00 -0.50502654120E+02  0.50502654120E+02  0.00000000000E+00 0. -1.
         25    2    1    2    0    0  0.91690466955E+02  0.86402761774E+02  0.28769580612E+03  0.33805939925E+03  0.12507078633E+03 0.  0.
          5    1    3    3  502    0  0.43533869128E+02  0.17877506874E+02  0.10423073362E+02  0.48383012221E+02  0.41800000000E+01 0.  1.
         -5    1    3    3    0  502  0.48156597827E+02  0.68525254900E+02  0.27727273276E+03  0.28967638703E+03  0.41800000000E+01 0.  1.
        -11    1    1    2    0    0 -0.65007749593E+02 -0.92432695137E+02  0.21214880064E+03  0.24036830958E+03  0.00000000000E+00 0.  1.
         11    1    1    2    0    0 -0.26682717361E+02  0.60299333622E+01  0.54760930079E+01  0.27898299173E+02  0.00000000000E+00 0. -1.
</event>
<event>
 7    1  0.2601031E-009  0.7754702E+02  0.7561462E-02  0.1336160E+00
         -1   -1    0    0    0  501 -0.00000000000E+00  0.00000000000E+00  0.69641601321E+02  0.69641601321E+02  0.00000000000E+00 0.  1.
          1   -1    0    0  501    0  0.00000000000E+00 -0.00000000000E+00 -0.20414042777E+03  0.20414042777E+03  0.00000000000E+00 0. -1.
         25    2    1    2    0    0  0.80691803854E+01  0.33180268407E+02 -0.30607287869E+02  0.13323638513E+03  0.12509630838E+03 0.  0.
          5    1    3    3  502    0  0.29182660609E+02  0.24490629432E+02  0.42089093458E+02  0.56924360324E+02  0.41800000000E+01 0. -1.
         -5    1    3    3    0  502 -0.21113480224E+02  0.86896389741E+01 -0.72696381326E+02  0.76312024810E+02  0.41800000000E+01 0. -1.
        -11    1    1    2    0    0 -0.24611248215E+02 -0.58412397846E+02 -0.79958563372E+02  0.10203476671E+03  0.00000000000E+00 0. -1.
         11    1    1    2    0    0  0.16542067829E+02  0.25232129440E+02 -0.23932975209E+02  0.38510877249E+02  0.00000000000E+00 0.  1.
</event>
<event>
 7    1  0.2601031E-009  0.6624349E+02  0.7561462E-02  0.1373354E+00
          2   -1    0    0  501    0  0.00000000000E+00  0.00000000000E+00  0.32053300272E+03  0.32053300272E+03  0.00000000000E+00 0. -1.
         -2   -1    0    0    0  501 -0.00000000000E+00 -0.00000000000E+00 -0.36418077782E+02  0.36418077782E+02  0.00000000000E+00 0.  1.
         25    2    1    2    0    0 -0.16188248550E+02 -0.32212352526E+02  0.15865801942E+03  0.20523375515E+03  0.12509529200E+03 0.  0.
          5    1    3    3  502    0  0.30072268532E+02 -0.10268389436E+02  0.14969296653E+03  0.15308572038E+03  0.41800000000E+01 0. -1.
         -5    1    3    3    0  502 -0.46260517082E+02 -0.21943963090E+02  0.89650528921E+01  0.52148034768E+02  0.41800000000E+01 0. -1.
        -11    1    1    2    0    0  0.21361147972E+01  0.34724063326E+02  0.13164102930E+03  0.13616050880E+03  0.00000000000E+00 0. -1.
         11    1    1    2    0    0  0.14052133753E+02 -0.25117108002E+01 -0.61841237898E+01  0.15556816551E+02  0.00000000000E+00 0.  1.
</event>
<event>
 7    1  0.2601031E-009  0.7324721E+02  0.7561462E-02  0.1349386E+00
          1   -1    0    0  501    0  0.00000000000E+00  0.00000000000E+00  0.50381257007E+03  0.50381257007E+03  0.00000000000E+00 0. -1.
         -1   -1    0    0    0  501 -0.00000000000E+00 -0.00000000000E+00 -0.30738069286E+02  0.30738069286E+02  0.00000000000E+00 0.  1.
         25    2    1    2    0    0 -0.35124949420E+02  0.27987094794E+02  0.34152802915E+03  0.36647810217E+03  0.12509102739E+03 0.  0.
          5    1    3    3  502    0 -0.19930677594E+02  0.12774681411E+02  0.34363393472E+03  0.34447376952E+03  0.41800000000E+01 0. -1.
         -5    1    3    3    0  502 -0.15194271827E+02  0.15212413384E+02 -0.21059055757E+01  0.22004332655E+02  0.41800000000E+01 0. -1.
        -11    1    1    2    0    0 -0.30420507106E+02 -0.36715172942E+01  0.20549241758E+02  0.36893883350E+02  0.00000000000E+00 0. -1.
         11    1    1    2    0    0  0.65545456527E+02 -0.24315577500E+02  0.11099722988E+03  0.13117865384E+03  0.00000000000E+00 0.  1.
</event>
<event>
 7    1  0.2601031E-009  0.1166737E+03  0.7561462E-02  0.1248688E+00
          1   -1    0    0  501    0  0.00000000000E+00  0.00000000000E+00  0.22436589269E+03  0.22436589269E+03  0.00000000000E+00 0. -1.
         -1   -1    0    0    0  501 -0.00000000000E+00 -0.00000000000E+00 -0.90140592193E+02  0.90140592193E+02  0.00000000000E+00 0.  1.
         25    2    1    2    0    0  0.22590574362E+02  0.85913326186E+02  0.50702203723E+02  0.16158545376E+03  0.12509081397E+03 0.  0.
          5    1    3    3  502    0  0.21013738768E+02 -0.26021478037E+01  0.67949385423E+02  0.71294738722E+02  0.41800000000E+01 0. -1.
         -5    1    3    3    0  502  0.15768355937E+01  0.88515473990E+02 -0.17247181699E+02  0.90290715042E+02  0.41800000000E+01 0. -1.
        -11    1    1    2    0    0  0.27485783035E+02 -0.61633092675E+02  0.24488471089E+02  0.71789912927E+02  0.00000000000E+00 0. -1.
         11    1    1    2    0    0 -0.50076357397E+02 -0.24280233512E+02  0.59034625686E+02  0.81131118194E+02  0.00000000000E+00 0.  1.
</event>
<event>
 7    1  0.2601031E-009  0.1094114E+03  0.7561462E-02  0.1261664E+00
          2   -1    0    0  501    0  0.00000000000E+00  0.00000000000E+00  0.50889749987E+03  0.50889749987E+03  0.00000000000E+00 0. -1.
         -2   -1    0    0    0  501 -0.00000000000E+00 -0.00000000000E+00 -0.25915981066E+02  0.25915981066E+02  0.00000000000E+00 0.  1.
         25    2    1    2    0    0  0.13601999691E+02 -0.13354992383E+02  0.34907581855E+03  0.37129609526E+03  0.12507395028E+03 0.  0.
          5    1    3    3  502    0 -0.46418029428E+02 -0.38663364112E+02  0.14870243927E+03  0.16055957469E+03  0.41800000000E+01 0.  1.
         -5    1    3    3    0  502  0.60020029119E+02  0.25308371730E+02  0.20037337928E+03  0.21073652056E+03  0.41800000000E+01 0.  1.
        -11    1    1    2    0    0  0.34216614850E+02  0.26641905572E+02  0.51563573934E+02  0.67374847095E+02  0.00000000000E+00 0. -1.
         11    1    1    2    0    0 -0.47818614540E+02 -0.13286913189E+02  0.82342126313E+02  0.96142538579E+02  0.00000000000E+00 0.  1.
</event>
<event>
 7    1  0.2601031E-009  0.7968040E+02  0.7561462E-02  0.1329961E+00
          3   -1    0    0  501    0  0.00000000000E+00  0.00000000000E+00  0.30716821501E+03  0.30716821501E+03  0.00000000000E+00 0. -1.
         -3   -1    0    0    0  501 -0.00000000000E+00 -0.00000000000E+00 -0.48477664736E+02  0.48477664736E+02  0.00000000000E+00 0.  1.
         25    2    1    2    0    0 -0.10236816926E+02  0.51154504404E+02  0.17108147906E+03  0.21826093508E+03  0.12508951820E+03 0.  0.
          5    1    3    3  502    0  0.12442945456E+01  0.21551879243E+02  0.18283101798E+03  0.18414854141E+03  0.41800000000E+01 0. -1.
         -5    1    3    3    0  502 -0.11481111471E+02  0.29602625162E+02 -0.11749538920E+02  0.34112393670E+02  0.41800000000E+01 0. -1.
        -11    1    1    2    0    0  0.14131772261E+02 -0.77468204271E+02  0.59607147538E+02  0.98762552103E+02  0.00000000000E+00 0.  1.
         11    1    1    2    0    0 -0.38949553358E+01  0.26313699867E+02  0.28001923676E+02  0.38622392563E+02  0.00000000000E+00 0. -1.
</event>
<event>
 7    1  0.3219191E-009  0.1214296E+03  0.7561462E-02  0.1240757E+00
          2   -1    0    0  501    0  0.00000000000E+00  0.00000000000E+00  0.65650714358E+03  0.65650714358E+03  0.00000000000E+00 0. -1.
         -2   -1    0    0    0  501 -0.00000000000E+00 -0.00000000000E+00 -0.26717099398E+02  0.26717099398E+02  0.00000000000E+00 0.  1.
         25    2    1    2    0    0  0.49073416218E+02 -0.42861329366E+02  0.24985276377E+03  0.28691529101E+03  0.12509471180E+03 0.  0.
          5    1    3    3  502    0 -0.32513012116E+01 -0.72713100026E+02  0.88679535834E+02  0.11480112522E+03  0.41800000000E+01 0. -1.
         -5    1    3    3    0  502  0.52324717429E+02  0.29851770659E+02  0.16117322793E+03  0.17211416580E+03  0.41800000000E+01 0. -1.
        -11    1    1    2    0    0  0.22162700743E+02  0.29809518098E+02  0.87913860341E+02  0.95439192754E+02  0.00000000000E+00 0.  1.
         11    1    1    2    0    0 -0.71236116960E+02  0.13051811269E+02  0.29202342007E+03  0.30086975921E+03  0.00000000000E+00 0. -1.
</event>
<event>
 7    1  0.2601031E-009  0.1379965E+03  0.7561462E-02  0.1216050E+00
         -2   -1    0    0    0  501 -0.00000000000E+00  0.00000000000E+00  0.55419299474E+03  0.55419299474E+03  0.00000000000E+00 0.  1.
          2   -1    0    0  501    0  0.00000000000E+00 -0.00000000000E+00 -0.36532618839E+02  0.36532618839E+02  0.00000000000E+00 0. -1.
         25    2    1    2    0    0  0.73453364309E+02 -0.50232435825E+02  0.34275031740E+03  0.37555978793E+03  0.12509468372E+03 0.  0.
          5    1    3    3  502    0  0.70459845920E+02  0.27346630477E+02  0.17480774428E+03  0.19049317034E+03  0.41800000000E+01 0.  1.
         -5    1    3    3    0  502  0.29935183893E+01 -0.77579066301E+02  0.16794257312E+03  0.18506661759E+03  0.41800000000E+01 0.  1.
        -11    1    1    2    0    0  0.17548945409E+02  0.20108127869E+02  0.21510910388E+02  0.34278587443E+02  0.00000000000E+00 0. -1.
         11    1    1    2    0    0 -0.91002309718E+02  0.30124307955E+02  0.15339914810E+03  0.18088723820E+03  0.00000000000E+00 0.  1.
</event>
<event>
 7    1  0.2601031E-009  0.1561544E+03  0.7561462E-02  0.1193108E+00
         -2   -1    0    0    0  501 -0.00000000000E+00  0.00000000000E+00  0.59689430236E+03  0.59689430236E+03  0.00000000000E+00 0.  1.
          2   -1    0    0  501    0  0.00000000000E+00 -0.00000000000E+00 -0.59205776805E+02  0.59205776805E+02  0.00000000000E+00 0. -1.
         25    2    1    2    0    0  0.53420060030E+01  0.13444990462E+03  0.15500393536E+03  0.24037286761E+03  0.12509029389E+03 0.  0.
          5    1    3    3  502    0 -0.33812088808E+02  0.87144865479E+02  0.25490009966E+02  0.96977821882E+02  0.41800000000E+01 0.  1.
         -5    1    3    3    0  502  0.39154094811E+02  0.47305039143E+02  0.12951392539E+03  0.14339504573E+03  0.41800000000E+01 0.  1.
        -11    1    1    2    0    0  0.34788895292E+02 -0.93917010132E+02  0.19003967643E+03  0.21481562012E+03  0.00000000000E+00 0. -1.
         11    1    1    2    0    0 -0.40130901295E+02 -0.40532894490E+02  0.19264491377E+03  0.20091159144E+03  0.00000000000E+00 0.  1.
</event>
<event>
 7    1  0.2601031E-009  0.1006361E+03  0.7561462E-02  0.1278964E+00
          2   -1    0    0  501    0  0.00000000000E+00  0.00000000000E+00  0.42258710768E+03  0.42258710768E+03  0.00000000000E+00 0. -1.
         -2   -1    0    0    0  501 -0.00000000000E+00 -0.00000000000E+00 -0.54504761111E+02  0.54504761111E+02  0.00000000000E+00 0.  1.
         25    2    1    2    0    0  0.77186272891E+02  0.31225845397E+01  0.84863540467E+02  0.16975380036E+03  0.12508821279E+03 0.  0.
          5    1    3    3  502    0  0.30911718911E+02  0.14282138621E+02 -0.29856599527E+02  0.45479696403E+02  0.41800000000E+01 0. -1.
         -5    1    3    3    0  502  0.46274553980E+02 -0.11159554081E+02  0.11472013999E+03  0.12427410395E+03  0.41800000000E+01 0. -1.
        -11    1    1    2    0    0 -0.98162137523E+02 -0.23221990613E+01  0.23927078259E+03  0.25863430796E+03  0.00000000000E+00 0.  1.
         11    1    1    2    0    0  0.20975864632E+02 -0.80038547837E+00  0.43948023514E+02  0.48703760479E+02  0.00000000000E+00 0. -1.
</event>
<event>
 7    1  0.2601031E-009  0.8428722E+02  0.7561462E-02  0.1317307E+00
         -2   -1    0    0    0  501 -0.00000000000E+00  0.00000000000E+00  0.71925854881E+02  0.71925854881E+02  0.00000000000E+00 0.  1.
          2   -1    0    0  501    0  0.00000000000E+00 -0.00000000000E+00 -0.18891953125E+03  0.18891953125E+03  0.00000000000E+00 0. -1.
         25    2    1    2    0    0 -0.23110364077E+02  0.14314620464E+02 -0.10565388968E+03  0.16597628659E+03  0.12508551482E+03 0.  0.
          5    1    3    3  502    0 -0.70554086587E+02 -0.30414620680E+01 -0.34754356671E+02  0.78819206627E+02  0.41800000000E+01 0. -1.
         -5    1    3    3    0  502  0.47443722510E+02  0.17356082532E+02 -0.70899533007E+02  0.87157079959E+02  0.41800000000E+01 0. -1.
        -11    1    1    2    0    0  0.33970588621E+02 -0.12062136507E+02  0.33176683033E+02  0.48991716907E+02  0.00000000000E+00 0.  1.
         11    1    1    2    0    0 -0.10860224544E+02 -0.22524839566E+01 -0.44516469728E+02  0.45877382643E+02  0.00000000000E+00 0. -1.
</event>
<event>
 7    1  0.2601031E-009  0.1864811E+03  0.7561462E-02  0.1161674E+00
          1   -1    0    0  501    0  0.00000000000E+00  0.00000000000E+00  0.30400045456E+03  0.30400045456E+03  0.00000000000E+00 0. -1.
         -1   -1    0    0    0  501 -0.00000000000E+00 -0.00000000000E+00 -0.11840215369E+03  0.11840215369E+03  0.00000000000E+00 0.  1.
         25    2    1    2    0    0  0.13553386467E+03  0.74195923572E+02  0.10420602099E+03  0.22445539567E+03  0.12508743457E+03 0.  0.
          5    1    3    3  502    0 -0.13961812632E+02 -0.12912059987E+02 -0.46195801000E+01  0.20011657237E+02  0.41800000000E+01 0. -1.
         -5    1    3    3    0  502  0.14949567731E+03  0.87107983558E+02  0.10882560109E+03  0.20444373843E+03  0.41800000000E+01 0. -1.
        -11    1    1    2    0    0 -0.71424455930E+02 -0.89501045954E+02  0.50191826051E+02  0.12502443575E+03  0.00000000000E+00 0.  1.
         11    1    1    2    0    0 -0.64109408744E+02  0.15305122382E+02  0.31200453836E+02  0.72922776827E+02  0.00000000000E+00 0. -1.
</event>
<event>
 7    1  0.2601031E-009  0.2107254E+03  0.7561462E-02  0.1140993E+00
          2   -1    0    0  501    0  0.00000000000E+00  0.00000000000E+00  0.31350768649E+03  0.31350768649E+03  0.00000000000E+00 0.  1.
         -2   -1    0    0    0  501 -0.00000000000E+00 -0.00000000000E+00 -0.19668474053E+03  0.19668474053E+03  0.00000000000E+00 0. -1.
         25    2    1    2    0    0  0.19536851313E+03  0.70124379321E+02  0.14180859201E+03  0.28078872575E+03  0.12508535982E+03 0.  0.
          5    1    3    3  502    0  0.88888986509E+01 -0.33305852821E+01  0.65454792435E+02  0.66271468749E+02  0.41800000000E+01 0.  1.
         -5    1    3    3    0  502  0.18647961448E+03  0.73454964603E+02  0.76353799574E+02  0.21451725700E+03  0.41800000000E+01 0.  1.
        -11    1    1    2    0    0 -0.24882758190E+02 -0.22625205806E+02  0.28964158600E+02  0.44384390007E+02  0.00000000000E+00 0.  1.
         11    1    1    2    0    0 -0.17048575494E+03 -0.47499173515E+02 -0.53949804649E+02  0.18501931127E+03  0.00000000000E+00 0. -1.
</event>
<event>
 7    1  0.2601031E-009  0.1206409E+03  0.7561462E-02  0.1242043E+00
         -2   -1    0    0    0  501 -0.00000000000E+00  0.00000000000E+00  0.96893577712E+02  0.96893577712E+02  0.00000000000E+00 0.  1.
          2   -1    0    0  501    0  0.00000000000E+00 -0.00000000000E+00 -0.17275236876E+03  0.17275236876E+03  0.00000000000E+00 0. -1.
         25    2    1    2    0    0  0.70285714406E+02  0.24508251973E+01 -0.41388438948E+02  0.14935441227E+03  0.12509056477E+03 0.  0.
          5    1    3    3  502    0  0.23430787062E+01 -0.49597205109E+02 -0.39598093135E+02  0.63646320808E+02  0.41800000000E+01 0.  1.
         -5    1    3    3    0  502  0.67942635700E+02  0.52048030306E+02 -0.17903458129E+01  0.85708091466E+02  0.41800000000E+01 0.  1.
        -11    1    1    2    0    0  0.16827292453E+02  0.68252614674E+01 -0.26770750013E+02  0.32348338777E+02  0.00000000000E+00 0. -1.
         11    1    1    2    0    0 -0.87113006859E+02 -0.92760866648E+01 -0.76996020832E+01  0.87943195417E+02  0.00000000000E+00 0.  1.
</event>
<event>
 7    1  0.2601031E-009  0.4523726E+02  0.7561462E-02  0.1472866E+00
          2   -1    0    0  501    0  0.00000000000E+00  0.00000000000E+00  0.70897583565E+02  0.70897583565E+02  0.00000000000E+00 0. -1.
         -2   -1    0    0    0  501 -0.00000000000E+00 -0.00000000000E+00 -0.19191306928E+03  0.19191306928E+03  0.00000000000E+00 0.  1.
         25    2    1    2    0    0  0.26212191629E+02 -0.27400329824E+02 -0.74827022374E+02  0.15061116019E+03  0.12508709459E+03 0.  0.
          5    1    3    3  502    0  0.16168365420E+02 -0.76220997217E+01 -0.10851669962E+03  0.11005843422E+03  0.41800000000E+01 0. -1.
         -5    1    3    3    0  502  0.10043826209E+02 -0.19778230103E+02  0.33689677250E+02  0.40552725977E+02  0.41800000000E+01 0. -1.
        -11    1    1    2    0    0  0.71918982666E+01  0.86090431909E+01 -0.67445803875E+02  0.68372329825E+02  0.00000000000E+00 0.  1.
         11    1    1    2    0    0 -0.33404089895E+02  0.18791286633E+02  0.21257340533E+02  0.43827162829E+02  0.00000000000E+00 0. -1.
</event>
<event>
 7    1  0.2601031E-009  0.1083287E+03  0.7561462E-02  0.1263697E+00
          1   -1    0    0  501    0  0.00000000000E+00  0.00000000000E+00  0.14123628426E+02  0.14123628426E+02  0.00000000000E+00 0. -1.
         -1   -1    0    0    0  501 -0.00000000000E+00 -0.00000000000E+00 -0.87696415692E+03  0.87696415692E+03  0.00000000000E+00 0.  1.
         25    2    1    2    0    0  0.13002251057E+02  0.20391277111E+02 -0.52085911875E+03  0.53621556514E+03  0.12509215800E+03 0.  0.
          5    1    3    3  502    0 -0.23965675462E+00  0.72202943052E+02 -0.25837189279E+03  0.26830361497E+03  0.41800000000E+01 0.  1.
         -5    1    3    3    0  502  0.13241907812E+02 -0.51811665941E+02 -0.26248722596E+03  0.26791195017E+03  0.41800000000E+01 0.  1.
        -11    1    1    2    0    0 -0.28254892327E+02  0.28106199321E+02 -0.20321390330E+03  0.20708497742E+03  0.00000000000E+00 0.  1.
         11    1    1    2    0    0  0.15252641270E+02 -0.48497476432E+02 -0.13876750645E+03  0.14778724279E+03  0.00000000000E+00 0. -1.
</event>
<event>
 7    1  0.2601031E-009  0.1114473E+03  0.7561462E-02  0.1257913E+00
          2   -1    0    0  501    0  0.00000000000E+00  0.00000000000E+00  0.62733104046E+03  0.62733104046E+03  0.00000000000E+00 0. -1.
         -2   -1    0    0    0  501 -0.00000000000E+00 -0.00000000000E+00 -0.53260304985E+02  0.53260304985E+02  0.00000000000E+00 0.  1.
         25    2    1    2    0    0 -0.10426406220E+01  0.49253585050E+02  0.45271246268E+02  0.14186015688E+03  0.12509122923E+03 0.  0.
          5    1    3    3  502    0  0.52844977020E+02  0.11361387952E+02  0.52486128590E+02  0.75458192576E+02  0.41800000000E+01 0. -1.
         -5    1    3    3    0  502 -0.53887617643E+02  0.37892197098E+02 -0.72148823229E+01  0.66401964301E+02  0.41800000000E+01 0. -1.
        -11    1    1    2    0    0  0.32113861749E+02 -0.61415761198E+02  0.33728706486E+03  0.34433379149E+03  0.00000000000E+00 0.  1.
         11    1    1    2    0    0 -0.31071221127E+02  0.12162176147E+02  0.19151242435E+03  0.19439739708E+03  0.00000000000E+00 0. -1.
</event>
<event>
 7    1  0.2601031E-009  0.8422454E+02  0.7561462E-02  0.1317473E+00
         -1   -1    0    0    0  501 -0.00000000000E+00  0.00000000000E+00  0.76320363378E+03  0.76320363378E+03  0.00000000000E+00 0.  1.
          1   -1    0    0  501    0  0.00000000000E+00 -0.00000000000E+00 -0.20187383115E+02  0.20187383115E+02  0.00000000000E+00 0. -1.
         25    2    1    2    0    0 -0.56693677956E+02 -0.24490038842E+02  0.44292057094E+03  0.46437051981E+03  0.12508961742E+03 0.  0.
          5    1    3    3  502    0 -0.42621281972E+02 -0.51226559277E+02  0.42231582099E+03  0.42756152670E+03  0.41800000000E+01 0. -1.
         -5    1    3    3    0  502 -0.14072395984E+02  0.26736520434E+02  0.20604749950E+02  0.36808993115E+02  0.41800000000E+01 0. -1.
        -11    1    1    2    0    0  0.52010228864E+02  0.62952742193E+01  0.29491390394E+03  0.29953114216E+03  0.00000000000E+00 0.  1.
         11    1    1    2    0    0  0.46834490914E+01  0.18194764623E+02  0.51817757805E+01  0.19489354923E+02  0.00000000000E+00 0. -1.
</event>
<event>
 7    1  0.2601031E-009  0.9284908E+02  0.7561462E-02  0.1296095E+00
         -2   -1    0    0    0  501 -0.00000000000E+00  0.00000000000E+00  0.22389979966E+03  0.22389979966E+03  0.00000000000E+00 0.  1.
          2   -1    0    0  501    0  0.00000000000E+00 -0.00000000000E+00 -0.74571980800E+02  0.74571980800E+02  0.00000000000E+00 0. -1.
         25    2    1    2    0    0  0.26247237653E+02 -0.63636680361E+02  0.10145757901E+03  0.17515500954E+03  0.12508833861E+03 0.  0.
          5    1    3    3  502    0 -0.18865258227E+02 -0.16591882255E+02  0.10663741155E+03  0.10963666571E+03  0.41800000000E+01 0. -1.
         -5    1    3    3    0  502  0.45112495880E+02 -0.47044798106E+02 -0.51798325439E+01  0.65518343832E+02  0.41800000000E+01 0. -1.
        -11    1    1    2    0    0 -0.45373288014E+02  0.60358961818E+02  0.63293446015E+02  0.98529182709E+02  0.00000000000E+00 0.  1.
         11    1    1    2    0    0  0.19126050361E+02  0.32777185431E+01 -0.15423206160E+02  0.24787588215E+02  0.00000000000E+00 0. -1.
</event>
<event>
 7    1  0.2601031E-009  0.2461839E+03  0.7561462E-02  0.1115740E+00
         -2   -1    0    0    0  501 -0.00000000000E+00  0.00000000000E+00  0.62443900815E+02  0.62443900815E+02  0.00000000000E+00 0.  1.
          2   -1    0    0  501    0  0.00000000000E+00 -0.00000000000E+00 -0.10513784648E+04  0.10513784648E+04  0.00000000000E+00 0. -1.
         25    2    1    2    0    0  0.45343933635E+01 -0.21949084897E+03 -0.39321582468E+03  0.46740014867E+03  0.12508965061E+03 0.  0.
          5    1    3    3  502    0  0.65420537141E+01 -0.23539041912E+03 -0.35858842528E+03  0.42901582608E+03  0.41800000000E+01 0.  1.
         -5    1    3    3    0  502 -0.20076603506E+01  0.15899570153E+02 -0.34627399404E+02  0.38384322589E+02  0.41800000000E+01 0.  1.
        -11    1    1    2    0    0  0.38115244109E+02  0.17320028147E+03 -0.51086639815E+03  0.54077313737E+03  0.00000000000E+00 0.  1.
         11    1    1    2    0    0 -0.42649637472E+02  0.46290567500E+02 -0.84852341107E+02  0.10564907954E+03  0.00000000000E+00 0. -1.
</event>
<event>
 7    1  0.2601031E-009  0.1165557E+03  0.7561462E-02  0.1248890E+00
         -2   -1    0    0    0  501 -0.00000000000E+00  0.00000000000E+00  0.14042554131E+03  0.14042554131E+03  0.00000000000E+00 0.  1.
          2   -1    0    0  501    0  0.00000000000E+00 -0.00000000000E+00 -0.24933195617E+03  0.24933195617E+03  0.00000000000E+00 0. -1.
         25    2    1    2    0    0  0.74060062296E+02  0.80886300527E+02  0.52799788255E+02  0.17453689414E+03  0.12509126003E+03 0.  0.
          5    1    3    3  502    0 -0.11882064638E+01  0.34290918244E+02 -0.35428214740E+02  0.49496562590E+02  0.41800000000E+01 0. -1.
         -5    1    3    3    0  502  0.75248268760E+02  0.46595382283E+02  0.88228002994E+02  0.12504033155E+03  0.41800000000E+01 0. -1.
        -11    1    1    2    0    0 -0.30043824767E+02 -0.38489009776E+02 -0.14330715304E+03  0.15139674829E+03  0.00000000000E+00 0. -1.
         11    1    1    2    0    0 -0.44016237530E+02 -0.42397290751E+02 -0.18399050082E+02  0.63823855048E+02  0.00000000000E+00 0.  1.
</event>
<event>
 7    1  0.2601031E-009  0.1073291E+03  0.7561462E-02  0.1265597E+00
          4   -1    0    0  501    0  0.00000000000E+00  0.00000000000E+00  0.17699467887E+02  0.17699467887E+02  0.00000000000E+00 0. -1.
         -4   -1    0    0    0  501 -0.00000000000E+00 -0.00000000000E+00 -0.78809517516E+03  0.78809517516E+03  0.00000000000E+00 0.  1.
         25    2    1    2    0    0 -0.99066851680E+01 -0.13517679717E+02 -0.42626835886E+03  0.44455943648E+03  0.12509000250E+03 0.  0.
          5    1    3    3  502    0  0.29704851303E+02 -0.56079833185E+02 -0.27936847087E+03  0.28651621385E+03  0.41800000000E+01 0.  1.
         -5    1    3    3    0  502 -0.39611536471E+02  0.42562153468E+02 -0.14689988799E+03  0.15804322264E+03  0.41800000000E+01 0.  1.
        -11    1    1    2    0    0  0.25554735736E+02 -0.34117523717E+02 -0.65615003078E+02  0.78245629731E+02  0.00000000000E+00 0. -1.
         11    1    1    2    0    0 -0.15648050568E+02  0.47635203434E+02 -0.27851234533E+03  0.28298957683E+03  0.00000000000E+00 0.  1.
</event>
<event>
 7    1  0.2601031E-009  0.1330367E+03  0.7561462E-02  0.1223018E+00
         -1   -1    0    0    0  501 -0.00000000000E+00  0.00000000000E+00  0.22101960320E+03  0.22101960320E+03  0.00000000000E+00 0.  1.
          1   -1    0    0  501    0  0.00000000000E+00 -0.00000000000E+00 -0.11345545944E+03  0.11345545944E+03  0.00000000000E+00 0. -1.
         25    2    1    2    0    0  0.17207111855E+02 -0.10645164661E+03  0.14897601908E+02  0.16582425087E+03  0.12509079051E+03 0.  0.
          5    1    3    3  502    0  0.21637953325E+02  0.66336765544E+01 -0.35145918242E+02  0.42010887372E+02  0.41800000000E+01 0. -1.
         -5    1    3    3    0  502 -0.44308414701E+01 -0.11308532317E+03  0.50043520150E+02  0.12381336350E+03  0.41800000000E+01 0. -1.
        -11    1    1    2    0    0 -0.29361632171E+02  0.11247495375E+03  0.54966890938E+02  0.12858491266E+03  0.00000000000E+00 0.  1.
         11    1    1    2    0    0  0.12154520315E+02 -0.60233071366E+01  0.37699650914E+02  0.40065899116E+02  0.00000000000E+00 0. -1.
</event>
<event>
 7    1  0.2601031E-009  0.1112955E+03  0.7561462E-02  0.1258189E+00
          1   -1    0    0  501    0  0.00000000000E+00  0.00000000000E+00  0.51446771131E+03  0.51446771131E+03  0.00000000000E+00 0. -1.
         -1   -1    0    0    0  501 -0.00000000000E+00 -0.00000000000E+00 -0.38794175841E+02  0.38794175841E+02  0.00000000000E+00 0.  1.
         25    2    1    2    0    0  0.60237869504E+02  0.25623966922E+02  0.38161656127E+03  0.40689515780E+03  0.12508909226E+03 0.  0.
          5    1    3    3  502    0 -0.10803718057E+02  0.59964657977E+02  0.14169264436E+03  0.15429438874E+03  0.41800000000E+01 0. -1.
         -5    1    3    3    0  502  0.71041587561E+02 -0.34340691055E+02  0.23992391691E+03  0.25260076906E+03  0.41800000000E+01 0. -1.
        -11    1    1    2    0    0  0.83224898853E+01 -0.83684973643E+01  0.71043113685E+02  0.72016800735E+02  0.00000000000E+00 0. -1.
         11    1    1    2    0    0 -0.68560359389E+02 -0.17255469557E+02  0.23013860510E+02  0.74349928613E+02  0.00000000000E+00 0.  1.
</event>
<event>
 7    1  0.2601031E-009  0.8841710E+02  0.7561462E-02  0.1306731E+00
          1   -1    0    0  501    0  0.00000000000E+00  0.00000000000E+00  0.12292531342E+03  0.12292531342E+03  0.00000000000E+00 0. -1.
         -1   -1    0    0    0  501 -0.00000000000E+00 -0.00000000000E+00 -0.15635125730E+03  0.15635125730E+03  0.00000000000E+00 0.  1.
         25    2    1    2    0    0  0.24741792339E+02 -0.45900793665E+02  0.52503627228E+02  0.14534111440E+03  0.12509344314E+03 0.  0.
          5    1    3    3  502    0 -0.22496009769E+02 -0.12648905633E+02  0.77847312956E+02  0.82120288624E+02  0.41800000000E+01 0. -1.
         -5    1    3    3    0  502  0.47237802108E+02 -0.33251888032E+02 -0.25343685728E+02  0.63220825777E+02  0.41800000000E+01 0. -1.
        -11    1    1    2    0    0  0.15347786911E+02  0.50160262707E+02 -0.76120211080E+02  0.92443999549E+02  0.00000000000E+00 0.  1.
         11    1    1    2    0    0 -0.40089579250E+02 -0.42594690419E+01 -0.98093600294E+01  0.41491456773E+02  0.00000000000E+00 0. -1.
</event>
<event>
 7    1  0.2601031E-009  0.1064773E+03  0.7561462E-02  0.1267236E+00
         -2   -1    0    0    0  501 -0.00000000000E+00  0.00000000000E+00  0.74157562087E+02  0.74157562087E+02  0.00000000000E+00 0.  1.
          2   -1    0    0  501    0  0.00000000000E+00 -0.00000000000E+00 -0.17603992318E+03  0.17603992318E+03  0.00000000000E+00 0. -1.
         25    2    1    2    0    0 -0.30686208591E+02 -0.21451382420E+01 -0.73898347358E+02  0.14850767851E+03  0.12508924742E+03 0.  0.
          5    1    3    3  502    0  0.41692945275E+02  0.13286257287E+02 -0.16746473904E+00  0.43958238850E+02  0.41800000000E+01 0. -1.
         -5    1    3    3    0  502 -0.72379153865E+02 -0.15431395529E+02 -0.73730882619E+02  0.10454943966E+03  0.41800000000E+01 0. -1.
        -11    1    1    2    0    0 -0.31537264188E+02 -0.60493372709E+01  0.19186217746E+01  0.32169467254E+02  0.00000000000E+00 0.  1.
         11    1    1    2    0    0  0.62223472779E+02  0.81944755129E+01 -0.29902635509E+02  0.69520339498E+02  0.00000000000E+00 0. -1.
</event>
<event>
 7    1  0.2601031E-009  0.1017420E+03  0.7561462E-02  0.1276675E+00
          2   -1    0    0  501    0  0.00000000000E+00  0.00000000000E+00  0.80664588642E+03  0.80664588642E+03  0.00000000000E+00 0.  1.
         -2   -1    0    0    0  501 -0.00000000000E+00 -0.00000000000E+00 -0.20117326226E+02  0.20117326226E+02  0.00000000000E+00 0. -1.
         25    2    1    2    0    0  0.63930252560E+02  0.11672395145E+02  0.43487342524E+03  0.45714945674E+03  0.12508959917E+03 0.  0.
          5    1    3    3  502    0 -0.24774291538E+00  0.24689270587E+02  0.95610201583E+01  0.26804980230E+02  0.41800000000E+01 0.  1.
         -5    1    3    3    0  502  0.64177995475E+02 -0.13016875442E+02  0.42531240508E+03  0.43034447651E+03  0.41800000000E+01 0.  1.
        -11    1    1    2    0    0 -0.19320148342E+02 -0.50256834360E+02  0.19222048034E+03  0.19961896351E+03  0.00000000000E+00 0. -1.
         11    1    1    2    0    0 -0.44610104218E+02  0.38584439215E+02  0.15943465462E+03  0.16999479240E+03  0.00000000000E+00 0.  1.
</event>
<event>
 7    1  0.2601031E-009  0.8000301E+02  0.7561462E-02  0.1329043E+00
          2   -1    0    0  501    0  0.00000000000E+00  0.00000000000E+00  0.76630245259E+03  0.76630245259E+03  0.00000000000E+00 0.  1.
         -2   -1    0    0    0  501 -0.00000000000E+00 -0.00000000000E+00 -0.21474705100E+02  0.21474705100E+02  0.00000000000E+00 0. -1.
         25    2    1    2    0    0 -0.17603892494E+02 -0.14585667590E+02  0.60720785008E+03  0.62038023543E+03  0.12509046560E+03 0.  0.
          5    1    3    3  502    0 -0.41557909623E+02  0.10664802000E+02  0.71239059001E+02  0.83266282379E+02  0.41800000000E+01 0. -1.
         -5    1    3    3    0  502  0.23954017128E+02 -0.25250469589E+02  0.53596879108E+03  0.53711395305E+03  0.41800000000E+01 0. -1.
        -11    1    1    2    0    0  0.46522939450E+02  0.22759037187E+02  0.12404180064E+03  0.13441996122E+03  0.00000000000E+00 0.  1.
         11    1    1    2    0    0 -0.28919046956E+02 -0.81733695967E+01  0.13578096767E+02  0.32976961037E+02  0.00000000000E+00 0. -1.
</event>
<event>
 7    1  0.2601031E-009  0.8521022E+02  0.7561462E-02  0.1314884E+00
          1   -1    0    0  501    0  0.00000000000E+00  0.00000000000E+00  0.40888746993E+03  0.40888746993E+03  0.00000000000E+00 0. -1.
         -1   -1    0    0    0  501 -0.00000000000E+00 -0.00000000000E+00 -0.34097479024E+02  0.34097479024E+02  0.00000000000E+00 0.  1.
         25    2    1    2    0    0 -0.27080299763E+02  0.29455113812E+02  0.26241990290E+03  0.29344677883E+03  0.12508341298E+03 0.  0.
          5    1    3    3  502    0 -0.45399697146E+00  0.42618142575E+02  0.16800432089E+02  0.46002598928E+02  0.41800000000E+01 0.  1.
         -5    1    3    3    0  502 -0.26626302791E+02 -0.13163028762E+02  0.24561947081E+03  0.24744417990E+03  0.41800000000E+01 0.  1.
        -11    1    1    2    0    0 -0.18081478068E+02  0.22431919489E+02  0.23654820239E+02  0.37278430514E+02  0.00000000000E+00 0.  1.
         11    1    1    2    0    0  0.45161777831E+02 -0.51887033301E+02  0.88715267764E+02  0.11225973960E+03  0.00000000000E+00 0. -1.
</event>
<event>
 7    1  0.2601031E-009  0.1085016E+03  0.7561462E-02  0.1263370E+00
          2   -1    0    0  501    0  0.00000000000E+00  0.00000000000E+00  0.30730503385E+02  0.30730503385E+02  0.00000000000E+00 0.  1.
         -2   -1    0    0    0  501 -0.00000000000E+00 -0.00000000000E+00 -0.50741291109E+03  0.50741291109E+03  0.00000000000E+00 0. -1.
         25    2    1    2    0    0  0.39241967998E+02  0.39736131845E+02 -0.30341325819E+03  0.33290533205E+03  0.12508981826E+03 0.  0.
          5    1    3    3  502    0  0.18290424799E+02 -0.36809313837E+02 -0.39027470406E+02  0.56833802184E+02  0.41800000000E+01 0. -1.
         -5    1    3    3    0  502  0.20951543199E+02  0.76545445682E+02 -0.26438578778E+03  0.27607152986E+03  0.41800000000E+01 0. -1.
        -11    1    1    2    0    0 -0.36927454140E+02 -0.62899584231E+02 -0.76461806507E+02  0.10567119958E+03  0.00000000000E+00 0.  1.
         11    1    1    2    0    0 -0.23145138580E+01  0.23163452385E+02 -0.96807343009E+02  0.99566882854E+02  0.00000000000E+00 0. -1.
</event>
<event>
 7    1  0.2601031E-009  0.1876746E+03  0.7561462E-02  0.1160576E+00
          2   -1    0    0  501    0  0.00000000000E+00  0.00000000000E+00  0.51583843430E+03  0.51583843430E+03  0.00000000000E+00 0. -1.
         -2   -1    0    0    0  501 -0.00000000000E+00 -0.00000000000E+00 -0.81555534606E+02  0.81555534606E+02  0.00000000000E+00 0.  1.
         25    2    1    2    0    0  0.78924735968E+02 -0.14267406389E+03  0.30716661749E+03  0.36957733121E+03  0.12510423810E+03 0.  0.
          5    1    3    3  502    0 -0.22756719176E+02 -0.64383630600E+01  0.77399740162E+01  0.25232922628E+02  0.41800000000E+01 0.  1.
         -5    1    3    3    0  502  0.10168145514E+03 -0.13623570083E+03  0.29942664347E+03  0.34434440858E+03  0.41800000000E+01 0.  1.
        -11    1    1    2    0    0 -0.59239806735E+02  0.29072667682E+02  0.16458392319E+02  0.68010685821E+02  0.00000000000E+00 0. -1.
         11    1    1    2    0    0 -0.19684929233E+02  0.11360139621E+03  0.11065788989E+03  0.15980595187E+03  0.00000000000E+00 0.  1.
</event>
<event>
 7    1  0.2601031E-009  0.1153161E+03  0.7561462E-02  0.1251030E+00
          1   -1    0    0  501    0  0.00000000000E+00  0.00000000000E+00  0.81776149855E+03  0.81776149855E+03  0.00000000000E+00 0. -1.
         -1   -1    0    0    0  501 -0.00000000000E+00 -0.00000000000E+00 -0.16879171630E+02  0.16879171630E+02  0.00000000000E+00 0.  1.
         25    2    1    2    0    0 -0.33764139332E+02  0.15428202169E+02  0.38990305659E+03  0.41115622300E+03  0.12508796765E+03 0.  0.
          5    1    3    3  502    0 -0.71881476834E+02 -0.23569974249E+02  0.23040506161E+03  0.24254165666E+03  0.41800000000E+01 0. -1.
         -5    1    3    3    0  502  0.38117337502E+02  0.38998176418E+02  0.15949799498E+03  0.16861456635E+03  0.41800000000E+01 0. -1.
        -11    1    1    2    0    0  0.60108841910E+02 -0.32940404612E+02  0.23966104370E+03  0.24927005235E+03  0.00000000000E+00 0.  1.
         11    1    1    2    0    0 -0.26344702578E+02  0.17512202443E+02  0.17131822662E+03  0.17421439482E+03  0.00000000000E+00 0. -1.
</event>
<event>
 7    1  0.2601031E-009  0.7569470E+02  0.7561462E-02  0.1341733E+00
         -2   -1    0    0    0  501 -0.00000000000E+00  0.00000000000E+00  0.46643923736E+02  0.46643923736E+02  0.00000000000E+00 0.  1.
          2   -1    0    0  501    0  0.00000000000E+00 -0.00000000000E+00 -0.36460006379E+03  0.36460006379E+03  0.00000000000E+00 0. -1.
         25    2    1    2    0    0 -0.53437291243E+02  0.54654428929E+01 -0.10693899896E+03  0.17312076182E+03  0.12509769587E+03 0.  0.
          5    1    3    3  502    0 -0.26641844625E+02 -0.63170089199E+01 -0.13168326431E+03  0.13456465727E+03  0.41800000000E+01 0. -1.
         -5    1    3    3    0  502 -0.26795446618E+02  0.11782451813E+02  0.24744265351E+02  0.38556104549E+02  0.41800000000E+01 0. -1.
        -11    1    1    2    0    0  0.26771752025E+02 -0.41444818115E+02 -0.17130272719E+03  0.17826672151E+03  0.00000000000E+00 0. -1.
         11    1    1    2    0    0  0.26665539218E+02  0.35979375222E+02 -0.39714413910E+02  0.59856504203E+02  0.00000000000E+00 0.  1.
</event>
<event>
 7    1  0.2601031E-009  0.1182563E+03  0.7561462E-02  0.1246002E+00
          1   -1    0    0  501    0  0.00000000000E+00  0.00000000000E+00  0.12576231494E+04  0.12576231494E+04  0.00000000000E+00 0. -1.
         -1   -1    0    0    0  501 -0.00000000000E+00 -0.00000000000E+00 -0.12575117517E+02  0.12575117517E+02  0.00000000000E+00 0.  1.
         25    2    1    2    0    0  0.29628184842E+02  0.37762862459E+02  0.89761240980E+03  0.90755744941E+03  0.12509445487E+03 0.  0.
          5    1    3    3  502    0 -0.43450087676E+02 -0.12123036075E+02  0.28707844343E+03  0.29063100868E+03  0.41800000000E+01 0.  1.
         -5    1    3    3    0  502  0.73078272519E+02  0.49885898534E+02  0.61053396636E+03  0.61692644073E+03  0.41800000000E+01 0.  1.
        -11    1    1    2    0    0 -0.61889985777E+02 -0.32619702220E+02  0.26176351886E+03  0.27095120432E+03  0.00000000000E+00 0. -1.
         11    1    1    2    0    0  0.32261800935E+02 -0.51431602392E+01  0.85672103250E+02  0.91689613218E+02  0.00000000000E+00 0.  1.
</event>
<event>
 7    1  0.3243737E-009  0.1287442E+03  0.7561462E-02  0.1229331E+00
          2   -1    0    0  501    0  0.00000000000E+00  0.00000000000E+00  0.62966325262E+03  0.62966325262E+03  0.00000000000E+00 0. -1.
         -2   -1    0    0    0  501 -0.00000000000E+00 -0.00000000000E+00 -0.31539173853E+02  0.31539173853E+02  0.00000000000E+00 0.  1.
         25    2    1    2    0    0  0.85879803868E+02 -0.21274906123E+02  0.35696856313E+03  0.38845961042E+03  0.12508537694E+03 0.  0.
          5    1    3    3  502    0  0.98430949563E+02 -0.54417435779E+02  0.22263297453E+03  0.24946507350E+03  0.41800000000E+01 0. -1.
         -5    1    3    3    0  502 -0.12551145695E+02  0.33142529656E+02  0.13433558860E+03  0.13899453692E+03  0.41800000000E+01 0. -1.
        -11    1    1    2    0    0 -0.16403983816E+02  0.34801098021E+02  0.26494602895E+02  0.46713714164E+02  0.00000000000E+00 0.  1.
         11    1    1    2    0    0 -0.69475820052E+02 -0.13526191898E+02  0.21466091274E+03  0.22602910188E+03  0.00000000000E+00 0. -1.
</event>
<event>
 7    1  0.2601031E-009  0.1646281E+03  0.7561462E-02  0.1183569E+00
         -2   -1    0    0    0  501 -0.00000000000E+00  0.00000000000E+00  0.31790106378E+02  0.31790106378E+02  0.00000000000E+00 0.  1.
          2   -1    0    0  501    0  0.00000000000E+00 -0.00000000000E+00 -0.95523970862E+03  0.95523970862E+03  0.00000000000E+00 0. -1.
         25    2    1    2    0    0  0.13248885042E+03  0.18971924016E+02 -0.45035833533E+03  0.48619241922E+03  0.12508880414E+03 0.  0.
          5    1    3    3  502    0  0.74358621941E+01  0.46370400495E+02 -0.19359656744E+03  0.19925513648E+03  0.41800000000E+01 0. -1.
         -5    1    3    3    0  502  0.12505298823E+03 -0.27398476480E+02 -0.25676176789E+03  0.28693728274E+03  0.41800000000E+01 0. -1.
        -11    1    1    2    0    0 -0.82089796209E+02 -0.48757146301E+02 -0.20106320075E+03  0.22258123159E+03  0.00000000000E+00 0.  1.
         11    1    1    2    0    0 -0.50399054212E+02  0.29785222285E+02 -0.27202806616E+03  0.27825616419E+03  0.00000000000E+00 0. -1.
</event>
<event>
 7    1  0.2601031E-009  0.1151773E+03  0.7561462E-02  0.1251272E+00
         -1   -1    0    0    0  501 -0.00000000000E+00  0.00000000000E+00  0.29945466294E+02  0.29945466294E+02  0.00000000000E+00 0.  1.
          1   -1    0    0  501    0  0.00000000000E+00 -0.00000000000E+00 -0.45240899136E+03  0.45240899136E+03  0.00000000000E+00 0. -1.
         25    2    1    2    0    0  0.35134360460E+02  0.14559139087E+02 -0.26927390985E+03  0.29933290422E+03  0.12508140233E+03 0.  0.
          5    1    3    3  502    0 -0.26864329653E+02  0.51292454986E+02 -0.10716096170E+03  0.12187515029E+03  0.41800000000E+01 0.  1.
         -5    1    3    3    0  502  0.61998690113E+02 -0.36733315899E+02 -0.16211294815E+03  0.17745775393E+03  0.41800000000E+01 0.  1.
        -11    1    1    2    0    0 -0.54006392837E+02 -0.40877390863E+02 -0.10146937315E+03  0.12199870999E+03  0.00000000000E+00 0. -1.
         11    1    1    2    0    0  0.18872032377E+02  0.26318251776E+02 -0.51720242071E+02  0.61022843448E+02  0.00000000000E+00 0.  1.
</event>
<event>
 7    1  0.2601031E-009  0.1270691E+03  0.7561462E-02  0.1231871E+00
          1   -1    0    0  501    0  0.00000000000E+00  0.00000000000E+00  0.59223724960E+02  0.59223724960E+02  0.00000000000E+00 0. -1.
         -1   -1    0    0    0  501 -0.00000000000E+00 -0.00000000000E+00 -0.34634017824E+03  0.34634017824E+03  0.00000000000E+00 0.  1.
         25    2    1    2    0    0 -0.71649717275E+02  0.45628452588E+02 -0.10273293629E+03  0.18279682797E+03  0.12507992024E+03 0.  0.
          5    1    3    3  502    0 -0.24638824475E+02  0.72982828613E+02 -0.10244945761E+03  0.12824557969E+03  0.41800000000E+01 0.  1.
         -5    1    3    3    0  502 -0.47010892800E+02 -0.27354376025E+02 -0.28347867384E+00  0.54551248288E+02  0.41800000000E+01 0.  1.
        -11    1    1    2    0    0  0.22712248152E+02 -0.65727251172E+02 -0.81953662764E+02  0.10748172218E+03  0.00000000000E+00 0. -1.
         11    1    1    2    0    0  0.48937469123E+02  0.20098798585E+02 -0.10242985423E+03  0.11528535304E+03  0.00000000000E+00 0.  1.
</event>
<event>
 7    1  0.2601031E-009  0.1885003E+03  0.7561462E-02  0.1159821E+00
         -1   -1    0    0    0  501 -0.00000000000E+00  0.00000000000E+00  0.28140040950E+02  0.28140040950E+02  0.00000000000E+00 0.  1.
          1   -1    0    0  501    0  0.00000000000E+00 -0.00000000000E+00 -0.14068246777E+04  0.14068246777E+04  0.00000000000E+00 0. -1.
         25    2    1    2    0    0  0.97847724176E+02  0.13442824832E+03 -0.77932510746E+03  0.80662379520E+03  0.12509673373E+03 0.  0.
          5    1    3    3  502    0  0.10168232339E+03  0.14850714076E+03 -0.59411758650E+03  0.62079533241E+03  0.41800000000E+01 0.  1.
         -5    1    3    3    0  502 -0.38345992186E+01 -0.14078892443E+02 -0.18520752095E+03  0.18582846279E+03  0.41800000000E+01 0.  1.
        -11    1    1    2    0    0 -0.41746887588E+02 -0.66943304415E+01 -0.78980837323E+02  0.89585653693E+02  0.00000000000E+00 0.  1.
         11    1    1    2    0    0 -0.56100836589E+02 -0.12773391788E+03 -0.52037869197E+03  0.53875526976E+03  0.00000000000E+00 0. -1.
</event>
<event>
 7    1  0.2601031E-009  0.1504131E+03  0.7561462E-02  0.1199966E+00
          2   -1    0    0  501    0  0.00000000000E+00  0.00000000000E+00  0.67327728543E+03  0.67327728543E+03  0.00000000000E+00 0. -1.
         -2   -1    0    0    0  501 -0.00000000000E+00 -0.00000000000E+00 -0.98851715345E+02  0.98851715345E+02  0.00000000000E+00 0.  1.
         25    2    1    2    0    0  0.84695223439E+02 -0.92445867827E+02  0.58831688662E+03  0.61439666915E+03  0.12508792357E+03 0.  0.
          5    1    3    3  502    0  0.85503542066E+02 -0.36690658039E+01  0.23706752335E+03  0.25207697391E+03  0.41800000000E+01 0.  1.
         -5    1    3    3    0  502 -0.80831862727E+00 -0.88776802023E+02  0.35124936327E+03  0.36231969524E+03  0.41800000000E+01 0.  1.
        -11    1    1    2    0    0 -0.18233242025E+02  0.29768575130E+02  0.38863414138E+02  0.52239679732E+02  0.00000000000E+00 0. -1.
         11    1    1    2    0    0 -0.66461981414E+02  0.62677292697E+02 -0.52754730681E+02  0.10549265189E+03  0.00000000000E+00 0.  1.
</event>
<event>
 7    1  0.2601031E-009  0.1794571E+03  0.7561462E-02  0.1168330E+00
         -2   -1    0    0    0  501 -0.00000000000E+00  0.00000000000E+00  0.14970065326E+03  0.14970065326E+03  0.00000000000E+00 0.  1.
          2   -1    0    0  501    0  0.00000000000E+00 -0.00000000000E+00 -0.22436962652E+03  0.22436962652E+03  0.00000000000E+00 0. -1.
         25    2    1    2    0    0 -0.10039932881E+03 -0.10212914422E+03 -0.36467105647E+02  0.19363045887E+03  0.12511002150E+03 0.  0.
          5    1    3    3  502    0 -0.10441357667E+03 -0.12467391200E+03 -0.45087207499E+02  0.16880790268E+03  0.41800000000E+01 0. -1.
         -5    1    3    3    0  502  0.40142478575E+01  0.22544767774E+02  0.86201018524E+01  0.24822556190E+02  0.41800000000E+01 0. -1.
        -11    1    1    2    0    0  0.10354049847E+03  0.40385807056E+02 -0.74413128837E+01  0.11138680969E+03  0.00000000000E+00 0.  1.
         11    1    1    2    0    0 -0.31411696622E+01  0.61743337169E+02 -0.30760554733E+02  0.69053011224E+02  0.00000000000E+00 0. -1.
</event>
<event>
 7    1  0.2601031E-009  0.9306155E+02  0.7561462E-02  0.1295603E+00
         -3   -1    0    0    0  501 -0.00000000000E+00  0.00000000000E+00  0.26395851125E+02  0.26395851125E+02  0.00000000000E+00 0.  1.
          3   -1    0    0  501    0  0.00000000000E+00 -0.00000000000E+00 -0.49203118156E+03  0.49203118156E+03  0.00000000000E+00 0. -1.
         25    2    1    2    0    0 -0.16571286979E+02 -0.22693747097E+02 -0.33458055992E+03  0.35830314282E+03  0.12508947745E+03 0.  0.
          5    1    3    3  502    0 -0.38641527938E+02 -0.55524932836E+02 -0.29308545324E+03  0.30082011427E+03  0.41800000000E+01 0.  1.
         -5    1    3    3    0  502  0.22070240959E+02  0.32831185739E+02 -0.41495106684E+02  0.57483028554E+02  0.41800000000E+01 0.  1.
        -11    1    1    2    0    0  0.45879132751E+02  0.12752650456E+02 -0.34698272806E+02  0.58919394526E+02  0.00000000000E+00 0.  1.
         11    1    1    2    0    0 -0.29307845772E+02  0.99410966409E+01 -0.96356497707E+02  0.10120449534E+03  0.00000000000E+00 0. -1.
</event>
<event>
 7    1  0.2601031E-009  0.1228524E+03  0.7561462E-02  0.1238464E+00
         -2   -1    0    0    0  501 -0.00000000000E+00  0.00000000000E+00  0.40423071027E+02  0.40423071027E+02  0.00000000000E+00 0.  1.
          2   -1    0    0  501    0  0.00000000000E+00 -0.00000000000E+00 -0.43745410487E+03  0.43745410487E+03  0.00000000000E+00 0. -1.
         25    2    1    2    0    0  0.61427847406E+02 -0.74348995060E+01 -0.29391473505E+03  0.32536670987E+03  0.12509582824E+03 0.  0.
          5    1    3    3  502    0 -0.32052255243E+02  0.19280179558E+02 -0.12369390179E+03  0.12929317898E+03  0.41800000000E+01 0. -1.
         -5    1    3    3    0  502  0.93480102648E+02 -0.26715079064E+02 -0.17022083326E+03  0.19607353089E+03  0.41800000000E+01 0. -1.
        -11    1    1    2    0    0 -0.69237990263E+02 -0.27840506933E+02 -0.81060165704E+02  0.11018050456E+03  0.00000000000E+00 0. -1.
         11    1    1    2    0    0  0.78101428574E+01  0.35275406439E+02 -0.22056133091E+02  0.42329961467E+02  0.00000000000E+00 0.  1.
</event>
<event>
 7    1  0.2601031E-009  0.1258736E+03  0.7561462E-02  0.1233710E+00
          1   -1    0    0  501    0  0.00000000000E+00  0.00000000000E+00  0.92422102340E+02  0.92422102340E+02  0.00000000000E+00 0. -1.
         -1   -1    0    0    0  501 -0.00000000000E+00 -0.00000000000E+00 -0.21230871038E+03  0.21230871038E+03  0.00000000000E+00 0.  1.
         25    2    1    2    0    0 -0.13560724304E+02 -0.81500642649E+02 -0.87486507970E+02  0.17357130762E+03  0.12508741646E+03 0.  0.
          5    1    3    3  502    0 -0.11275534268E+02  0.23048463255E+02  0.12484331928E+02  0.28839214190E+02  0.41800000000E+01 0. -1.
         -5    1    3    3    0  502 -0.22851900357E+01 -0.10454910590E+03 -0.99970839898E+02  0.14473209343E+03  0.41800000000E+01 0. -1.
        -11    1    1    2    0    0 -0.10264816365E+02  0.93744784009E+02 -0.75273395387E+01  0.94605030651E+02  0.00000000000E+00 0. -1.
         11    1    1    2    0    0  0.23825540669E+02 -0.12244141360E+02 -0.24872760533E+02  0.36554474450E+02  0.00000000000E+00 0.  1.
</event>
<event>
 7    1  0.2601031E-009  0.1016620E+03  0.7561462E-02  0.1276839E+00
         -2   -1    0    0    0  501 -0.00000000000E+00  0.00000000000E+00  0.50539951720E+03  0.50539951720E+03  0.00000000000E+00 0.  1.
          2   -1    0    0  501    0  0.00000000000E+00 -0.00000000000E+00 -0.27144261137E+02  0.27144261137E+02  0.00000000000E+00 0. -1.
         25    2    1    2    0    0  0.35833967274E+02 -0.14056548759E+02  0.29714085340E+03  0.32468857795E+03  0.12509326969E+03 0.  0.
          5    1    3    3  502    0  0.47318504476E+01 -0.65750013284E+02  0.11319685244E+03  0.13105897320E+03  0.41800000000E+01 0. -1.
         -5    1    3    3    0  502  0.31102116826E+02  0.51693464525E+02  0.18394400096E+03  0.19362960475E+03  0.41800000000E+01 0. -1.
        -11    1    1    2    0    0 -0.14104230273E+02 -0.26934362186E+02  0.14740398904E+03  0.15050689407E+03  0.00000000000E+00 0.  1.
         11    1    1    2    0    0 -0.21729737001E+02  0.40990910945E+02  0.33710413625E+02  0.57348306313E+02  0.00000000000E+00 0. -1.
</event>
<event>
 7    1  0.2601031E-009  0.1071339E+03  0.7561462E-02  0.1265971E+00
          1   -1    0    0  501    0  0.00000000000E+00  0.00000000000E+00  0.68098804137E+03  0.68098804137E+03  0.00000000000E+00 0. -1.
         -1   -1    0    0    0  501 -0.00000000000E+00 -0.00000000000E+00 -0.23250644693E+02  0.23250644693E+02  0.00000000000E+00 0.  1.
         25    2    1    2    0    0  0.15519951102E+02  0.55943398837E+02  0.29626103507E+03  0.32679310141E+03  0.12511034118E+03 0.  0.
          5    1    3    3  502    0  0.51191196301E+02  0.79997835695E+01  0.45837229987E+02  0.69304106435E+02  0.41800000000E+01 0. -1.
         -5    1    3    3    0  502 -0.35671245200E+02  0.47943615268E+02  0.25042380508E+03  0.25748899497E+03  0.41800000000E+01 0. -1.
        -11    1    1    2    0    0  0.22722316849E+02 -0.59775944845E+02  0.15944748295E+03  0.17179338487E+03  0.00000000000E+00 0.  1.
         11    1    1    2    0    0 -0.38242267951E+02  0.38325460082E+01  0.20202887866E+03  0.20565219979E+03  0.00000000000E+00 0. -1.
</event>
<event>
 7    1  0.2601031E-009  0.1224821E+03  0.7561462E-02  0.1239058E+00
         -2   -1    0    0    0  501 -0.00000000000E+00  0.00000000000E+00  0.14582412090E+03  0.14582412090E+03  0.00000000000E+00 0.  1.
          2   -1    0    0  501    0  0.00000000000E+00 -0.00000000000E+00 -0.16399952325E+03  0.16399952325E+03  0.00000000000E+00 0. -1.
         25    2    1    2    0    0  0.69891831978E+02 -0.84798321726E+02 -0.16378380986E+02  0.16730583527E+03  0.12508943843E+03 0.  0.
          5    1    3    3  502    0  0.66746770289E+02 -0.76768385720E+02  0.40538905850E+02  0.10958737006E+03  0.41800000000E+01 0.  1.
         -5    1    3    3    0  502  0.31450616891E+01 -0.80299360062E+01 -0.56917286836E+02  0.57718465208E+02  0.41800000000E+01 0.  1.
        -11    1    1    2    0    0 -0.74651322272E+02  0.95875345732E+02 -0.17452728969E+02  0.12275789011E+03  0.00000000000E+00 0. -1.
         11    1    1    2    0    0  0.47594902940E+01 -0.11077024006E+02  0.15655707611E+02  0.19759918762E+02  0.00000000000E+00 0.  1.
</event>
<event>
 7    1  0.2601031E-009  0.1771458E+03  0.7561462E-02  0.1170594E+00
          2   -1    0    0  501    0  0.00000000000E+00  0.00000000000E+00  0.17763333711E+03  0.17763333711E+03  0.00000000000E+00 0. -1.
         -2   -1    0    0    0  501 -0.00000000000E+00 -0.00000000000E+00 -0.31985794438E+03  0.31985794438E+03  0.00000000000E+00 0.  1.
         25    2    1    2    0    0 -0.13171360630E+03 -0.81910750386E+02 -0.22261107884E+03  0.29876295661E+03  0.12508303925E+03 0.  0.
          5    1    3    3  502    0  0.10316357549E+01 -0.34066805162E+02 -0.11845403115E+03  0.12333061818E+03  0.41800000000E+01 0. -1.
         -5    1    3    3    0  502 -0.13274524205E+03 -0.47843945224E+02 -0.10415704769E+03  0.17543233842E+03  0.41800000000E+01 0. -1.
        -11    1    1    2    0    0  0.38156446193E+02  0.76004250915E+02  0.20472007981E+02  0.87473788383E+02  0.00000000000E+00 0.  1.
         11    1    1    2    0    0  0.93557160106E+02  0.59064994707E+01  0.59914463587E+02  0.11125453649E+03  0.00000000000E+00 0. -1.
</event>
<event>
 7    1  0.2601031E-009  0.9159537E+02  0.7561462E-02  0.1299034E+00
         -2   -1    0    0    0  501 -0.00000000000E+00  0.00000000000E+00  0.69084575973E+02  0.69084575973E+02  0.00000000000E+00 0.  1.
          2   -1    0    0  501    0  0.00000000000E+00 -0.00000000000E+00 -0.24578962896E+03  0.24578962896E+03  0.00000000000E+00 0. -1.
         25    2    1    2    0    0 -0.66761241555E+02 -0.14058401492E+02 -0.71611401533E+02  0.15946916565E+03  0.12509004732E+03 0.  0.
          5    1    3    3  502    0 -0.63918457678E+02  0.29491574682E+02  0.55352522297E+01  0.70734953357E+02  0.41800000000E+01 0. -1.
         -5    1    3    3    0  502 -0.28427838773E+01 -0.43549976174E+02 -0.77146653763E+02  0.88734212295E+02  0.41800000000E+01 0. -1.
        -11    1    1    2    0    0  0.42957880640E+02  0.45502297532E+01 -0.11874914459E+03  0.12636234977E+03  0.00000000000E+00 0. -1.
         11    1    1    2    0    0  0.23803360915E+02  0.95081717387E+01  0.13655493139E+02  0.29042689503E+02  0.00000000000E+00 0.  1.
</event>
<event>
 7    1  0.2601031E-009  0.8846055E+02  0.7561462E-02  0.1306623E+00
         -2   -1    0    0    0  501 -0.00000000000E+00  0.00000000000E+00  0.72630786814E+02  0.72630786814E+02  0.00000000000E+00 0.  1.
          2   -1    0    0  501    0  0.00000000000E+00 -0.00000000000E+00 -0.17633312927E+03  0.17633312927E+03  0.00000000000E+00 0. -1.
         25    2    1    2    0    0 -0.14322210691E+02 -0.24689973342E+02 -0.22235454452E+02  0.13021682564E+03  0.12508911121E+03 0.  0.
          5    1    3    3  502    0 -0.57204260349E+02 -0.19540959625E+02 -0.50121240010E+02  0.78637062543E+02  0.41800000000E+01 0.  1.
         -5    1    3    3    0  502  0.42882049659E+02 -0.51490137168E+01  0.27885785558E+02  0.51579763099E+02  0.41800000000E+01 0.  1.
        -11    1    1    2    0    0  0.24245171551E+02  0.44557861418E+02 -0.82125907837E+02  0.96529249949E+02  0.00000000000E+00 0. -1.
         11    1    1    2    0    0 -0.99229608607E+01 -0.19867888076E+02  0.65901983801E+00  0.22217840489E+02  0.00000000000E+00 0.  1.
</event>
<event>
 7    1  0.2601031E-009  0.6340441E+02  0.7561462E-02  0.1384076E+00
         -2   -1    0    0    0  501 -0.00000000000E+00  0.00000000000E+00  0.20080876608E+03  0.20080876608E+03  0.00000000000E+00 0.  1.
          2   -1    0    0  501    0  0.00000000000E+00 -0.00000000000E+00 -0.72331325072E+02  0.72331325072E+02  0.00000000000E+00 0. -1.
         25    2    1    2    0    0  0.90710463705E+01  0.27071744091E+02  0.21792167222E+02  0.13014764716E+03  0.12509335833E+03 0.  0.
          5    1    3    3  502    0  0.37018527533E+01  0.24193492017E+02 -0.51136457242E+02  0.56845742400E+02  0.41800000000E+01 0. -1.
         -5    1    3    3    0  502  0.53691936172E+01  0.28782520738E+01  0.72928624464E+02  0.73301904759E+02  0.41800000000E+01 0. -1.
        -11    1    1    2    0    0  0.22980889908E+02  0.24676893745E+02  0.46035370023E+02  0.57064224161E+02  0.00000000000E+00 0. -1.
         11    1    1    2    0    0 -0.32051936279E+02 -0.51748637836E+02  0.60649903765E+02  0.85928219834E+02  0.00000000000E+00 0.  1.
</event>
<event>
 7    1  0.2601031E-009  0.2901586E+03  0.7561462E-02  0.1090266E+00
          1   -1    0    0  501    0  0.00000000000E+00  0.00000000000E+00  0.87924241691E+03  0.87924241691E+03  0.00000000000E+00 0. -1.
         -1   -1    0    0    0  501 -0.00000000000E+00 -0.00000000000E+00 -0.11001728046E+03  0.11001728046E+03  0.00000000000E+00 0.  1.
         25    2    1    2    0    0  0.25491903835E+03 -0.10561181748E+03  0.24405372965E+03  0.38903490670E+03  0.12509341937E+03 0.  0.
          5    1    3    3  502    0  0.59145091327E+02  0.28302605991E+02  0.50655938833E+02  0.82961894102E+02  0.41800000000E+01 0.  1.
         -5    1    3    3    0  502  0.19577394702E+03 -0.13391442347E+03  0.19339779082E+03  0.30607301260E+03  0.41800000000E+01 0.  1.
        -11    1    1    2    0    0 -0.82625994029E+02  0.20081044271E+02  0.25326390296E+03  0.26715708445E+03  0.00000000000E+00 0. -1.
         11    1    1    2    0    0 -0.17229304432E+03  0.85530773213E+02  0.27190750383E+03  0.33306770622E+03  0.00000000000E+00 0.  1.
</event>
<event>
 7    1  0.2601031E-009  0.1184033E+03  0.7561462E-02  0.1245755E+00
         -2   -1    0    0    0  501 -0.00000000000E+00  0.00000000000E+00  0.32681272746E+02  0.32681272746E+02  0.00000000000E+00 0.  1.
          2   -1    0    0  501    0  0.00000000000E+00 -0.00000000000E+00 -0.58281936532E+03  0.58281936532E+03  0.00000000000E+00 0. -1.
         25    2    1    2    0    0  0.51352346803E+02  0.41247554297E+02 -0.17738252540E+03  0.22682685014E+03  0.12508970928E+03 0.  0.
          5    1    3    3  502    0  0.59994708877E+02 -0.28497226140E+02 -0.11447342704E+03  0.13241259339E+03  0.41800000000E+01 0. -1.
         -5    1    3    3    0  502 -0.86423620743E+01  0.69744780436E+02 -0.62909098367E+02  0.94414256750E+02  0.41800000000E+01 0. -1.
        -11    1    1    2    0    0  0.49973231948E+01 -0.43182867720E+02 -0.85272374316E+02  0.95713693509E+02  0.00000000000E+00 0.  1.
         11    1    1    2    0    0 -0.56349669998E+02  0.19353134233E+01 -0.28748319285E+03  0.29296009442E+03  0.00000000000E+00 0. -1.
</event>
<event>
 7    1  0.2605150E-009  0.1064199E+03  0.7561462E-02  0.1267347E+00
         -1   -1    0    0    0  501 -0.00000000000E+00  0.00000000000E+00  0.62311300575E+02  0.62311300575E+02  0.00000000000E+00 0.  1.
          1   -1    0    0  501    0  0.00000000000E+00 -0.00000000000E+00 -0.31930838707E+03  0.31930838707E+03  0.00000000000E+00 0. -1.
         25    2    1    2    0    0 -0.80263432066E+02 -0.39639067324E+02 -0.13154053905E+03  0.20239642271E+03  0.12509166370E+03 0.  0.
          5    1    3    3  502    0 -0.28445474960E+02  0.22684657524E+02 -0.11349202637E+03  0.11925456461E+03  0.41800000000E+01 0.  1.
         -5    1    3    3    0  502 -0.51817957106E+02 -0.62323724848E+02 -0.18048512683E+02  0.83141858096E+02  0.41800000000E+01 0.  1.
        -11    1    1    2    0    0  0.35341645328E+02  0.35260623204E+02 -0.45066868336E+01  0.50126376983E+02  0.00000000000E+00 0.  1.
         11    1    1    2    0    0  0.44921786738E+02  0.43784441202E+01 -0.12094986061E+03  0.12909688795E+03  0.00000000000E+00 0. -1.
</event>
<event>
 7    1  0.2601031E-009  0.1037346E+03  0.7561462E-02  0.1272633E+00
         -1   -1    0    0    0  501 -0.00000000000E+00  0.00000000000E+00  0.40346994154E+02  0.40346994154E+02  0.00000000000E+00 0.  1.
          1   -1    0    0  501    0  0.00000000000E+00 -0.00000000000E+00 -0.31932741038E+03  0.31932741038E+03  0.00000000000E+00 0. -1.
         25    2    1    2    0    0  0.14023054573E+02  0.30379743432E+02 -0.16304621159E+03  0.20820844365E+03  0.12508842481E+03 0.  0.
          5    1    3    3  502    0  0.20265354929E+01  0.79043607421E+02 -0.98353603772E+02  0.12626520699E+03  0.41800000000E+01 0. -1.
         -5    1    3    3    0  502  0.11996519080E+02 -0.48663863990E+02 -0.64692607815E+02  0.81943236660E+02  0.41800000000E+01 0. -1.
        -11    1    1    2    0    0 -0.29830358120E+02 -0.46610053437E+02 -0.11631355707E+03  0.12880679682E+03  0.00000000000E+00 0. -1.
         11    1    1    2    0    0  0.15807303547E+02  0.16230310006E+02  0.37935243014E+00  0.22659164075E+02  0.00000000000E+00 0.  1.
</event>
<event>
 7    1  0.2601031E-009  0.9741865E+02  0.7561462E-02  0.1285820E+00
          2   -1    0    0  501    0  0.00000000000E+00  0.00000000000E+00  0.17387611508E+04  0.17387611508E+04  0.00000000000E+00 0.  1.
         -2   -1    0    0    0  501 -0.00000000000E+00 -0.00000000000E+00 -0.12948914044E+02  0.12948914044E+02  0.00000000000E+00 0. -1.
         25    2    1    2    0    0 -0.60818016988E+02  0.27774422000E+02  0.13605126907E+04  0.13678863136E+04  0.12509170904E+03 0.  0.
          5    1    3    3  502    0 -0.20927824016E+02 -0.97178177975E+01  0.41002491459E+02  0.47234378440E+02  0.41800000000E+01 0. -1.
         -5    1    3    3    0  502 -0.39890192971E+02  0.37492239797E+02  0.13195101992E+04  0.13206519352E+04  0.41800000000E+01 0. -1.
        -11    1    1    2    0    0  0.56903588059E+02  0.26004005550E+02  0.16737425272E+03  0.17868510601E+03  0.00000000000E+00 0.  1.
         11    1    1    2    0    0  0.39144289288E+01 -0.53778427550E+02  0.19792529335E+03  0.20513864524E+03  0.00000000000E+00 0. -1.
</event>
<event>
 7    1  0.2601031E-009  0.1870341E+03  0.7561462E-02  0.1161164E+00
         -2   -1    0    0    0  501 -0.00000000000E+00  0.00000000000E+00  0.21310132185E+03  0.21310132185E+03  0.00000000000E+00 0.  1.
          2   -1    0    0  501    0  0.00000000000E+00 -0.00000000000E+00 -0.19288636847E+03  0.19288636847E+03  0.00000000000E+00 0. -1.
         25    2    1    2    0    0  0.90004386978E+02  0.13464109188E+03  0.71587967479E+02  0.21680050412E+03  0.12509439717E+03 0.  0.
          5    1    3    3  502    0 -0.24388595904E+02  0.18669443216E+02 -0.12513089281E+02  0.33427556350E+02  0.41800000000E+01 0.  1.
         -5    1    3    3    0  502  0.11439298288E+03  0.11597164867E+03  0.84101056761E+02  0.18337294777E+03  0.41800000000E+01 0.  1.
        -11    1    1    2    0    0  0.11982427735E+02 -0.37144350728E+02 -0.22898492314E+02  0.45250660942E+02  0.00000000000E+00 0. -1.
         11    1    1    2    0    0 -0.10198681471E+03 -0.97496741155E+02 -0.28474521793E+02  0.14393652526E+03  0.00000000000E+00 0.  1.
</event>
<event>
 7    1  0.2601031E-009  0.1331410E+03  0.7561462E-02  0.1222868E+00
         -1   -1    0    0    0  501 -0.00000000000E+00  0.00000000000E+00  0.65563360308E+02  0.65563360308E+02  0.00000000000E+00 0.  1.
          1   -1    0    0  501    0  0.00000000000E+00 -0.00000000000E+00 -0.37005210006E+03  0.37005210006E+03  0.00000000000E+00 0. -1.
         25    2    1    2    0    0  0.97634473348E+02 -0.49102082438E+02 -0.13665180228E+03  0.21509233767E+03  0.12508994272E+03 0.  0.
          5    1    3    3  502    0  0.10688532590E+03 -0.34534071513E+02 -0.15374063628E+03  0.19044876117E+03  0.41800000000E+01 0. -1.
         -5    1    3    3    0  502 -0.92508525554E+01 -0.14568010924E+02  0.17088833994E+02  0.24643576497E+02  0.41800000000E+01 0. -1.
        -11    1    1    2    0    0 -0.80325576538E+01  0.45758400002E+02 -0.92095287932E+02  0.10314986773E+03  0.00000000000E+00 0. -1.
         11    1    1    2    0    0 -0.89601915694E+02  0.33436824352E+01 -0.75741649538E+02  0.11737325497E+03  0.00000000000E+00 0.  1.
</event>
<event>
 7    1  0.2601031E-009  0.9335697E+02  0.7561462E-02  0.1294920E+00
          2   -1    0    0  501    0  0.00000000000E+00  0.00000000000E+00  0.32934881946E+03  0.32934881946E+03  0.00000000000E+00 0. -1.
         -2   -1    0    0    0  501 -0.00000000000E+00 -0.00000000000E+00 -0.47824484510E+02  0.47824484510E+02  0.00000000000E+00 0.  1.
         25    2    1    2    0    0  0.61783359196E+02 -0.49977388980E+01  0.17966182732E+03  0.22752613295E+03  0.12509039975E+03 0.  0.
          5    1    3    3  502    0  0.21467654313E+02 -0.46055548057E+02  0.15779513886E+03  0.16582747642E+03  0.41800000000E+01 0. -1.
         -5    1    3    3    0  502  0.40315704882E+02  0.41057809159E+02  0.21866688464E+02  0.61698656529E+02  0.41800000000E+01 0. -1.
        -11    1    1    2    0    0 -0.12490792445E+02 -0.19370387262E+02  0.90642794068E+02  0.93527257605E+02  0.00000000000E+00 0. -1.
         11    1    1    2    0    0 -0.49292566750E+02  0.24368126160E+02  0.11219713557E+02  0.56119913415E+02  0.00000000000E+00 0.  1.
</event>
<event>
 7    1  0.2601031E-009  0.1072820E+03  0.7561462E-02  0.1265688E+00
          3   -1    0    0  501    0  0.00000000000E+00  0.00000000000E+00  0.19459026539E+03  0.19459026539E+03  0.00000000000E+00 0. -1.
         -3   -1    0    0    0  501 -0.00000000000E+00 -0.00000000000E+00 -0.65586519052E+02  0.65586519052E+02  0.00000000000E+00 0.  1.
         25    2    1    2    0    0  0.28687766220E+02  0.10344142580E+02  0.93423142082E+02  0.15907814415E+03  0.12509189924E+03 0.  0.
          5    1    3    3  502    0 -0.28525564015E+01  0.60595425580E+02  0.75537085777E+02  0.96970440893E+02  0.41800000000E+01 0.  1.
         -5    1    3    3    0  502  0.31540322622E+02 -0.50251283000E+02  0.17886056304E+02  0.62107703261E+02  0.41800000000E+01 0.  1.
        -11    1    1    2    0    0 -0.37678202144E+02 -0.44877151765E+02  0.17870466420E+02  0.61261400877E+02  0.00000000000E+00 0.  1.
         11    1    1    2    0    0  0.89904359234E+01  0.34533009186E+02  0.17710137832E+02  0.39837239407E+02  0.00000000000E+00 0. -1.
</event>
<event>
 7    1  0.2601031E-009  0.1260069E+03  0.7561462E-02  0.1233504E+00
         -1   -1    0    0    0  501 -0.00000000000E+00  0.00000000000E+00  0.52989419043E+02  0.52989419043E+02  0.00000000000E+00 0.  1.
          1   -1    0    0  501    0  0.00000000000E+00 -0.00000000000E+00 -0.41942532324E+03  0.41942532324E+03  0.00000000000E+00 0. -1.
         25    2    1    2    0    0 -0.25784689911E+02 -0.77592072198E+02 -0.29546109234E+03  0.33110306924E+03  0.12508639203E+03 0.  0.
          5    1    3    3  502    0  0.24814869603E+02 -0.81809367022E+02 -0.24447693251E+03  0.25902701252E+03  0.41800000000E+01 0.  1.
         -5    1    3    3    0  502 -0.50599559514E+02  0.42172948244E+01 -0.50984159833E+02  0.72076056721E+02  0.41800000000E+01 0.  1.
        -11    1    1    2    0    0  0.97837484800E+01 -0.16959297999E+02 -0.32589819850E+02  0.38018888474E+02  0.00000000000E+00 0. -1.
         11    1    1    2    0    0  0.16000941431E+02  0.94551370197E+02 -0.38384992007E+02  0.10329278457E+03  0.00000000000E+00 0.  1.
</event>
<event>
 7    1  0.2601031E-009  0.1478885E+03  0.7561462E-02  0.1203092E+00
         -1   -1    0    0    0  501 -0.00000000000E+00  0.00000000000E+00  0.38975618100E+02  0.38975618100E+02  0.00000000000E+00 0.  1.
          1   -1    0    0  501    0  0.00000000000E+00 -0.00000000000E+00 -0.76099310827E+03  0.76099310827E+03  0.00000000000E+00 0. -1.
         25    2    1    2    0    0 -0.11291736127E+01 -0.10774702552E+03 -0.56494184706E+03  0.58857243038E+03  0.12509004235E+03 0.  0.
          5    1    3    3  502    0  0.49545480423E+02 -0.85292759282E+02 -0.45246402759E+03  0.46310989849E+03  0.41800000000E+01 0.  1.
         -5    1    3    3    0  502 -0.50674654036E+02 -0.22454266234E+02 -0.11247781948E+03  0.12546253189E+03  0.41800000000E+01 0.  1.
        -11    1    1    2    0    0  0.33018547569E+02  0.43999459992E+01 -0.38110594941E+02  0.50616217314E+02  0.00000000000E+00 0. -1.
         11    1    1    2    0    0 -0.31889373956E+02  0.10334707952E+03 -0.11896504817E+03  0.16078007868E+03  0.00000000000E+00 0.  1.
</event>
<event>
 7    1  0.2601031E-009  0.1252172E+03  0.7561462E-02  0.1234730E+00
          4   -1    0    0  501    0  0.00000000000E+00  0.00000000000E+00  0.20699222977E+02  0.20699222977E+02  0.00000000000E+00 0. -1.
         -4   -1    0    0    0  501 -0.00000000000E+00 -0.00000000000E+00 -0.90458957070E+03  0.90458957070E+03  0.00000000000E+00 0.  1.
         25    2    1    2    0    0  0.19434678669E+02 -0.63874251118E+02 -0.31774677138E+03  0.34794922893E+03  0.12509208010E+03 0.  0.
          5    1    3    3  502    0  0.45873470156E+02 -0.92047383476E+02 -0.22963048135E+03  0.25164404709E+03  0.41800000000E+01 0.  1.
         -5    1    3    3    0  502 -0.26438791488E+02  0.28173132357E+02 -0.88116290027E+02  0.96305181846E+02  0.41800000000E+01 0.  1.
        -11    1    1    2    0    0 -0.44889029191E+02  0.69346482580E+02 -0.48880494799E+03  0.49573605554E+03  0.00000000000E+00 0.  1.
         11    1    1    2    0    0  0.25454350523E+02 -0.54722314622E+01 -0.77338628355E+02  0.81603509199E+02  0.00000000000E+00 0. -1.
</event>
<event>
 7    1  0.2601031E-009  0.7885849E+02  0.7561462E-02  0.1332322E+00
          2   -1    0    0  501    0  0.00000000000E+00  0.00000000000E+00  0.22212595677E+03  0.22212595677E+03  0.00000000000E+00 0. -1.
         -2   -1    0    0    0  501 -0.00000000000E+00 -0.00000000000E+00 -0.81819899490E+02  0.81819899490E+02  0.00000000000E+00 0.  1.
         25    2    1    2    0    0 -0.32156293817E+01 -0.75794088708E+02  0.10536830977E+03  0.18029288018E+03  0.12509179744E+03 0.  0.
          5    1    3    3  502    0  0.22821643335E+01 -0.25584786253E+02 -0.27635254054E+02  0.37960100477E+02  0.41800000000E+01 0.  1.
         -5    1    3    3    0  502 -0.54977937152E+01 -0.50209302455E+02  0.13300356383E+03  0.14233277971E+03  0.41800000000E+01 0.  1.
        -11    1    1    2    0    0  0.15480761472E+02  0.51795339264E+02  0.64161044699E+02  0.83899051258E+02  0.00000000000E+00 0. -1.
         11    1    1    2    0    0 -0.12265132090E+02  0.23998749444E+02 -0.29223297188E+02  0.39753924820E+02  0.00000000000E+00 0.  1.
</event>
<event>
 7    1  0.2601031E-009  0.7888041E+02  0.7561462E-02  0.1332259E+00
         -1   -1    0    0    0  501 -0.00000000000E+00  0.00000000000E+00  0.51992424950E+02  0.51992424950E+02  0.00000000000E+00 0.  1.
          1   -1    0    0  501    0  0.00000000000E+00 -0.00000000000E+00 -0.17327503071E+03  0.17327503071E+03  0.00000000000E+00 0. -1.
         25    2    1    2    0    0 -0.17843913018E+02  0.26243720673E+02 -0.91152922470E+02  0.15800240722E+03  0.12509503310E+03 0.  0.
          5    1    3    3  502    0 -0.16515876691E+02  0.64704780689E+02 -0.94252213313E+01  0.67570629892E+02  0.41800000000E+01 0. -1.
         -5    1    3    3    0  502 -0.13280363274E+01 -0.38461060016E+02 -0.81727701139E+02  0.90431777332E+02  0.41800000000E+01 0. -1.
        -11    1    1    2    0    0 -0.18027446792E+01 -0.31699197176E+02 -0.10737596345E+01  0.31768568582E+02  0.00000000000E+00 0.  1.
         11    1    1    2    0    0  0.19646657697E+02  0.54554765029E+01 -0.29055923656E+02  0.35496479854E+02  0.00000000000E+00 0. -1.
</event>
<event>
 7    1  0.2601031E-009  0.1201985E+03  0.7561462E-02  0.1242770E+00
         -1   -1    0    0    0  501 -0.00000000000E+00  0.00000000000E+00  0.17480341317E+03  0.17480341317E+03  0.00000000000E+00 0.  1.
          1   -1    0    0  501    0  0.00000000000E+00 -0.00000000000E+00 -0.97530838162E+02  0.97530838162E+02  0.00000000000E+00 0. -1.
         25    2    1    2    0    0  0.36921301308E+02  0.48009775705E+02  0.81732426053E+02  0.16123023904E+03  0.12508748722E+03 0.  0.
          5    1    3    3  502    0 -0.41345887361E+02  0.12953718717E+02  0.12510423223E+01  0.43546741981E+02  0.41800000000E+01 0.  1.
         -5    1    3    3    0  502  0.78267188669E+02  0.35056056988E+02  0.80481383730E+02  0.11768349706E+03  0.41800000000E+01 0.  1.
        -11    1    1    2    0    0 -0.68111464778E+02 -0.26336483678E+02 -0.23192887569E+01  0.73062720365E+02  0.00000000000E+00 0.  1.
         11    1    1    2    0    0  0.31190163470E+02 -0.21673292026E+02 -0.21405622859E+01  0.38041291926E+02  0.00000000000E+00 0. -1.
</event>
<event>
 7    1  0.3132425E-009  0.1740874E+03  0.7561462E-02  0.1173651E+00
         -2   -1    0    0    0  501 -0.00000000000E+00  0.00000000000E+00  0.28178400335E+02  0.28178400335E+02  0.00000000000E+00 0.  1.
          2   -1    0    0  501    0  0.00000000000E+00 -0.00000000000E+00 -0.11675390388E+04  0.11675390388E+04  0.00000000000E+00 0. -1.
         25    2    1    2    0    0 -0.56457291747E+02 -0.13137176796E+03 -0.52400773822E+03  0.55738622582E+03  0.12509727342E+03 0.  0.
          5    1    3    3  502    0 -0.95128782295E+02 -0.92672579239E+02 -0.32934417875E+03  0.35513765309E+03  0.41800000000E+01 0. -1.
         -5    1    3    3    0  502  0.38671490548E+02 -0.38699188724E+02 -0.19466355946E+03  0.20224857273E+03  0.41800000000E+01 0. -1.
        -11    1    1    2    0    0  0.52286479877E+02  0.32692267306E+02 -0.34575263640E+03  0.35120869280E+03  0.00000000000E+00 0. -1.
         11    1    1    2    0    0  0.41708118705E+01  0.98679500656E+02 -0.26960026390E+03  0.28712252057E+03  0.00000000000E+00 0.  1.
</event>
<event>
 7    1  0.2601031E-009  0.8775312E+02  0.7561462E-02  0.1308386E+00
         -2   -1    0    0    0  501 -0.00000000000E+00  0.00000000000E+00  0.95363893501E+02  0.95363893501E+02  0.00000000000E+00 0.  1.
          2   -1    0    0  501    0  0.00000000000E+00 -0.00000000000E+00 -0.13408365148E+03  0.13408365148E+03  0.00000000000E+00 0. -1.
         25    2    1    2    0    0  0.11399839311E+02  0.98513830559E+01 -0.83092776351E+02  0.15092472947E+03  0.12508740304E+03 0.  0.
          5    1    3    3  502    0 -0.21942151862E+02 -0.49338725398E+02 -0.18891631969E+02  0.57359689772E+02  0.41800000000E+01 0.  1.
         -5    1    3    3    0  502  0.33341991172E+02  0.59190108454E+02 -0.64201144382E+02  0.93565039700E+02  0.41800000000E+01 0.  1.
        -11    1    1    2    0    0  0.19915950041E+02  0.15034140256E+01  0.40282176049E+02  0.44961750711E+02  0.00000000000E+00 0.  1.
         11    1    1    2    0    0 -0.31315789352E+02 -0.11354797081E+02  0.40908423232E+01  0.33561064798E+02  0.00000000000E+00 0. -1.
</event>
<event>
 7    1  0.2601031E-009  0.1081635E+03  0.7561462E-02  0.1264009E+00
         -1   -1    0    0    0  501 -0.00000000000E+00  0.00000000000E+00  0.10621729168E+03  0.10621729168E+03  0.00000000000E+00 0.  1.
          1   -1    0    0  501    0  0.00000000000E+00 -0.00000000000E+00 -0.15481383272E+03  0.15481383272E+03  0.00000000000E+00 0. -1.
         25    2    1    2    0    0 -0.25917072313E+02 -0.42170558756E+02  0.22643623828E+02  0.13641832470E+03  0.12508866836E+03 0.  0.
          5    1    3    3  502    0 -0.65527809660E+02 -0.20000171889E+02  0.48467588510E+02  0.84026663925E+02  0.41800000000E+01 0. -1.
         -5    1    3    3    0  502  0.39610737347E+02 -0.22170386868E+02 -0.25823964682E+02  0.52391660777E+02  0.41800000000E+01 0. -1.
        -11    1    1    2    0    0  0.58852495682E+02  0.34734080961E+02 -0.50698634600E+02  0.85090682090E+02  0.00000000000E+00 0.  1.
         11    1    1    2    0    0 -0.32935423369E+02  0.74364777954E+01 -0.20541530274E+02  0.39522117612E+02  0.00000000000E+00 0. -1.
</event>
<event>
 7    1  0.2601031E-009  0.1060660E+03  0.7561462E-02  0.1268034E+00
         -1   -1    0    0    0  501 -0.00000000000E+00  0.00000000000E+00  0.56364667554E+02  0.56364667554E+02  0.00000000000E+00 0.  1.
          1   -1    0    0  501    0  0.00000000000E+00 -0.00000000000E+00 -0.28353518005E+03  0.28353518005E+03  0.00000000000E+00 0. -1.
         25    2    1    2    0    0 -0.39556655580E+02 -0.33401397481E+02 -0.71698038664E+02  0.15319553650E+03  0.12509149173E+03 0.  0.
          5    1    3    3  502    0  0.33056781422E+02 -0.26803471614E+02  0.96871970592E+01  0.43846220765E+02  0.41800000000E+01 0. -1.
         -5    1    3    3    0  502 -0.72613437001E+02 -0.65979258666E+01 -0.81385235724E+02  0.10934931574E+03  0.41800000000E+01 0. -1.
        -11    1    1    2    0    0 -0.22391163481E+02  0.25422709527E+02 -0.90247698181E+02  0.96396708391E+02  0.00000000000E+00 0. -1.
         11    1    1    2    0    0  0.61947819061E+02  0.79786879537E+01 -0.65224775648E+02  0.90307602705E+02  0.00000000000E+00 0.  1.
</event>
<event>
 7    1  0.2601031E-009  0.1784217E+03  0.7561462E-02  0.1169339E+00
          1   -1    0    0  501    0  0.00000000000E+00  0.00000000000E+00  0.12869546403E+04  0.12869546403E+04  0.00000000000E+00 0. -1.
         -1   -1    0    0    0  501 -0.00000000000E+00 -0.00000000000E+00 -0.29754126750E+02  0.29754126750E+02  0.00000000000E+00 0.  1.
         25    2    1    2    0    0  0.14933659109E+03 -0.37877195066E+02  0.81124304919E+03  0.83516394508E+03  0.12508969167E+03 0.  0.
          5    1    3    3  502    0  0.16464961895E+02  0.31016395753E+02  0.64505084567E+02  0.73562831041E+02  0.41800000000E+01 0. -1.
         -5    1    3    3    0  502  0.13287162919E+03 -0.68893590819E+02  0.74673796462E+03  0.76160111404E+03  0.41800000000E+01 0. -1.
        -11    1    1    2    0    0 -0.75115072540E+02  0.57941255587E+02  0.16572213471E+03  0.19095363090E+03  0.00000000000E+00 0.  1.
         11    1    1    2    0    0 -0.74221518547E+02 -0.20064060520E+02  0.28023532962E+03  0.29059119103E+03  0.00000000000E+00 0. -1.
</event>
<event>
 7    1  0.2601031E-009  0.1071602E+03  0.7561462E-02  0.1265921E+00
         -3   -1    0    0    0  501 -0.00000000000E+00  0.00000000000E+00  0.10651950246E+03  0.10651950246E+03  0.00000000000E+00 0.  1.
          3   -1    0    0  501    0  0.00000000000E+00 -0.00000000000E+00 -0.11149879401E+03  0.11149879401E+03  0.00000000000E+00 0. -1.
         25    2    1    2    0    0 -0.13145803537E+02 -0.16376761877E+01 -0.11005994737E+02  0.12627014696E+03  0.12509006339E+03 0.  0.
          5    1    3    3  502    0 -0.68898948203E+02 -0.13721456038E+01  0.11710747119E+01  0.69049197411E+02  0.41800000000E+01 0. -1.
         -5    1    3    3    0  502  0.55753144666E+02 -0.26553058387E+00 -0.12177069449E+02  0.57220949547E+02  0.41800000000E+01 0. -1.
        -11    1    1    2    0    0 -0.37705578226E+02 -0.51975917101E+01 -0.72569914125E+01  0.38747767850E+02  0.00000000000E+00 0. -1.
         11    1    1    2    0    0  0.50851381764E+02  0.68352678978E+01  0.13283694599E+02  0.53000381666E+02  0.00000000000E+00 0.  1.
</event>
<event>
 7    1  0.2601031E-009  0.9976729E+02  0.7561462E-02  0.1280786E+00
         -2   -1    0    0    0  501 -0.00000000000E+00  0.00000000000E+00  0.63388100117E+02  0.63388100117E+02  0.00000000000E+00 0.  1.
          2   -1    0    0  501    0  0.00000000000E+00 -0.00000000000E+00 -0.27214216350E+03  0.27214216350E+03  0.00000000000E+00 0. -1.
         25    2    1    2    0    0 -0.11480227900E+02 -0.17364662491E+02 -0.20590869020E+03  0.24182312564E+03  0.12508680290E+03 0.  0.
          5    1    3    3  502    0 -0.63008779467E+02 -0.17342807150E+02 -0.67368545312E+02  0.93951437175E+02  0.41800000000E+01 0. -1.
         -5    1    3    3    0  502  0.51528551567E+02 -0.21855341086E-01 -0.13854014489E+03  0.14787168847E+03  0.41800000000E+01 0. -1.
        -11    1    1    2    0    0  0.30385857646E+02 -0.22780634877E+02 -0.23606878028E+02  0.44716242692E+02  0.00000000000E+00 0. -1.
         11    1    1    2    0    0 -0.18905629746E+02  0.40145297368E+02  0.20761504849E+02  0.48990895281E+02  0.00000000000E+00 0.  1.
</event>
<event>
 7    1  0.2601031E-009  0.1385856E+03  0.7561462E-02  0.1215245E+00
         -2   -1    0    0    0  501 -0.00000000000E+00  0.00000000000E+00  0.37038978719E+03  0.37038978719E+03  0.00000000000E+00 0. -1.
          2   -1    0    0  501    0  0.00000000000E+00 -0.00000000000E+00 -0.54670767296E+02  0.54670767296E+02  0.00000000000E+00 0.  1.
         25    2    1    2    0    0  0.26166010440E+01 -0.86303829568E+02  0.12457101403E+03  0.19652338128E+03  0.12509318229E+03 0.  0.
          5    1    3    3  502    0 -0.10661129620E+02 -0.11733611928E+03  0.99509721175E+02  0.15427599159E+03  0.41800000000E+01 0.  1.
         -5    1    3    3    0  502  0.13277730664E+02  0.31032289711E+02  0.25061292853E+02  0.42247389692E+02  0.41800000000E+01 0.  1.
        -11    1    1    2    0    0 -0.29808580622E+02 -0.47985979892E+01  0.45929309080E+02  0.54964347116E+02  0.00000000000E+00 0.  1.
         11    1    1    2    0    0  0.27191979578E+02  0.91102427557E+02  0.14521869678E+03  0.17357282608E+03  0.00000000000E+00 0. -1.
</event>
<event>
 7    1  0.2601031E-009  0.1348194E+03  0.7561462E-02  0.1220475E+00
         -1   -1    0    0    0  501 -0.00000000000E+00  0.00000000000E+00  0.67831471128E+02  0.67831471128E+02  0.00000000000E+00 0.  1.
          1   -1    0    0  501    0  0.00000000000E+00 -0.00000000000E+00 -0.31740090786E+03  0.31740090786E+03  0.00000000000E+00 0. -1.
         25    2    1    2    0    0 -0.94452726184E+02 -0.29610459723E+02 -0.16098207735E+03  0.22663010243E+03  0.12509147569E+03 0.  0.
          5    1    3    3  502    0  0.18649553798E+02  0.12826941282E+02  0.26772170031E+01  0.23172746285E+02  0.41800000000E+01 0.  1.
         -5    1    3    3    0  502 -0.11310227998E+03 -0.42437401006E+02 -0.16365929435E+03  0.20345735614E+03  0.41800000000E+01 0.  1.
        -11    1    1    2    0    0  0.91439478366E+02 -0.44556913902E+01 -0.41776553347E+02  0.10062957716E+03  0.00000000000E+00 0.  1.
         11    1    1    2    0    0  0.30132478185E+01  0.34066151114E+02 -0.46810806044E+02  0.57972699408E+02  0.00000000000E+00 0. -1.
</event>
<event>
 7    1  0.2601031E-009  0.1089548E+03  0.7561462E-02  0.1262518E+00
         -2   -1    0    0    0  501 -0.00000000000E+00  0.00000000000E+00  0.13795457813E+02  0.13795457813E+02  0.00000000000E+00 0.  1.
          2   -1    0    0  501    0  0.00000000000E+00 -0.00000000000E+00 -0.90152864607E+03  0.90152864607E+03  0.00000000000E+00 0. -1.
         25    2    1    2    0    0 -0.19596132261E+02 -0.18960743476E+02 -0.56966899190E+03  0.58387976246E+03  0.12509715618E+03 0.  0.
          5    1    3    3  502    0 -0.72060659177E+02 -0.98324951524E+01 -0.37527531698E+03  0.38228059393E+03  0.41800000000E+01 0.  1.
         -5    1    3    3    0  502  0.52464526916E+02 -0.91282483233E+01 -0.19439367492E+03  0.20159916853E+03  0.41800000000E+01 0.  1.
        -11    1    1    2    0    0 -0.10689735516E+02 -0.31238638017E+02 -0.86885172307E+02  0.92947060833E+02  0.00000000000E+00 0.  1.
         11    1    1    2    0    0  0.30285867777E+02  0.50199381493E+02 -0.23117902405E+03  0.23849728059E+03  0.00000000000E+00 0. -1.
</event>
<event>
 7    1  0.2601031E-009  0.1152317E+03  0.7561462E-02  0.1251177E+00
          2   -1    0    0  501    0  0.00000000000E+00  0.00000000000E+00  0.94291040919E+03  0.94291040919E+03  0.00000000000E+00 0. -1.
         -2   -1    0    0    0  501 -0.00000000000E+00 -0.00000000000E+00 -0.18067696548E+02  0.18067696548E+02  0.00000000000E+00 0.  1.
         25    2    1    2    0    0  0.56344821832E+02  0.39622309514E+01  0.68659686322E+03  0.70018127226E+03  0.12509245863E+03 0.  0.
          5    1    3    3  502    0 -0.30113495185E+02  0.26404222947E+02  0.33415047253E+03  0.33656799651E+03  0.41800000000E+01 0.  1.
         -5    1    3    3    0  502  0.86458317017E+02 -0.22441991995E+02  0.35244639069E+03  0.36361327575E+03  0.41800000000E+01 0.  1.
        -11    1    1    2    0    0 -0.26317044899E+02 -0.43672732911E+02  0.16114206512E+03  0.16901674356E+03  0.00000000000E+00 0. -1.
         11    1    1    2    0    0 -0.30027776933E+02  0.39710501959E+02  0.77103784297E+02  0.91780089923E+02  0.00000000000E+00 0.  1.
</event>
<event>
 7    1  0.2601031E-009  0.1128564E+03  0.7561462E-02  0.1255370E+00
         -2   -1    0    0    0  501 -0.00000000000E+00  0.00000000000E+00  0.58886643958E+02  0.58886643958E+02  0.00000000000E+00 0.  1.
          2   -1    0    0  501    0  0.00000000000E+00 -0.00000000000E+00 -0.26534205213E+03  0.26534205213E+03  0.00000000000E+00 0. -1.
         25    2    1    2    0    0  0.73883576394E+01 -0.58884380855E+02 -0.92024535662E+02  0.16624298979E+03  0.12508500451E+03 0.  0.
          5    1    3    3  502    0 -0.32846633179E+02 -0.75146081168E+02 -0.91082573230E+02  0.12263499652E+03  0.41800000000E+01 0. -1.
         -5    1    3    3    0  502  0.40234990818E+02  0.16261700313E+02 -0.94196243114E+00  0.43607993263E+02  0.41800000000E+01 0. -1.
        -11    1    1    2    0    0 -0.17117178556E+02  0.77298574007E+02 -0.58899104987E+02  0.98677109369E+02  0.00000000000E+00 0.  1.
         11    1    1    2    0    0  0.97288209163E+01 -0.18414193151E+02 -0.55531767521E+02  0.59308596930E+02  0.00000000000E+00 0. -1.
</event>
<event>
 7    1  0.2601031E-009  0.1239627E+03  0.7561462E-02  0.1236699E+00
          1   -1    0    0  501    0  0.00000000000E+00  0.00000000000E+00  0.84608148262E+02  0.84608148262E+02  0.00000000000E+00 0. -1.
         -1   -1    0    0    0  501 -0.00000000000E+00 -0.00000000000E+00 -0.31804623863E+03  0.31804623863E+03  0.00000000000E+00 0.  1.
         25    2    1    2    0    0 -0.23139112784E+02 -0.10414448386E+03 -0.19932932686E+03  0.25838332710E+03  0.12509304984E+03 0.  0.
          5    1    3    3  502    0 -0.27150403263E+02 -0.83886743039E+02 -0.21480920990E+03  0.23223823783E+03  0.41800000000E+01 0.  1.
         -5    1    3    3    0  502  0.40112904782E+01 -0.20257740818E+02  0.15479883032E+02  0.26145089272E+02  0.41800000000E+01 0.  1.
        -11    1    1    2    0    0 -0.18755605367E+02  0.93496084907E+02 -0.13250380710E+02  0.96274935547E+02  0.00000000000E+00 0.  1.
         11    1    1    2    0    0  0.41894718152E+02  0.10648398950E+02 -0.20858382790E+02  0.47996124237E+02  0.00000000000E+00 0. -1.
</event>
<event>
 7    1  0.2601031E-009  0.1384702E+03  0.7561462E-02  0.1215402E+00
          2   -1    0    0  501    0  0.00000000000E+00  0.00000000000E+00  0.19924535121E+03  0.19924535121E+03  0.00000000000E+00 0. -1.
         -2   -1    0    0    0  501 -0.00000000000E+00 -0.00000000000E+00 -0.12511884336E+03  0.12511884336E+03  0.00000000000E+00 0.  1.
         25    2    1    2    0    0  0.39560527920E+02  0.10615563474E+03  0.25762445287E+02  0.17071538747E+03  0.12508391493E+03 0.  0.
          5    1    3    3  502    0 -0.48870165505E+01  0.78140938768E+02 -0.38710717646E+02  0.87440730229E+02  0.41800000000E+01 0.  1.
         -5    1    3    3    0  502  0.44447544470E+02  0.28014695970E+02  0.64473162933E+02  0.83274657239E+02  0.41800000000E+01 0.  1.
        -11    1    1    2    0    0  0.51877231526E+01 -0.10060483736E+03  0.34188873829E+02  0.10638197622E+03  0.00000000000E+00 0. -1.
         11    1    1    2    0    0 -0.44748251072E+02 -0.55507973812E+01  0.14175188736E+02  0.47266830878E+02  0.00000000000E+00 0.  1.
</event>
<event>
 7    1  0.2601031E-009  0.1696064E+03  0.7561462E-02  0.1178259E+00
         -1   -1    0    0    0  501 -0.00000000000E+00  0.00000000000E+00  0.63382430551E+02  0.63382430551E+02  0.00000000000E+00 0.  1.
          1   -1    0    0  501    0  0.00000000000E+00 -0.00000000000E+00 -0.73520797022E+03  0.73520797022E+03  0.00000000000E+00 0. -1.
         25    2    1    2    0    0 -0.10615159329E+03  0.84971850733E+02 -0.11297830186E+03  0.21656309946E+03  0.12508838147E+03 0.  0.
          5    1    3    3  502    0 -0.73923647984E+02 -0.16759232594E+02 -0.63001387342E+02  0.98652039084E+02  0.41800000000E+01 0. -1.
         -5    1    3    3    0  502 -0.32227945311E+02  0.10173108333E+03 -0.49976914521E+02  0.11791106038E+03  0.41800000000E+01 0. -1.
        -11    1    1    2    0    0  0.32805013864E+02 -0.75787822848E+02 -0.37271241960E+03  0.38175189685E+03  0.00000000000E+00 0. -1.
         11    1    1    2    0    0  0.73346579431E+02 -0.91840278845E+01 -0.18613481820E+03  0.20027540446E+03  0.00000000000E+00 0.  1.
</event>
<event>
 7    1  0.2601031E-009  0.1463993E+03  0.7561462E-02  0.1204969E+00
         -1   -1    0    0    0  501 -0.00000000000E+00  0.00000000000E+00  0.24133297507E+03  0.24133297507E+03  0.00000000000E+00 0.  1.
          1   -1    0    0  501    0  0.00000000000E+00 -0.00000000000E+00 -0.10146731198E+03  0.10146731198E+03  0.00000000000E+00 0. -1.
         25    2    1    2    0    0 -0.14634661680E+02 -0.11252170758E+03  0.69269841760E+02  0.18254222621E+03  0.12509214752E+03 0.  0.
          5    1    3    3  502    0  0.49384024387E+02 -0.70872611243E+02  0.12705594746E+02  0.87410602486E+02  0.41800000000E+01 0.  1.
         -5    1    3    3    0  502 -0.64018686068E+02 -0.41649096334E+02  0.56564247014E+02  0.95131623720E+02  0.41800000000E+01 0.  1.
        -11    1    1    2    0    0 -0.21288464353E+02  0.74660502713E+02  0.74916359024E+02  0.10788813757E+03  0.00000000000E+00 0.  1.
         11    1    1    2    0    0  0.35923126034E+02  0.37861204864E+02 -0.43205376890E+01  0.52369923274E+02  0.00000000000E+00 0. -1.
</event>
<event>
 7    1  0.2601031E-009  0.1345205E+03  0.7561462E-02  0.1220898E+00
          1   -1    0    0  501    0  0.00000000000E+00  0.00000000000E+00  0.33850297979E+03  0.33850297979E+03  0.00000000000E+00 0. -1.
         -1   -1    0    0    0  501 -0.00000000000E+00 -0.00000000000E+00 -0.78949063639E+02  0.78949063639E+02  0.00000000000E+00 0.  1.
         25    2    1    2    0    0 -0.61860410025E+02 -0.52809756593E+02  0.24251197163E+02  0.15117189245E+03  0.12509692156E+03 0.  0.
          5    1    3    3  502    0 -0.91250356122E+02 -0.69770794411E+02  0.16592678968E+02  0.11613518261E+03  0.41800000000E+01 0. -1.
         -5    1    3    3    0  502  0.29389946097E+02  0.16961037818E+02  0.76585181945E+01  0.35036709839E+02  0.41800000000E+01 0. -1.
        -11    1    1    2    0    0  0.21225452237E+02  0.71932108326E+02  0.10966957625E+03  0.13286144657E+03  0.00000000000E+00 0.  1.
         11    1    1    2    0    0  0.40634957788E+02 -0.19122351733E+02  0.12563314274E+03  0.13341870440E+03  0.00000000000E+00 0. -1.
</event>
<event>
 7    1  0.2601031E-009  0.1050323E+03  0.7561462E-02  0.1270056E+00
         -1   -1    0    0    0  501 -0.00000000000E+00  0.00000000000E+00  0.36938609687E+02  0.36938609687E+02  0.00000000000E+00 0.  1.
          1   -1    0    0  501    0  0.00000000000E+00 -0.00000000000E+00 -0.39190643049E+03  0.39190643049E+03  0.00000000000E+00 0. -1.
         25    2    1    2    0    0 -0.45158326983E+02  0.17019490826E+02 -0.15096407717E+03  0.20190943005E+03  0.12509327634E+03 0.  0.
          5    1    3    3  502    0 -0.16291877736E+02 -0.45327124409E+02 -0.11389223163E+03  0.12372908434E+03  0.41800000000E+01 0. -1.
         -5    1    3    3    0  502 -0.28866449247E+02  0.62346615235E+02 -0.37071845536E+02  0.78180345707E+02  0.41800000000E+01 0. -1.
        -11    1    1    2    0    0  0.19793446214E+01 -0.42634514747E+02 -0.54475554575E+02  0.69204087301E+02  0.00000000000E+00 0. -1.
         11    1    1    2    0    0  0.43178982362E+02  0.25615023921E+02 -0.14952818906E+03  0.15773152283E+03  0.00000000000E+00 0.  1.
</event>
<event>
 7    1  0.2601031E-009  0.1088578E+03  0.7561462E-02  0.1262700E+00
         -1   -1    0    0    0  501 -0.00000000000E+00  0.00000000000E+00  0.99141595353E+03  0.99141595353E+03  0.00000000000E+00 0.  1.
          1   -1    0    0  501    0  0.00000000000E+00 -0.00000000000E+00 -0.13401628311E+02  0.13401628311E+02  0.00000000000E+00 0. -1.
         25    2    1    2    0    0  0.31754623353E+02 -0.17543171440E+02  0.68353998739E+03  0.69583736198E+03  0.12508637414E+03 0.  0.
          5    1    3    3  502    0  0.71396980280E+02 -0.36362192602E+02  0.53200795503E+03  0.53802386049E+03  0.41800000000E+01 0. -1.
         -5    1    3    3    0  502 -0.39642356927E+02  0.18819021162E+02  0.15153203236E+03  0.15781350149E+03  0.41800000000E+01 0. -1.
        -11    1    1    2    0    0 -0.53894340753E+01 -0.34576268267E+02  0.10174725022E+03  0.10759678088E+03  0.00000000000E+00 0.  1.
         11    1    1    2    0    0 -0.26365189278E+02  0.52119439707E+02  0.19272708761E+03  0.20138343899E+03  0.00000000000E+00 0. -1.
</event>
<event>
 7    1  0.2601031E-009  0.1265896E+03  0.7561462E-02  0.1232606E+00
         -1   -1    0    0    0  501 -0.00000000000E+00  0.00000000000E+00  0.42365076268E+03  0.42365076268E+03  0.00000000000E+00 0.  1.
          1   -1    0    0  501    0  0.00000000000E+00 -0.00000000000E+00 -0.82196469755E+02  0.82196469755E+02  0.00000000000E+00 0. -1.
         25    2    1    2    0    0  0.35248954514E+02  0.80310995194E+02  0.11801398746E+02  0.15322787740E+03  0.12508862721E+03 0.  0.
          5    1    3    3  502    0 -0.41500151993E+02  0.11480705587E+02 -0.16400853925E+02  0.46265858099E+02  0.41800000000E+01 0. -1.
         -5    1    3    3    0  502  0.76749106507E+02  0.68830289607E+02  0.28202252671E+02  0.10696201930E+03  0.41800000000E+01 0. -1.
        -11    1    1    2    0    0  0.14452789033E+02 -0.40685720858E+02  0.23280455672E+03  0.23677451853E+03  0.00000000000E+00 0.  1.
         11    1    1    2    0    0 -0.49701743547E+02 -0.39625274335E+02  0.96848337454E+02  0.11584483651E+03  0.00000000000E+00 0. -1.
</event>
<event>
 7    1  0.2601031E-009  0.1017037E+03  0.7561462E-02  0.1276754E+00
          3   -1    0    0  501    0  0.00000000000E+00  0.00000000000E+00  0.13339316873E+03  0.13339316873E+03  0.00000000000E+00 0. -1.
         -3   -1    0    0    0  501 -0.00000000000E+00 -0.00000000000E+00 -0.11944380273E+03  0.11944380273E+03  0.00000000000E+00 0.  1.
         25    2    1    2    0    0  0.57330877979E+02 -0.62191932409E+01 -0.22205760404E+02  0.13952035002E+03  0.12508926548E+03 0.  0.
          5    1    3    3  502    0  0.88240015119E+02 -0.32501814157E+02 -0.23526709161E+01  0.94157716901E+02  0.41800000000E+01 0.  1.
         -5    1    3    3    0  502 -0.30909137140E+02  0.26282620916E+02 -0.19853089488E+02  0.45362633115E+02  0.41800000000E+01 0.  1.
        -11    1    1    2    0    0 -0.11128429626E+02 -0.14147085800E+02  0.56184239370E+02  0.58997040062E+02  0.00000000000E+00 0. -1.
         11    1    1    2    0    0 -0.46202448352E+02  0.20366279041E+02 -0.20029112967E+02  0.54319581386E+02  0.00000000000E+00 0.  1.
</event>
<event>
 7    1  0.2601031E-009  0.2140066E+03  0.7561462E-02  0.1138432E+00
          3   -1    0    0  501    0  0.00000000000E+00  0.00000000000E+00  0.25443028813E+03  0.25443028813E+03  0.00000000000E+00 0. -1.
         -3   -1    0    0    0  501 -0.00000000000E+00 -0.00000000000E+00 -0.20360189555E+03  0.20360189555E+03  0.00000000000E+00 0.  1.
         25    2    1    2    0    0  0.81094728456E+02 -0.18173867222E+03  0.12428901507E+02  0.23538717161E+03  0.12508934008E+03 0.  0.
          5    1    3    3  502    0 -0.22167948639E+02 -0.62603956516E+02 -0.28590194758E+02  0.72426134473E+02  0.41800000000E+01 0.  1.
         -5    1    3    3    0  502  0.10326267709E+03 -0.11913471570E+03  0.41019096265E+02  0.16296103714E+03  0.41800000000E+01 0.  1.
        -11    1    1    2    0    0 -0.86218913744E+02  0.16389395470E+03  0.59525335129E+02  0.19452042308E+03  0.00000000000E+00 0. -1.
         11    1    1    2    0    0  0.51241852877E+01  0.17844717522E+02 -0.21125844055E+02  0.28124588980E+02  0.00000000000E+00 0.  1.
</event>
<event>
 7    1  0.2601031E-009  0.8504172E+02  0.7561462E-02  0.1315323E+00
          1   -1    0    0  501    0  0.00000000000E+00  0.00000000000E+00  0.46715406416E+02  0.46715406416E+02  0.00000000000E+00 0. -1.
         -1   -1    0    0    0  501 -0.00000000000E+00 -0.00000000000E+00 -0.35869861961E+03  0.35869861961E+03  0.00000000000E+00 0.  1.
         25    2    1    2    0    0 -0.30357216313E+02  0.52470945508E+02 -0.23940491020E+03  0.27683440319E+03  0.12509122692E+03 0.  0.
          5    1    3    3  502    0  0.20312553790E+02  0.33496373469E+02 -0.93838633055E+01  0.40498594637E+02  0.41800000000E+01 0.  1.
         -5    1    3    3    0  502 -0.50669770103E+02  0.18974572039E+02 -0.23002104690E+03  0.23633580855E+03  0.41800000000E+01 0.  1.
        -11    1    1    2    0    0  0.32356525302E+02 -0.99499972642E+01  0.10320706517E+02  0.35390170362E+02  0.00000000000E+00 0. -1.
         11    1    1    2    0    0 -0.19993089891E+01 -0.42520948244E+02 -0.82899009510E+02  0.93189452481E+02  0.00000000000E+00 0.  1.
</event>
<event>
 7    1  0.2601031E-009  0.1968886E+03  0.7561462E-02  0.1152391E+00
         -2   -1    0    0    0  501 -0.00000000000E+00  0.00000000000E+00  0.13579115204E+03  0.13579115204E+03  0.00000000000E+00 0.  1.
          2   -1    0    0  501    0  0.00000000000E+00 -0.00000000000E+00 -0.32817690029E+03  0.32817690029E+03  0.00000000000E+00 0. -1.
         25    2    1    2    0    0 -0.98116833583E+02  0.13595013941E+03 -0.17402365808E+03  0.27210461638E+03  0.12508930909E+03 0.  0.
          5    1    3    3  502    0 -0.10729515201E+03  0.43274413956E+02 -0.10213619888E+03  0.15438328948E+03  0.41800000000E+01 0.  1.
         -5    1    3    3    0  502  0.91783184315E+01  0.92675725453E+02 -0.71887459200E+02  0.11772132690E+03  0.41800000000E+01 0.  1.
        -11    1    1    2    0    0  0.47956266138E+02 -0.12438421412E+03 -0.34889083292E+02  0.13779870941E+03  0.00000000000E+00 0. -1.
         11    1    1    2    0    0  0.50160567444E+02 -0.11565925292E+02  0.16526993116E+02  0.54064726538E+02  0.00000000000E+00 0.  1.
</event>
<event>
 7    1  0.2601031E-009  0.1297568E+03  0.7561462E-02  0.1227817E+00
          2   -1    0    0  501    0  0.00000000000E+00  0.00000000000E+00  0.62206875671E+02  0.62206875671E+02  0.00000000000E+00 0.  1.
         -2   -1    0    0    0  501 -0.00000000000E+00 -0.00000000000E+00 -0.29457272943E+03  0.29457272943E+03  0.00000000000E+00 0. -1.
         25    2    1    2    0    0  0.75467419924E+02  0.14555338532E+02 -0.99078736921E+02  0.17711502054E+03  0.12508375211E+03 0.  0.
          5    1    3    3  502    0  0.10665753365E+03  0.13229949966E+02 -0.49553230766E+02  0.11842236334E+03  0.41800000000E+01 0.  1.
         -5    1    3    3    0  502 -0.31190113728E+02  0.13253885662E+01 -0.49525506155E+02  0.58692657199E+02  0.41800000000E+01 0.  1.
        -11    1    1    2    0    0 -0.64333319632E+02 -0.51162710099E+02 -0.92183641843E+02  0.12350798656E+03  0.00000000000E+00 0. -1.
         11    1    1    2    0    0 -0.11134100292E+02  0.36607371566E+02 -0.41103474991E+02  0.56156597997E+02  0.00000000000E+00 0.  1.
</event>
<event>
 7    1  0.2601031E-009  0.1059009E+03  0.7561462E-02  0.1268355E+00
          4   -1    0    0  501    0  0.00000000000E+00  0.00000000000E+00  0.14301847546E+03  0.14301847546E+03  0.00000000000E+00 0. -1.
         -4   -1    0    0    0  501 -0.00000000000E+00 -0.00000000000E+00 -0.85942359525E+02  0.85942359525E+02  0.00000000000E+00 0.  1.
         25    2    1    2    0    0  0.12050436660E+02  0.18428435503E+02  0.44158405991E+02  0.13447417108E+03  0.12509403506E+03 0.  0.
          5    1    3    3  502    0 -0.45333938870E+02 -0.25784399380E+02  0.65023416164E+01  0.52723373482E+02  0.41800000000E+01 0.  1.
         -5    1    3    3    0  502  0.57384375531E+02  0.44212834883E+02  0.37656064375E+02  0.81750797596E+02  0.41800000000E+01 0.  1.
        -11    1    1    2    0    0  0.36387634218E+02 -0.56481163206E+01  0.22959071152E+02  0.43394470732E+02  0.00000000000E+00 0.  1.
         11    1    1    2    0    0 -0.48438070878E+02 -0.12780319183E+02 -0.10041361205E+02  0.51092193177E+02  0.00000000000E+00 0. -1.
</event>
<event>
 7    1  0.2651375E-009  0.9240794E+02  0.7561462E-02  0.1297123E+00
          1   -1    0    0  501    0  0.00000000000E+00  0.00000000000E+00  0.10597232625E+04  0.10597232625E+04  0.00000000000E+00 0. -1.
         -1   -1    0    0    0  501 -0.00000000000E+00 -0.00000000000E+00 -0.18174098596E+02  0.18174098596E+02  0.00000000000E+00 0.  1.
         25    2    1    2    0    0  0.19172479907E+02 -0.63132793494E+02  0.78582253810E+03  0.79844457377E+03  0.12507334805E+03 0.  0.
          5    1    3    3  502    0 -0.30515761711E+01 -0.38609214040E+02  0.58055981909E+02  0.69913896768E+02  0.41800000000E+01 0. -1.
         -5    1    3    3    0  502  0.22224056078E+02 -0.24523579453E+02  0.72776655619E+03  0.72853067700E+03  0.41800000000E+01 0. -1.
        -11    1    1    2    0    0  0.30375538435E+02 -0.22592619040E+01  0.62378630998E+02  0.69418089896E+02  0.00000000000E+00 0.  1.
         11    1    1    2    0    0 -0.49548018342E+02  0.65392055398E+02  0.19334799482E+03  0.21003469744E+03  0.00000000000E+00 0. -1.
</event>
<event>
 7    1  0.2601031E-009  0.2491221E+03  0.7561462E-02  0.1113861E+00
          1   -1    0    0  501    0  0.00000000000E+00  0.00000000000E+00  0.13315188252E+04  0.13315188252E+04  0.00000000000E+00 0. -1.
         -1   -1    0    0    0  501 -0.00000000000E+00 -0.00000000000E+00 -0.51513532388E+02  0.51513532388E+02  0.00000000000E+00 0.  1.
         25    2    1    2    0    0 -0.23301163479E+03 -0.24801236774E+02  0.77607126227E+03  0.82027025368E+03  0.12508861519E+03 0.  0.
          5    1    3    3  502    0 -0.12853240032E+03 -0.71501603725E+02  0.36490624878E+03  0.39345533427E+03  0.41800000000E+01 0. -1.
         -5    1    3    3    0  502 -0.10447923447E+03  0.46700366951E+02  0.41116501349E+03  0.42681491941E+03  0.41800000000E+01 0. -1.
        -11    1    1    2    0    0  0.85051518770E+02 -0.66790787764E+01  0.27852942411E+03  0.29130226747E+03  0.00000000000E+00 0.  1.
         11    1    1    2    0    0  0.14796011602E+03  0.31480315551E+02  0.22540460641E+03  0.27145983642E+03  0.00000000000E+00 0. -1.
</event>
<event>
 7    1  0.2601031E-009  0.8349067E+02  0.7561462E-02  0.1319427E+00
         -1   -1    0    0    0  501 -0.00000000000E+00  0.00000000000E+00  0.37361768878E+02  0.37361768878E+02  0.00000000000E+00 0.  1.
          1   -1    0    0  501    0  0.00000000000E+00 -0.00000000000E+00 -0.32755092265E+03  0.32755092265E+03  0.00000000000E+00 0. -1.
         25    2    1    2    0    0 -0.10464189246E+02 -0.20641111760E+02 -0.16218734566E+03  0.20612562323E+03  0.12508989850E+03 0.  0.
          5    1    3    3  502    0  0.36147599590E+02 -0.19169022572E+02 -0.15297306718E+03  0.15840559354E+03  0.41800000000E+01 0.  1.
         -5    1    3    3    0  502 -0.46611788837E+02 -0.14720891885E+01 -0.92142784807E+01  0.47720029684E+02  0.41800000000E+01 0.  1.
        -11    1    1    2    0    0  0.11922248507E+02  0.49103897491E+02 -0.11836852487E+03  0.12870291543E+03  0.00000000000E+00 0. -1.
         11    1    1    2    0    0 -0.14580592610E+01 -0.28462785731E+02 -0.96332832380E+01  0.30084152877E+02  0.00000000000E+00 0.  1.
</event>
<event>
 7    1  0.2601031E-009  0.1069775E+03  0.7561462E-02  0.1266272E+00
         -3   -1    0    0    0  501 -0.00000000000E+00  0.00000000000E+00  0.62692465536E+03  0.62692465536E+03  0.00000000000E+00 0.  1.
          3   -1    0    0  501    0  0.00000000000E+00 -0.00000000000E+00 -0.22828394994E+02  0.22828394994E+02  0.00000000000E+00 0. -1.
         25    2    1    2    0    0  0.40840756062E+02 -0.97381373566E+01  0.39834712407E+03  0.41963350970E+03  0.12509617314E+03 0.  0.
          5    1    3    3  502    0  0.73939731660E+02 -0.23671726691E+02  0.35389413662E+03  0.36233405429E+03  0.41800000000E+01 0. -1.
         -5    1    3    3    0  502 -0.33098975598E+02  0.13933589334E+02  0.44452987451E+02  0.57299455414E+02  0.41800000000E+01 0. -1.
        -11    1    1    2    0    0  0.15760348876E+02 -0.27924340564E+02  0.93954523471E+02  0.99275424317E+02  0.00000000000E+00 0. -1.
         11    1    1    2    0    0 -0.56601104939E+02  0.37662477921E+02  0.11179461283E+03  0.13084411634E+03  0.00000000000E+00 0.  1.
</event>
<event>
 7    1  0.2601031E-009  0.2970443E+03  0.7561462E-02  0.1086728E+00
          2   -1    0    0  501    0  0.00000000000E+00  0.00000000000E+00  0.14678585256E+04  0.14678585256E+04  0.00000000000E+00 0. -1.
         -2   -1    0    0    0  501 -0.00000000000E+00 -0.00000000000E+00 -0.11433662422E+03  0.11433662422E+03  0.00000000000E+00 0.  1.
         25    2    1    2    0    0 -0.11949573788E+03 -0.26151378525E+03  0.12074211635E+04  0.12474713294E+04  0.12510060117E+03 0.  0.
          5    1    3    3  502    0 -0.92897239752E+02 -0.13652824288E+03  0.45055495217E+03  0.47988237682E+03  0.41800000000E+01 0. -1.
         -5    1    3    3    0  502 -0.26598498126E+02 -0.12498554237E+03  0.75686621128E+03  0.76758895255E+03  0.41800000000E+01 0. -1.
        -11    1    1    2    0    0  0.11040954195E+03  0.13586489260E+03  0.80524956346E+02  0.19270133520E+03  0.00000000000E+00 0.  1.
         11    1    1    2    0    0  0.90861959245E+01  0.12564889266E+03  0.65575781554E+02  0.14202248522E+03  0.00000000000E+00 0. -1.
</event>
<event>
 7    1  0.2601031E-009  0.7876398E+02  0.7561462E-02  0.1332596E+00
         -2   -1    0    0    0  501 -0.00000000000E+00  0.00000000000E+00  0.47465281003E+02  0.47465281003E+02  0.00000000000E+00 0. -1.
          2   -1    0    0  501    0  0.00000000000E+00 -0.00000000000E+00 -0.26712699762E+03  0.26712699762E+03  0.00000000000E+00 0.  1.
         25    2    1    2    0    0 -0.89643802788E+01  0.15303440240E+02 -0.17685851805E+03  0.21734973928E+03  0.12508964130E+03 0.  0.
          5    1    3    3  502    0 -0.49358359314E+02 -0.23210253557E+02 -0.14007072747E+03  0.15037368320E+03  0.41800000000E+01 0. -1.
         -5    1    3    3    0  502  0.40393979035E+02  0.38513693797E+02 -0.36787790572E+02  0.66976056075E+02  0.41800000000E+01 0. -1.
        -11    1    1    2    0    0  0.19004514456E+02  0.86526337149E+01 -0.61689139945E+02  0.65127487492E+02  0.00000000000E+00 0.  1.
         11    1    1    2    0    0 -0.10040134178E+02 -0.23956073955E+02  0.18885941378E+02  0.32115051851E+02  0.00000000000E+00 0. -1.
</event>
<event>
 7    1  0.2601031E-009  0.7535617E+02  0.7561462E-02  0.1342772E+00
         -2   -1    0    0    0  501 -0.00000000000E+00  0.00000000000E+00  0.12447091522E+02  0.12447091522E+02  0.00000000000E+00 0.  1.
          2   -1    0    0  501    0  0.00000000000E+00 -0.00000000000E+00 -0.92723931695E+03  0.92723931695E+03  0.00000000000E+00 0. -1.
         25    2    1    2    0    0  0.60681974025E+01  0.18045134871E+02 -0.58714565018E+03  0.60062479082E+03  0.12509066676E+03 0.  0.
          5    1    3    3  502    0 -0.20779453307E+02 -0.12861189865E+02 -0.52794234237E+03  0.52852415758E+03  0.41800000000E+01 0.  1.
         -5    1    3    3    0  502  0.26847650710E+02  0.30906324735E+02 -0.59203307809E+02  0.72100633235E+02  0.41800000000E+01 0.  1.
        -11    1    1    2    0    0  0.32220052292E+02 -0.30638663117E+02 -0.21141747761E+03  0.21604214702E+03  0.00000000000E+00 0. -1.
         11    1    1    2    0    0 -0.38288249695E+02  0.12593528247E+02 -0.11622909764E+03  0.12301947064E+03  0.00000000000E+00 0.  1.
</event>
<event>
 7    1  0.2601031E-009  0.8119348E+02  0.7561462E-02  0.1325698E+00
         -2   -1    0    0    0  501 -0.00000000000E+00  0.00000000000E+00  0.70332447407E+02  0.70332447407E+02  0.00000000000E+00 0.  1.
          2   -1    0    0  501    0  0.00000000000E+00 -0.00000000000E+00 -0.16994378016E+03  0.16994378016E+03  0.00000000000E+00 0. -1.
         25    2    1    2    0    0 -0.50509704595E+01 -0.40724895901E+01 -0.42824127849E+02  0.13237784745E+03  0.12509153087E+03 0.  0.
          5    1    3    3  502    0  0.44246261207E+02  0.47375190649E+01 -0.63821097374E+02  0.77915214096E+02  0.41800000000E+01 0. -1.
         -5    1    3    3    0  502 -0.49297231666E+02 -0.88100086550E+01  0.20996969525E+02  0.54462633353E+02  0.41800000000E+01 0. -1.
        -11    1    1    2    0    0  0.17231756900E+02  0.32348256322E+02  0.67747511608E+01  0.37272515158E+02  0.00000000000E+00 0.  1.
         11    1    1    2    0    0 -0.12180786440E+02 -0.28275766732E+02 -0.63561956068E+02  0.70625864963E+02  0.00000000000E+00 0. -1.
</event>
<event>
 7    1  0.2601031E-009  0.1004016E+03  0.7561462E-02  0.1279454E+00
          1   -1    0    0  501    0  0.00000000000E+00  0.00000000000E+00  0.10507936471E+03  0.10507936471E+03  0.00000000000E+00 0. -1.
         -1   -1    0    0    0  501 -0.00000000000E+00 -0.00000000000E+00 -0.21561815013E+03  0.21561815013E+03  0.00000000000E+00 0.  1.
         25    2    1    2    0    0 -0.76021667728E+02 -0.26972266162E+02  0.97867337144E+01  0.14916573365E+03  0.12509132197E+03 0.  0.
          5    1    3    3  502    0 -0.27267357997E+02  0.17355579857E+01 -0.55906435881E+02  0.62366040010E+02  0.41800000000E+01 0.  1.
         -5    1    3    3    0  502 -0.48754309732E+02 -0.28707824147E+02  0.65693169595E+02  0.86799693641E+02  0.41800000000E+01 0.  1.
        -11    1    1    2    0    0  0.39017245833E+02  0.56793779673E+02 -0.95926896030E+02  0.11810947576E+03  0.00000000000E+00 0. -1.
         11    1    1    2    0    0  0.37004421895E+02 -0.29821513511E+02 -0.24398623105E+02  0.53422305429E+02  0.00000000000E+00 0.  1.
</event>
<event>
 7    1  0.2601031E-009  0.1111615E+03  0.7561462E-02  0.1258434E+00
         -1   -1    0    0    0  501 -0.00000000000E+00  0.00000000000E+00  0.34992622116E+02  0.34992622116E+02  0.00000000000E+00 0.  1.
          1   -1    0    0  501    0  0.00000000000E+00 -0.00000000000E+00 -0.40539846015E+03  0.40539846015E+03  0.00000000000E+00 0. -1.
         25    2    1    2    0    0  0.14529137001E+02 -0.37032937794E+02 -0.26282168796E+03  0.29377597645E+03  0.12508617179E+03 0.  0.
          5    1    3    3  502    0 -0.53607572612E+02 -0.23478458719E+02 -0.89660064625E+02  0.10715133902E+03  0.41800000000E+01 0. -1.
         -5    1    3    3    0  502  0.68136709614E+02 -0.13554479075E+02 -0.17316162333E+03  0.18662463743E+03  0.41800000000E+01 0. -1.
        -11    1    1    2    0    0 -0.48821846764E+02  0.34270086906E+02 -0.43315414491E+02  0.73717275523E+02  0.00000000000E+00 0.  1.
         11    1    1    2    0    0  0.34292709762E+02  0.27628508881E+01 -0.64268735584E+02  0.72897830293E+02  0.00000000000E+00 0. -1.
</event>
<event>
 7    1  0.2601031E-009  0.1050887E+03  0.7561462E-02  0.1269945E+00
          1   -1    0    0  501    0  0.00000000000E+00  0.00000000000E+00  0.32477228865E+03  0.32477228865E+03  0.00000000000E+00 0. -1.
         -1   -1    0    0    0  501 -0.00000000000E+00 -0.00000000000E+00 -0.46915437407E+02  0.46915437407E+02  0.00000000000E+00 0.  1.
         25    2    1    2    0    0  0.20533737445E+02  0.36813729493E+02  0.22111680951E+03  0.25752128280E+03  0.12509069746E+03 0.  0.
          5    1    3    3  502    0  0.69865762354E+02  0.42915759515E+02  0.13962414547E+03  0.16197333596E+03  0.41800000000E+01 0. -1.
         -5    1    3    3    0  502 -0.49332024909E+02 -0.61020300213E+01  0.81492664048E+02  0.95547946842E+02  0.41800000000E+01 0. -1.
        -11    1    1    2    0    0 -0.43674988725E+02 -0.14426839653E+02 -0.32197492318E+01  0.46108623137E+02  0.00000000000E+00 0.  1.
         11    1    1    2    0    0  0.23141251280E+02 -0.22386889840E+02  0.59959790963E+02  0.68057820123E+02  0.00000000000E+00 0. -1.
</event>
<event>
 7    1  0.2601031E-009  0.1507000E+03  0.7561462E-02  0.1199616E+00
         -1   -1    0    0    0  501 -0.00000000000E+00  0.00000000000E+00  0.26667595305E+02  0.26667595305E+02  0.00000000000E+00 0.  1.
          1   -1    0    0  501    0  0.00000000000E+00 -0.00000000000E+00 -0.11571408655E+04  0.11571408655E+04  0.00000000000E+00 0. -1.
         25    2    1    2    0    0 -0.11165056419E+03 -0.20864713255E+02 -0.86570823761E+03  0.88204231255E+03  0.12508678471E+03 0.  0.
          5    1    3    3  502    0 -0.48893101746E+01 -0.46956915599E+02 -0.43256765571E+03  0.43515641607E+03  0.41800000000E+01 0. -1.
         -5    1    3    3    0  502 -0.10676125402E+03  0.26092202345E+02 -0.43314058190E+03  0.44688589648E+03  0.41800000000E+01 0. -1.
        -11    1    1    2    0    0  0.86872457749E+01  0.38579468934E+02 -0.87143763695E+02  0.95696808794E+02  0.00000000000E+00 0. -1.
         11    1    1    2    0    0  0.10296331842E+03 -0.17714755679E+02 -0.17762126893E+03  0.20606933950E+03  0.00000000000E+00 0.  1.
</event>
<event>
 7    1  0.2601031E-009  0.2178940E+03  0.7561462E-02  0.1135463E+00
         -1   -1    0    0    0  501 -0.00000000000E+00  0.00000000000E+00  0.61383081304E+02  0.61383081304E+02  0.00000000000E+00 0.  1.
          1   -1    0    0  501    0  0.00000000000E+00 -0.00000000000E+00 -0.85279392232E+03  0.85279392232E+03  0.00000000000E+00 0. -1.
         25    2    1    2    0    0 -0.26886026867E+02 -0.19686838737E+03 -0.44747015983E+03  0.50532809071E+03  0.12508762903E+03 0.  0.
          5    1    3    3  502    0 -0.42736318662E+02 -0.29275140919E+02 -0.43882029908E+02  0.68018613316E+02  0.41800000000E+01 0. -1.
         -5    1    3    3    0  502  0.15850291794E+02 -0.16759324645E+03 -0.40358812992E+03  0.43730947740E+03  0.41800000000E+01 0. -1.
        -11    1    1    2    0    0 -0.23529378465E+02  0.12760469893E+03 -0.25029188544E+03  0.28192661946E+03  0.00000000000E+00 0. -1.
         11    1    1    2    0    0  0.50415405333E+02  0.69263688441E+02 -0.93648795737E+02  0.12692229345E+03  0.00000000000E+00 0.  1.
</event>
<event>
 7    1  0.2601031E-009  0.1133972E+03  0.7561462E-02  0.1254405E+00
         -3   -1    0    0    0  501 -0.00000000000E+00  0.00000000000E+00  0.86948729398E+02  0.86948729398E+02  0.00000000000E+00 0.  1.
          3   -1    0    0  501    0  0.00000000000E+00 -0.00000000000E+00 -0.21723975963E+03  0.21723975963E+03  0.00000000000E+00 0. -1.
         25    2    1    2    0    0  0.81396831108E+02  0.20751040825E+02 -0.81351322266E+02  0.17123659794E+03  0.12509150663E+03 0.  0.
          5    1    3    3  502    0  0.10062749462E+03  0.39549619261E+02 -0.91985724689E+02  0.14201729122E+03  0.41800000000E+01 0. -1.
         -5    1    3    3    0  502 -0.19230663516E+02 -0.18798578436E+02  0.10634402423E+02  0.29219306723E+02  0.41800000000E+01 0. -1.
        -11    1    1    2    0    0 -0.33404477824E+02  0.93976828037E+01  0.22803123773E+02  0.41522982005E+02  0.00000000000E+00 0.  1.
         11    1    1    2    0    0 -0.47992353284E+02 -0.30148723629E+02 -0.71742831740E+02  0.91428909084E+02  0.00000000000E+00 0. -1.
</event>
<event>
 7    1  0.2601031E-009  0.1330899E+03  0.7561462E-02  0.1222942E+00
          2   -1    0    0  501    0  0.00000000000E+00  0.00000000000E+00  0.44890649225E+03  0.44890649225E+03  0.00000000000E+00 0. -1.
         -2   -1    0    0    0  501 -0.00000000000E+00 -0.00000000000E+00 -0.43768735100E+02  0.43768735100E+02  0.00000000000E+00 0.  1.
         25    2    1    2    0    0 -0.83074616701E+02 -0.28096669294E+02  0.24032656004E+03  0.28477329696E+03  0.12509260744E+03 0.  0.
          5    1    3    3  502    0 -0.60847629961E+02 -0.70528148159E+02  0.20468155115E+03  0.22491923781E+03  0.41800000000E+01 0.  1.
         -5    1    3    3    0  502 -0.22226986740E+02  0.42431478865E+02  0.35645008889E+02  0.59854059152E+02  0.41800000000E+01 0.  1.
        -11    1    1    2    0    0  0.15129502042E+02  0.50965931596E+02  0.52912325141E+02  0.75007614062E+02  0.00000000000E+00 0.  1.
         11    1    1    2    0    0  0.67945114659E+02 -0.22869262302E+02  0.11189887197E+03  0.13289431633E+03  0.00000000000E+00 0. -1.
</event>
<event>
 7    1  0.2601031E-009  0.1159201E+03  0.7561462E-02  0.1249984E+00
         -2   -1    0    0    0  501 -0.00000000000E+00  0.00000000000E+00  0.31702700374E+03  0.31702700374E+03  0.00000000000E+00 0. -1.
          2   -1    0    0  501    0  0.00000000000E+00 -0.00000000000E+00 -0.70505391156E+02  0.70505391156E+02  0.00000000000E+00 0.  1.
         25    2    1    2    0    0 -0.53520691609E+02  0.86726744436E+02  0.11721708367E+03  0.19944070747E+03  0.12510299142E+03 0.  0.
          5    1    3    3  502    0 -0.21298632341E+02 -0.11137271527E+02 -0.17329461838E+02  0.29924124119E+02  0.41800000000E+01 0. -1.
         -5    1    3    3    0  502 -0.32222059268E+02  0.97864015963E+02  0.13454654550E+03  0.16951658335E+03  0.41800000000E+01 0. -1.
        -11    1    1    2    0    0  0.50525575070E+02 -0.64663867577E+02  0.14084913219E+03  0.16301143378E+03  0.00000000000E+00 0. -1.
         11    1    1    2    0    0  0.29951165390E+01 -0.22062876859E+02 -0.11544603267E+02  0.25080253646E+02  0.00000000000E+00 0.  1.
</event>
<event>
 7    1  0.2601031E-009  0.8303645E+02  0.7561462E-02  0.1320649E+00
         -1   -1    0    0    0  501 -0.00000000000E+00  0.00000000000E+00  0.22191886126E+03  0.22191886126E+03  0.00000000000E+00 0.  1.
          1   -1    0    0  501    0  0.00000000000E+00 -0.00000000000E+00 -0.58042507807E+02  0.58042507807E+02  0.00000000000E+00 0. -1.
         25    2    1    2    0    0  0.13643641978E+02 -0.12222916276E+02  0.13040166955E+03  0.18162452003E+03  0.12508925695E+03 0.  0.
          5    1    3    3  502    0  0.61671083407E+02 -0.11606202519E+02  0.11488965588E+03  0.13097760073E+03  0.41800000000E+01 0. -1.
         -5    1    3    3    0  502 -0.48027441429E+02 -0.61671375645E+00  0.15512013674E+02  0.50646919297E+02  0.41800000000E+01 0. -1.
        -11    1    1    2    0    0  0.13002572119E+02  0.22841538323E+02 -0.23044832156E+02  0.34955214829E+02  0.00000000000E+00 0. -1.
         11    1    1    2    0    0 -0.26646214097E+02 -0.10618622047E+02  0.56519516058E+02  0.63381634211E+02  0.00000000000E+00 0.  1.
</event>
<event>
 7    1  0.2601031E-009  0.1431385E+03  0.7561462E-02  0.1209167E+00
          2   -1    0    0  501    0  0.00000000000E+00  0.00000000000E+00  0.23103342714E+03  0.23103342714E+03  0.00000000000E+00 0. -1.
         -2   -1    0    0    0  501 -0.00000000000E+00 -0.00000000000E+00 -0.12683504978E+03  0.12683504978E+03  0.00000000000E+00 0.  1.
         25    2    1    2    0    0  0.11936838154E+03  0.52304489998E+02  0.75321328641E+02  0.19571577527E+03  0.12508713745E+03 0.  0.
          5    1    3    3  502    0  0.41282756334E+02  0.25733024628E+02 -0.33419475510E+02  0.59167459556E+02  0.41800000000E+01 0. -1.
         -5    1    3    3    0  502  0.78085625209E+02  0.26571465371E+02  0.10874080415E+03  0.13654831571E+03  0.41800000000E+01 0. -1.
        -11    1    1    2    0    0 -0.24445411471E+02 -0.54695676153E+02 -0.76908759901E+01  0.60401528998E+02  0.00000000000E+00 0.  1.
         11    1    1    2    0    0 -0.94922970072E+02  0.23911861547E+01  0.36567924711E+02  0.10175117265E+03  0.00000000000E+00 0. -1.
</event>
<event>
 7    1  0.2601031E-009  0.9135651E+02  0.7561462E-02  0.1299600E+00
         -3   -1    0    0    0  501 -0.00000000000E+00  0.00000000000E+00  0.11699379849E+03  0.11699379849E+03  0.00000000000E+00 0.  1.
          3   -1    0    0  501    0  0.00000000000E+00 -0.00000000000E+00 -0.10663878959E+03  0.10663878959E+03  0.00000000000E+00 0. -1.
         25    2    1    2    0    0  0.15787712844E+02  0.14122719554E+02  0.37067697640E+02  0.13217372279E+03  0.12508867136E+03 0.  0.
          5    1    3    3  502    0  0.52565434770E+02 -0.92928397206E+01 -0.22631858201E+02  0.58130501531E+02  0.41800000000E+01 0.  1.
         -5    1    3    3    0  502 -0.36777721926E+02  0.23415559274E+02  0.59699555841E+02  0.74043221254E+02  0.41800000000E+01 0.  1.
        -11    1    1    2    0    0 -0.48310966371E+02 -0.20058314106E+02 -0.65068760830E+01  0.52712663307E+02  0.00000000000E+00 0. -1.
         11    1    1    2    0    0  0.32523253527E+02  0.59355945521E+01 -0.20205812657E+02  0.38746201979E+02  0.00000000000E+00 0.  1.
</event>
<event>
 7    1  0.2601031E-009  0.2585229E+03  0.7561462E-02  0.1108034E+00
          2   -1    0    0  501    0  0.00000000000E+00  0.00000000000E+00  0.42817847050E+03  0.42817847050E+03  0.00000000000E+00 0. -1.
         -2   -1    0    0    0  501 -0.00000000000E+00 -0.00000000000E+00 -0.18782070604E+03  0.18782070604E+03  0.00000000000E+00 0.  1.
         25    2    1    2    0    0  0.23718419821E+03  0.67125724208E+02  0.27602860423E+02  0.27779761366E+03  0.12508952602E+03 0.  0.
          5    1    3    3  502    0  0.22609344938E+03  0.47229861886E+02  0.59338193276E+02  0.23851079910E+03  0.41800000000E+01 0.  1.
         -5    1    3    3    0  502  0.11090748839E+02  0.19895862322E+02 -0.31735332853E+02  0.39286814565E+02  0.41800000000E+01 0.  1.
        -11    1    1    2    0    0 -0.18112962092E+03 -0.90092625189E+02  0.16183235344E+03  0.25906433817E+03  0.00000000000E+00 0.  1.
         11    1    1    2    0    0 -0.56054577292E+02  0.22966900980E+02  0.50922550593E+02  0.79137224711E+02  0.00000000000E+00 0. -1.
</event>
<event>
 7    1  0.2601031E-009  0.1190934E+03  0.7561462E-02  0.1244600E+00
         -1   -1    0    0    0  501 -0.00000000000E+00  0.00000000000E+00  0.17203740218E+03  0.17203740218E+03  0.00000000000E+00 0.  1.
          1   -1    0    0  501    0  0.00000000000E+00 -0.00000000000E+00 -0.15533763972E+03  0.15533763972E+03  0.00000000000E+00 0. -1.
         25    2    1    2    0    0 -0.64846874750E+02  0.84920629153E+01  0.11246232330E+03  0.18047865063E+03  0.12509011502E+03 0.  0.
          5    1    3    3  502    0 -0.79026889136E+02  0.45900113412E+02  0.45044140905E+02  0.10197311728E+03  0.41800000000E+01 0.  1.
         -5    1    3    3    0  502  0.14180014386E+02 -0.37408050497E+02  0.67418182392E+02  0.78505533353E+02  0.41800000000E+01 0.  1.
        -11    1    1    2    0    0  0.73643391465E+02 -0.32807573487E+02 -0.51596766468E+02  0.95717878657E+02  0.00000000000E+00 0.  1.
         11    1    1    2    0    0 -0.87965167147E+01  0.24315510572E+02 -0.44165794368E+02  0.51178512608E+02  0.00000000000E+00 0. -1.
</event>
<event>
 7    1  0.2601031E-009  0.1239834E+03  0.7561462E-02  0.1236667E+00
          3   -1    0    0  501    0  0.00000000000E+00  0.00000000000E+00  0.53055414645E+03  0.53055414645E+03  0.00000000000E+00 0. -1.
         -3   -1    0    0    0  501 -0.00000000000E+00 -0.00000000000E+00 -0.37568396209E+02  0.37568396209E+02  0.00000000000E+00 0.  1.
         25    2    1    2    0    0 -0.38654604147E+02  0.70714413793E+02  0.36856475073E+03  0.39747047902E+03  0.12509236378E+03 0.  0.
          5    1    3    3  502    0  0.30719980710E+01 -0.29631584511E+02  0.32680841884E+02  0.44418214721E+02  0.41800000000E+01 0.  1.
         -5    1    3    3    0  502 -0.41726602218E+02  0.10034599830E+03  0.33588390884E+03  0.35305226430E+03  0.41800000000E+01 0.  1.
        -11    1    1    2    0    0 -0.93405399200E+01  0.10957290774E+02  0.15837723308E+00  0.14399062138E+02  0.00000000000E+00 0.  1.
         11    1    1    2    0    0  0.47995144067E+02 -0.81671704568E+02  0.12426262228E+03  0.15625300149E+03  0.00000000000E+00 0. -1.
</event>
<event>
 7    1  0.2601031E-009  0.1097014E+03  0.7561462E-02  0.1261124E+00
         -1   -1    0    0    0  501 -0.00000000000E+00  0.00000000000E+00  0.10006921177E+03  0.10006921177E+03  0.00000000000E+00 0.  1.
          1   -1    0    0  501    0  0.00000000000E+00 -0.00000000000E+00 -0.24389206687E+03  0.24389206687E+03  0.00000000000E+00 0. -1.
         25    2    1    2    0    0 -0.54966806582E+02  0.69612935057E+02 -0.15310637986E+03  0.21669315648E+03  0.12508816875E+03 0.  0.
          5    1    3    3  502    0 -0.82562580196E+02  0.51987450945E+02 -0.52634549238E+02  0.11093756297E+03  0.41800000000E+01 0.  1.
         -5    1    3    3    0  502  0.27595773614E+02  0.17625484112E+02 -0.10047183062E+03  0.10575559351E+03  0.41800000000E+01 0.  1.
        -11    1    1    2    0    0  0.24737418287E+02 -0.33437841928E+02 -0.40956283591E+02  0.58373335539E+02  0.00000000000E+00 0.  1.
         11    1    1    2    0    0  0.30229388295E+02 -0.36175093129E+02  0.50239808351E+02  0.68894786615E+02  0.00000000000E+00 0. -1.
</event>
<event>
 7    1  0.2601031E-009  0.1004787E+03  0.7561462E-02  0.1279292E+00
         -2   -1    0    0    0  501 -0.00000000000E+00  0.00000000000E+00  0.17714110080E+02  0.17714110080E+02  0.00000000000E+00 0. -1.
          2   -1    0    0  501    0  0.00000000000E+00 -0.00000000000E+00 -0.16379288493E+04  0.16379288493E+04  0.00000000000E+00 0.  1.
         25    2    1    2    0    0 -0.22025059987E+02  0.40890478270E+02 -0.14590407743E+04  0.14651298750E+04  0.12509370583E+03 0.  0.
          5    1    3    3  502    0 -0.41355065537E+02  0.61973209801E+02 -0.13576416259E+04  0.13596908387E+04  0.41800000000E+01 0.  1.
         -5    1    3    3    0  502  0.19330005550E+02 -0.21082731530E+02 -0.10139914840E+03  0.10543903632E+03  0.41800000000E+01 0.  1.
        -11    1    1    2    0    0  0.40448126017E+02 -0.59040666593E+02 -0.91299994082E+02  0.11600663830E+03  0.00000000000E+00 0. -1.
         11    1    1    2    0    0 -0.18423066030E+02  0.18150188323E+02 -0.69873970834E+02  0.74506446018E+02  0.00000000000E+00 0.  1.
</event>
<event>
 7    1  0.2601031E-009  0.2341159E+03  0.7561462E-02  0.1123776E+00
         -1   -1    0    0    0  501 -0.00000000000E+00  0.00000000000E+00  0.83173706050E+03  0.83173706050E+03  0.00000000000E+00 0.  1.
          1   -1    0    0  501    0  0.00000000000E+00 -0.00000000000E+00 -0.92604380396E+02  0.92604380396E+02  0.00000000000E+00 0. -1.
         25    2    1    2    0    0  0.21248703714E+03  0.46392597108E+02  0.59993975192E+03  0.65028939061E+03  0.12508225928E+03 0.  0.
          5    1    3    3  502    0  0.11778349541E+03 -0.31233471464E+02  0.37250201872E+03  0.39194860362E+03  0.41800000000E+01 0. -1.
         -5    1    3    3    0  502  0.94703541729E+02  0.77626068572E+02  0.22743773321E+03  0.25834078700E+03  0.41800000000E+01 0. -1.
        -11    1    1    2    0    0 -0.60719045272E+02  0.10654623037E+02  0.20290988617E+01  0.61680148289E+02  0.00000000000E+00 0. -1.
         11    1    1    2    0    0 -0.15176799187E+03 -0.57047220145E+02  0.13716382932E+03  0.21237190199E+03  0.00000000000E+00 0.  1.
</event>
<event>
 7    1  0.2601031E-009  0.8705793E+02  0.7561462E-02  0.1310137E+00
         -1   -1    0    0    0  501 -0.00000000000E+00  0.00000000000E+00  0.15155421057E+03  0.15155421057E+03  0.00000000000E+00 0.  1.
          1   -1    0    0  501    0  0.00000000000E+00 -0.00000000000E+00 -0.84196773236E+02  0.84196773236E+02  0.00000000000E+00 0. -1.
         25    2    1    2    0    0 -0.25828684595E+02  0.24407217910E+02  0.46128655824E+02  0.13796859412E+03  0.12507856268E+03 0.  0.
          5    1    3    3  502    0 -0.47305844109E+02  0.33056418541E+02  0.78765989405E+02  0.97734963962E+02  0.41800000000E+01 0. -1.
         -5    1    3    3    0  502  0.21477159514E+02 -0.86492006310E+01 -0.32637333581E+02  0.40233630157E+02  0.41800000000E+01 0. -1.
        -11    1    1    2    0    0 -0.91819775127E+01 -0.49056568747E+02  0.22945672701E+02  0.54930497394E+02  0.00000000000E+00 0.  1.
         11    1    1    2    0    0  0.35010662108E+02  0.24649350837E+02 -0.17168911870E+01  0.42851892295E+02  0.00000000000E+00 0. -1.
</event>
<event>
 7    1  0.2601031E-009  0.1417730E+03  0.7561462E-02  0.1210963E+00
          1   -1    0    0  501    0  0.00000000000E+00  0.00000000000E+00  0.94978559216E+02  0.94978559216E+02  0.00000000000E+00 0. -1.
         -1   -1    0    0    0  501 -0.00000000000E+00 -0.00000000000E+00 -0.41478115185E+03  0.41478115185E+03  0.00000000000E+00 0.  1.
         25    2    1    2    0    0 -0.12910276839E+03  0.24487939071E+02 -0.37391193360E+02  0.18523687587E+03  0.12508962737E+03 0.  0.
          5    1    3    3  502    0 -0.62823552223E+02  0.49736664994E+02 -0.70539838834E+02  0.10683574225E+03  0.41800000000E+01 0.  1.
         -5    1    3    3    0  502 -0.66279216168E+02 -0.25248725923E+02  0.33148645474E+02  0.78401133623E+02  0.41800000000E+01 0.  1.
        -11    1    1    2    0    0  0.92750616838E+02 -0.10636134059E+02 -0.26670012113E+03  0.28256814910E+03  0.00000000000E+00 0.  1.
         11    1    1    2    0    0  0.36352151553E+02 -0.13851805011E+02 -0.15711278135E+02  0.41954686094E+02  0.00000000000E+00 0. -1.
</event>
<event>
 7    1  0.2601031E-009  0.8494731E+02  0.7561462E-02  0.1315570E+00
          2   -1    0    0  501    0  0.00000000000E+00  0.00000000000E+00  0.38263936932E+03  0.38263936932E+03  0.00000000000E+00 0. -1.
         -2   -1    0    0    0  501 -0.00000000000E+00 -0.00000000000E+00 -0.51925339508E+02  0.51925339508E+02  0.00000000000E+00 0.  1.
         25    2    1    2    0    0  0.31560116439E+02 -0.53545543151E+02  0.89394395637E+02  0.16584068471E+03  0.12509439872E+03 0.  0.
          5    1    3    3  502    0  0.37866815602E+01 -0.18478353457E+02 -0.31452505742E+02  0.36912342396E+02  0.41800000000E+01 0. -1.
         -5    1    3    3    0  502  0.27773434879E+02 -0.35067189694E+02  0.12084690138E+03  0.12892834231E+03  0.41800000000E+01 0. -1.
        -11    1    1    2    0    0 -0.27084424589E+02 -0.18922853089E+02  0.27741976237E+02  0.43142295603E+02  0.00000000000E+00 0.  1.
         11    1    1    2    0    0 -0.44756918503E+01  0.72468396240E+02  0.21357765794E+03  0.22558172852E+03  0.00000000000E+00 0. -1.
</event>
<event>
 7    1  0.2601031E-009  0.9796910E+02  0.7561462E-02  0.1284626E+00
          1   -1    0    0  501    0  0.00000000000E+00  0.00000000000E+00  0.81196228864E+02  0.81196228864E+02  0.00000000000E+00 0. -1.
         -1   -1    0    0    0  501 -0.00000000000E+00 -0.00000000000E+00 -0.17171740980E+03  0.17171740980E+03  0.00000000000E+00 0.  1.
         25    2    1    2    0    0 -0.45427448225E+02 -0.47589799060E+01 -0.55396510950E+02  0.14422934771E+03  0.12508809046E+03 0.  0.
          5    1    3    3  502    0 -0.12308475821E+02 -0.58119666326E+02 -0.55324058866E+02  0.81287256568E+02  0.41800000000E+01 0.  1.
         -5    1    3    3    0  502 -0.33118972404E+02  0.53360686420E+02 -0.72452084196E-01  0.62942091145E+02  0.41800000000E+01 0.  1.
        -11    1    1    2    0    0 -0.13788681116E+02  0.34329574705E+01 -0.46279727599E+02  0.48412045098E+02  0.00000000000E+00 0.  1.
         11    1    1    2    0    0  0.59216129340E+02  0.13260224354E+01  0.11155057615E+02  0.60272245851E+02  0.00000000000E+00 0. -1.
</event>
<event>
 7    1  0.2601031E-009  0.1082825E+03  0.7561462E-02  0.1263784E+00
          1   -1    0    0  501    0  0.00000000000E+00  0.00000000000E+00  0.71800381208E+03  0.71800381208E+03  0.00000000000E+00 0. -1.
         -1   -1    0    0    0  501 -0.00000000000E+00 -0.00000000000E+00 -0.20702716921E+02  0.20702716921E+02  0.00000000000E+00 0.  1.
         25    2    1    2    0    0 -0.35595787779E+02 -0.39668979795E+02  0.44132345063E+03  0.46179467640E+03  0.12508895639E+03 0.  0.
          5    1    3    3  502    0 -0.50489933249E+02  0.33318091919E+02  0.22179886025E+03  0.22993811215E+03  0.41800000000E+01 0.  1.
         -5    1    3    3    0  502  0.14894145470E+02 -0.72987071714E+02  0.21952459038E+03  0.23185656426E+03  0.41800000000E+01 0.  1.
        -11    1    1    2    0    0  0.31937659918E+01 -0.16320749243E+02  0.44734544737E+01  0.17221463120E+02  0.00000000000E+00 0.  1.
         11    1    1    2    0    0  0.32402021788E+02  0.55989729039E+02  0.25150419005E+03  0.25969038948E+03  0.00000000000E+00 0. -1.
</event>
<event>
 7    1  0.2601031E-009  0.1066758E+03  0.7561462E-02  0.1266853E+00
         -2   -1    0    0    0  501 -0.00000000000E+00  0.00000000000E+00  0.18369880011E+02  0.18369880011E+02  0.00000000000E+00 0.  1.
          2   -1    0    0  501    0  0.00000000000E+00 -0.00000000000E+00 -0.74716455078E+03  0.74716455078E+03  0.00000000000E+00 0. -1.
         25    2    1    2    0    0  0.23993974527E+02 -0.21377474114E+02 -0.49390668880E+03  0.51051353571E+03  0.12509015025E+03 0.  0.
          5    1    3    3  502    0 -0.13735245723E+02  0.43283850164E+02 -0.28353802708E+03  0.28718188289E+03  0.41800000000E+01 0.  1.
         -5    1    3    3    0  502  0.37729220250E+02 -0.64661324278E+02 -0.21036866172E+03  0.22333165282E+03  0.41800000000E+01 0.  1.
        -11    1    1    2    0    0  0.21308120136E+02 -0.21587363063E+02 -0.38900222745E+02  0.49328263271E+02  0.00000000000E+00 0.  1.
         11    1    1    2    0    0 -0.45302094663E+02  0.42964837177E+02 -0.19598775922E+03  0.20569263180E+03  0.00000000000E+00 0. -1.
</event>
<event>
 7    1  0.2601031E-009  0.1110894E+03  0.7561462E-02  0.1258566E+00
         -2   -1    0    0    0  501 -0.00000000000E+00  0.00000000000E+00  0.56231644057E+02  0.56231644057E+02  0.00000000000E+00 0.  1.
          2   -1    0    0  501    0  0.00000000000E+00 -0.00000000000E+00 -0.24271000906E+03  0.24271000906E+03  0.00000000000E+00 0. -1.
         25    2    1    2    0    0 -0.31320501017E+02  0.23834483824E+02 -0.12980563796E+03  0.18451326075E+03  0.12508630358E+03 0.  0.
          5    1    3    3  502    0  0.45735169561E+02  0.30289846318E+01 -0.23981711934E+02  0.51898703163E+02  0.41800000000E+01 0.  1.
         -5    1    3    3    0  502 -0.77055670579E+02  0.20805499192E+02 -0.10582392603E+03  0.13261455759E+03  0.41800000000E+01 0.  1.
        -11    1    1    2    0    0 -0.29781901643E+02 -0.18117046956E+02 -0.71865132326E+01  0.35592626038E+02  0.00000000000E+00 0.  1.
         11    1    1    2    0    0  0.61102402660E+02 -0.57174368679E+01 -0.49486213815E+02  0.78835766330E+02  0.00000000000E+00 0. -1.
</event>
<event>
 7    1  0.2601031E-009  0.7746076E+02  0.7561462E-02  0.1336416E+00
          2   -1    0    0  501    0  0.00000000000E+00  0.00000000000E+00  0.11140434953E+04  0.11140434953E+04  0.00000000000E+00 0. -1.
         -2   -1    0    0    0  501 -0.00000000000E+00 -0.00000000000E+00 -0.11467602453E+02  0.11467602453E+02  0.00000000000E+00 0.  1.
         25    2    1    2    0    0 -0.10251721549E+02  0.34746226746E+02  0.61764227385E+03  0.63122200976E+03  0.12508736579E+03 0.  0.
          5    1    3    3  502    0 -0.26171872587E+02  0.66758148921E+01  0.58319630873E+03  0.58383639861E+03  0.41800000000E+01 0.  1.
         -5    1    3    3    0  502  0.15920151038E+02  0.28070411854E+02  0.34445965120E+02  0.47385611147E+02  0.41800000000E+01 0.  1.
        -11    1    1    2    0    0 -0.35439413276E+02 -0.34353439544E+02  0.28071932687E+03  0.28502535203E+03  0.00000000000E+00 0. -1.
         11    1    1    2    0    0  0.45691134824E+02 -0.39278720213E+00  0.20421429211E+03  0.20926373596E+03  0.00000000000E+00 0.  1.
</event>
<event>
 7    1  0.2601031E-009  0.9598083E+02  0.7561462E-02  0.1288982E+00
          1   -1    0    0  501    0  0.00000000000E+00  0.00000000000E+00  0.76656016223E+02  0.76656016223E+02  0.00000000000E+00 0. -1.
         -1   -1    0    0    0  501 -0.00000000000E+00 -0.00000000000E+00 -0.31626466605E+03  0.31626466605E+03  0.00000000000E+00 0.  1.
         25    2    1    2    0    0  0.59840136966E+02  0.17345747851E+02 -0.24537293664E+03  0.28237786327E+03  0.12509061782E+03 0.  0.
          5    1    3    3  502    0 -0.24852470115E+02 -0.30765360624E+01 -0.15392580811E+03  0.15600556768E+03  0.41800000000E+01 0. -1.
         -5    1    3    3    0  502  0.84692607082E+02  0.20422283913E+02 -0.91447128529E+02  0.12637229558E+03  0.41800000000E+01 0. -1.
        -11    1    1    2    0    0 -0.30221611290E+02  0.16455149798E+02 -0.35564506953E+02  0.49486886127E+02  0.00000000000E+00 0. -1.
         11    1    1    2    0    0 -0.29618525677E+02 -0.33800897649E+02  0.41328793770E+02  0.61055932878E+02  0.00000000000E+00 0.  1.
</event>
<event>
 7    1  0.2601031E-009  0.1133451E+03  0.7561462E-02  0.1254498E+00
          1   -1    0    0  501    0  0.00000000000E+00  0.00000000000E+00  0.15986031492E+03  0.15986031492E+03  0.00000000000E+00 0. -1.
         -1   -1    0    0    0  501 -0.00000000000E+00 -0.00000000000E+00 -0.10194450381E+03  0.10194450381E+03  0.00000000000E+00 0.  1.
         25    2    1    2    0    0 -0.55220788152E+02 -0.47737598101E+02  0.39781209916E+02  0.15019590764E+03  0.12509217519E+03 0.  0.
          5    1    3    3  502    0 -0.80528877297E+02 -0.32978660763E+02 -0.14550601874E+02  0.88327145088E+02  0.41800000000E+01 0.  1.
         -5    1    3    3    0  502  0.25308089145E+02 -0.14758937338E+02  0.54331811790E+02  0.61868762554E+02  0.41800000000E+01 0.  1.
        -11    1    1    2    0    0  0.21724016896E+02  0.67619289898E+02  0.14487781129E+02  0.72485840538E+02  0.00000000000E+00 0. -1.
         11    1    1    2    0    0  0.33496771256E+02 -0.19881691797E+02  0.36468200663E+01  0.39123070558E+02  0.00000000000E+00 0.  1.
</event>
<event>
 7    1  0.2601031E-009  0.1434086E+03  0.7561462E-02  0.1208815E+00
         -1   -1    0    0    0  501 -0.00000000000E+00  0.00000000000E+00  0.51331778488E+03  0.51331778488E+03  0.00000000000E+00 0.  1.
          1   -1    0    0  501    0  0.00000000000E+00 -0.00000000000E+00 -0.67382092473E+02  0.67382092473E+02  0.00000000000E+00 0. -1.
         25    2    1    2    0    0  0.11078394595E+03  0.10104292337E+02  0.38622560412E+03  0.42094283312E+03  0.12508985602E+03 0.  0.
          5    1    3    3  502    0 -0.19363124908E+02  0.11086031935E+01  0.14781831519E+03  0.14914384437E+03  0.41800000000E+01 0.  1.
         -5    1    3    3    0  502  0.13014707085E+03  0.89956891431E+01  0.23840728893E+03  0.27179898875E+03  0.41800000000E+01 0.  1.
        -11    1    1    2    0    0 -0.10046542781E+03  0.21901071144E+02  0.15154318316E+02  0.10393561693E+03  0.00000000000E+00 0. -1.
         11    1    1    2    0    0 -0.10318518133E+02 -0.32005363480E+02  0.44555769979E+02  0.55821427305E+02  0.00000000000E+00 0.  1.
</event>
<event>
 7    1  0.2601031E-009  0.2046904E+03  0.7561462E-02  0.1145841E+00
         -2   -1    0    0    0  501 -0.00000000000E+00  0.00000000000E+00  0.14038501315E+03  0.14038501315E+03  0.00000000000E+00 0.  1.
          2   -1    0    0  501    0  0.00000000000E+00 -0.00000000000E+00 -0.54106756724E+03  0.54106756724E+03  0.00000000000E+00 0. -1.
         25    2    1    2    0    0  0.89330568933E+02  0.18123518146E+03 -0.16919502487E+02  0.23824305736E+03  0.12508934116E+03 0.  0.
          5    1    3    3  502    0  0.34243037971E+02  0.52669096776E+02 -0.64794974089E+02  0.90346446924E+02  0.41800000000E+01 0.  1.
         -5    1    3    3    0  502  0.55087530962E+02  0.12856608468E+03  0.47875471602E+02  0.14789661044E+03  0.41800000000E+01 0.  1.
        -11    1    1    2    0    0 -0.83693430346E+02 -0.12787177716E+03 -0.34400826102E+03  0.37642723776E+03  0.00000000000E+00 0.  1.
         11    1    1    2    0    0 -0.56371385870E+01 -0.53363404299E+02 -0.39754790581E+02  0.66782285256E+02  0.00000000000E+00 0. -1.
</event>
<event>
 7    1  0.2601031E-009  0.8985536E+02  0.7561462E-02  0.1303202E+00
         -2   -1    0    0    0  501 -0.00000000000E+00  0.00000000000E+00  0.92217196119E+03  0.92217196119E+03  0.00000000000E+00 0.  1.
          2   -1    0    0  501    0  0.00000000000E+00 -0.00000000000E+00 -0.18802579336E+02  0.18802579336E+02  0.00000000000E+00 0. -1.
         25    2    1    2    0    0 -0.62295609767E+02  0.19302587466E+02  0.62362330645E+03  0.63937963431E+03  0.12508779133E+03 0.  0.
          5    1    3    3  502    0  0.13876475329E+02  0.53539717691E+01  0.54834075773E+01  0.16393954371E+02  0.41800000000E+01 0.  1.
         -5    1    3    3    0  502 -0.76172085095E+02  0.13948615697E+02  0.61813989887E+03  0.62298567994E+03  0.41800000000E+01 0.  1.
        -11    1    1    2    0    0  0.36633471555E+02 -0.39632930228E+02  0.25475009894E+03  0.26040428819E+03  0.00000000000E+00 0.  1.
         11    1    1    2    0    0  0.25662138212E+02  0.20330342762E+02  0.24995976465E+02  0.41190618032E+02  0.00000000000E+00 0. -1.
</event>
<event>
 7    1  0.2601031E-009  0.9870920E+02  0.7561462E-02  0.1283034E+00
         -1   -1    0    0    0  501 -0.00000000000E+00  0.00000000000E+00  0.31549542284E+02  0.31549542284E+02  0.00000000000E+00 0.  1.
          1   -1    0    0  501    0  0.00000000000E+00 -0.00000000000E+00 -0.39021008311E+03  0.39021008311E+03  0.00000000000E+00 0. -1.
         25    2    1    2    0    0 -0.70549010019E+01  0.11429070912E+02 -0.20931671456E+03  0.24421389117E+03  0.12508613974E+03 0.  0.
          5    1    3    3  502    0 -0.88129794525E+01  0.62917813646E+02 -0.65299406399E+02  0.91201999741E+02  0.41800000000E+01 0. -1.
         -5    1    3    3    0  502  0.17580784506E+01 -0.51488742733E+02 -0.14401730817E+03  0.15301189143E+03  0.41800000000E+01 0. -1.
        -11    1    1    2    0    0  0.13265955349E+02 -0.45517520995E+02 -0.37474421848E+02  0.60433124872E+02  0.00000000000E+00 0.  1.
         11    1    1    2    0    0 -0.62110543471E+01  0.34088450083E+02 -0.11186940441E+03  0.11711260935E+03  0.00000000000E+00 0. -1.
</event>
<event>
 7    1  0.2601031E-009  0.1023709E+03  0.7561462E-02  0.1275388E+00
          2   -1    0    0  501    0  0.00000000000E+00  0.00000000000E+00  0.64806385308E+03  0.64806385308E+03  0.00000000000E+00 0. -1.
         -2   -1    0    0    0  501 -0.00000000000E+00 -0.00000000000E+00 -0.22740572060E+02  0.22740572060E+02  0.00000000000E+00 0.  1.
         25    2    1    2    0    0  0.42722797879E+02  0.26916496125E+02  0.31312805193E+03  0.34094853638E+03  0.12508793837E+03 0.  0.
          5    1    3    3  502    0 -0.43527705529E+02  0.43589752400E+01  0.13006525724E+03  0.13728840212E+03  0.41800000000E+01 0. -1.
         -5    1    3    3    0  502  0.86250503408E+02  0.22557520885E+02  0.18306279469E+03  0.20366013426E+03  0.41800000000E+01 0. -1.
        -11    1    1    2    0    0 -0.54200678940E+02 -0.25762738556E+02  0.31260465663E+03  0.31831290210E+03  0.00000000000E+00 0. -1.
         11    1    1    2    0    0  0.11477881061E+02 -0.11537575692E+01 -0.40942754835E+00  0.11542986663E+02  0.00000000000E+00 0.  1.
</event>
<event>
 7    1  0.2601031E-009  0.6239687E+02  0.7561462E-02  0.1388040E+00
         -1   -1    0    0    0  501 -0.00000000000E+00  0.00000000000E+00  0.36792865610E+03  0.36792865610E+03  0.00000000000E+00 0.  1.
          1   -1    0    0  501    0  0.00000000000E+00 -0.00000000000E+00 -0.47296653511E+02  0.47296653511E+02  0.00000000000E+00 0. -1.
         25    2    1    2    0    0 -0.42660713907E+02 -0.14768543238E+02  0.84120799258E+02  0.15735872162E+03  0.12508961596E+03 0.  0.
          5    1    3    3  502    0 -0.11872268264E+02 -0.10348493858E+02 -0.32625178285E+02  0.36468023487E+02  0.41800000000E+01 0.  1.
         -5    1    3    3    0  502 -0.30788445642E+02 -0.44200493806E+01  0.11674597754E+03  0.12089069813E+03  0.41800000000E+01 0.  1.
        -11    1    1    2    0    0  0.25748020845E+02  0.39501861697E+02  0.21710893211E+03  0.22217030868E+03  0.00000000000E+00 0.  1.
         11    1    1    2    0    0  0.16912693061E+02 -0.24733318459E+02  0.19402271217E+02  0.35696279315E+02  0.00000000000E+00 0. -1.
</event>
<event>
 7    1  0.2601031E-009  0.7459504E+02  0.7561462E-02  0.1345130E+00
          1   -1    0    0  501    0  0.00000000000E+00  0.00000000000E+00  0.58347967295E+03  0.58347967295E+03  0.00000000000E+00 0. -1.
         -1   -1    0    0    0  501 -0.00000000000E+00 -0.00000000000E+00 -0.22609248818E+02  0.22609248818E+02  0.00000000000E+00 0.  1.
         25    2    1    2    0    0  0.65086534192E+00 -0.30739917560E+02  0.36944383014E+03  0.39125657105E+03  0.12509034576E+03 0.  0.
          5    1    3    3  502    0  0.61161656397E+01 -0.52967128777E+02  0.57809832157E+02  0.78755147813E+02  0.41800000000E+01 0. -1.
         -5    1    3    3    0  502 -0.54653002977E+01  0.22227211216E+02  0.31163399799E+03  0.31250142324E+03  0.41800000000E+01 0. -1.
        -11    1    1    2    0    0 -0.30056770653E+02  0.30797470157E+02  0.17685252071E+03  0.18201293281E+03  0.00000000000E+00 0. -1.
         11    1    1    2    0    0  0.29405905311E+02 -0.57552596510E-01  0.14574073278E+02  0.32819417901E+02  0.00000000000E+00 0.  1.
</event>
<event>
 7    1  0.2601031E-009  0.7463241E+02  0.7561462E-02  0.1345013E+00
          1   -1    0    0  501    0  0.00000000000E+00  0.00000000000E+00  0.22481834491E+03  0.22481834491E+03  0.00000000000E+00 0. -1.
         -1   -1    0    0    0  501 -0.00000000000E+00 -0.00000000000E+00 -0.75998428713E+02  0.75998428713E+02  0.00000000000E+00 0.  1.
         25    2    1    2    0    0 -0.52937152849E+02  0.48698084668E+02  0.85836837570E+02  0.16789506665E+03  0.12508774968E+03 0.  0.
          5    1    3    3  502    0 -0.47862665779E+02  0.39572284663E+02 -0.16937603247E+02  0.64507017391E+02  0.41800000000E+01 0.  1.
         -5    1    3    3    0  502 -0.50744870697E+01  0.91258000048E+01  0.10277444082E+03  0.10338804926E+03  0.41800000000E+01 0.  1.
        -11    1    1    2    0    0  0.44576408636E+02 -0.26045945600E+02  0.85517970573E+02  0.99893797505E+02  0.00000000000E+00 0. -1.
         11    1    1    2    0    0  0.83607442135E+01 -0.22652139067E+02 -0.22534891951E+02  0.33027909461E+02  0.00000000000E+00 0.  1.
</event>
<event>
 7    1  0.2601031E-009  0.1126913E+03  0.7561462E-02  0.1255666E+00
          1   -1    0    0  501    0  0.00000000000E+00  0.00000000000E+00  0.10175278165E+03  0.10175278165E+03  0.00000000000E+00 0. -1.
         -1   -1    0    0    0  501 -0.00000000000E+00 -0.00000000000E+00 -0.15963511256E+03  0.15963511256E+03  0.00000000000E+00 0.  1.
         25    2    1    2    0    0 -0.47422095657E+02 -0.46358200565E+02 -0.20298946871E+02  0.14302665181E+03  0.12508652192E+03 0.  0.
          5    1    3    3  502    0  0.24780026888E+02  0.49524829843E+01 -0.44289774899E+02  0.51162812480E+02  0.41800000000E+01 0.  1.
         -5    1    3    3    0  502 -0.72202122545E+02 -0.51310683549E+02  0.23990828027E+02  0.91863839326E+02  0.41800000000E+01 0.  1.
        -11    1    1    2    0    0 -0.47999339462E+01  0.57496645739E+02 -0.27920635350E+02  0.64097312857E+02  0.00000000000E+00 0.  1.
         11    1    1    2    0    0  0.52222029603E+02 -0.11138445174E+02 -0.96627486878E+01  0.54263929539E+02  0.00000000000E+00 0. -1.
</event>
<event>
 7    1  0.2601031E-009  0.3830969E+03  0.7561462E-02  0.1049795E+00
         -1   -1    0    0    0  501 -0.00000000000E+00  0.00000000000E+00  0.71690456388E+02  0.71690456388E+02  0.00000000000E+00 0.  1.
          1   -1    0    0  501    0  0.00000000000E+00 -0.00000000000E+00 -0.21480026018E+04  0.21480026018E+04  0.00000000000E+00 0. -1.
         25    2    1    2    0    0 -0.37510864200E+03 -0.53553732694E+01 -0.96011229520E+03  0.10383634218E+04  0.12509117862E+03 0.  0.
          5    1    3    3  502    0 -0.24074942130E+02 -0.22939161526E+02 -0.17468225626E+03  0.17786840929E+03  0.41800000000E+01 0.  1.
         -5    1    3    3    0  502 -0.35103369987E+03  0.17583788257E+02 -0.78543003894E+03  0.86049501249E+03  0.41800000000E+01 0.  1.
        -11    1    1    2    0    0  0.31105630115E+03 -0.21339015905E+02 -0.98109856290E+03  0.10294492538E+04  0.00000000000E+00 0.  1.
         11    1    1    2    0    0  0.64052340842E+02  0.26694389174E+02 -0.13510128734E+03  0.15188038261E+03  0.00000000000E+00 0. -1.
</event>
<event>
 7    1  0.2601031E-009  0.9651631E+02  0.7561462E-02  0.1287797E+00
         -4   -1    0    0    0  501 -0.00000000000E+00  0.00000000000E+00  0.25731686037E+03  0.25731686037E+03  0.00000000000E+00 0.  1.
          4   -1    0    0  501    0  0.00000000000E+00 -0.00000000000E+00 -0.56511120797E+02  0.56511120797E+02  0.00000000000E+00 0. -1.
         25    2    1    2    0    0 -0.63787694398E+00 -0.56270511909E+02  0.12416663022E+03  0.18501770086E+03  0.12508964855E+03 0.  0.
          5    1    3    3  502    0 -0.45558131193E+02 -0.48672125300E+01  0.10398640433E+03  0.11370962036E+03  0.41800000000E+01 0.  1.
         -5    1    3    3    0  502  0.44920254249E+02 -0.51403299379E+02  0.20180225892E+02  0.71308080509E+02  0.41800000000E+01 0.  1.
        -11    1    1    2    0    0 -0.82238153713E+01  0.65396395833E+02  0.89215647689E+02  0.11092227693E+03  0.00000000000E+00 0.  1.
         11    1    1    2    0    0  0.88616923153E+01 -0.91258839244E+01 -0.12576538337E+02  0.17888003372E+02  0.00000000000E+00 0. -1.
</event>
<event>
 7    1  0.2601031E-009  0.1787565E+03  0.7561462E-02  0.1169012E+00
         -2   -1    0    0    0  501 -0.00000000000E+00  0.00000000000E+00  0.66257434669E+03  0.66257434669E+03  0.00000000000E+00 0.  1.
          2   -1    0    0  501    0  0.00000000000E+00 -0.00000000000E+00 -0.57421374642E+02  0.57421374642E+02  0.00000000000E+00 0. -1.
         25    2    1    2    0    0  0.14811766238E+03 -0.71434658162E+02  0.31254277597E+03  0.37466322725E+03  0.12509114575E+03 0.  0.
          5    1    3    3  502    0  0.81003240382E+01 -0.25682959042E+02 -0.19860988908E+01  0.27324835287E+02  0.41800000000E+01 0.  1.
         -5    1    3    3    0  502  0.14001733834E+03 -0.45751699121E+02  0.31452887486E+03  0.34733839196E+03  0.41800000000E+01 0.  1.
        -11    1    1    2    0    0 -0.12587163500E+03  0.89329379839E+02  0.23714807190E+03  0.28295337886E+03  0.00000000000E+00 0.  1.
         11    1    1    2    0    0 -0.22246027379E+02 -0.17894721677E+02  0.55462124178E+02  0.62379115226E+02  0.00000000000E+00 0. -1.
</event>
<event>
 7    1  0.2601031E-009  0.1316056E+03  0.7561462E-02  0.1225093E+00
          2   -1    0    0  501    0  0.00000000000E+00  0.00000000000E+00  0.52047801819E+03  0.52047801819E+03  0.00000000000E+00 0. -1.
         -2   -1    0    0    0  501 -0.00000000000E+00 -0.00000000000E+00 -0.41439071265E+02  0.41439071265E+02  0.00000000000E+00 0.  1.
         25    2    1    2    0    0 -0.86720930953E+02  0.31822814723E+02  0.32539335661E+03  0.36064073526E+03  0.12509073508E+03 0.  0.
          5    1    3    3  502    0 -0.60902778736E+02 -0.31471067664E+02  0.24782578830E+03  0.25716661973E+03  0.41800000000E+01 0. -1.
         -5    1    3    3    0  502 -0.25818152217E+02  0.63293882388E+02  0.77567568316E+02  0.10347411554E+03  0.41800000000E+01 0. -1.
        -11    1    1    2    0    0  0.85185223305E+02  0.85776585311E+01  0.79552007212E+02  0.11687010031E+03  0.00000000000E+00 0.  1.
         11    1    1    2    0    0  0.15357076478E+01 -0.40400473255E+02  0.74093583097E+02  0.84406253875E+02  0.00000000000E+00 0. -1.
</event>
<event>
 7    1  0.2601031E-009  0.1045339E+03  0.7561462E-02  0.1271041E+00
          1   -1    0    0  501    0  0.00000000000E+00  0.00000000000E+00  0.43659912321E+02  0.43659912321E+02  0.00000000000E+00 0. -1.
         -1   -1    0    0    0  501 -0.00000000000E+00 -0.00000000000E+00 -0.41078580638E+03  0.41078580638E+03  0.00000000000E+00 0.  1.
         25    2    1    2    0    0  0.95249150301E+01  0.37116547023E+02 -0.86605926721E+02  0.15690235255E+03  0.12509756043E+03 0.  0.
          5    1    3    3  502    0  0.59673218623E+02  0.50663488196E+02 -0.46522584578E+02  0.91156488155E+02  0.41800000000E+01 0. -1.
         -5    1    3    3    0  502 -0.50148303592E+02 -0.13546941173E+02 -0.40083342143E+02  0.65745864400E+02  0.41800000000E+01 0. -1.
        -11    1    1    2    0    0 -0.33447465043E+02  0.11124127228E+01 -0.37027747923E+02  0.49910164256E+02  0.00000000000E+00 0. -1.
         11    1    1    2    0    0  0.23922550012E+02 -0.38228959746E+02 -0.24349221941E+03  0.24763320189E+03  0.00000000000E+00 0.  1.
</event>
<event>
 7    1  0.2601031E-009  0.1373977E+03  0.7561462E-02  0.1216874E+00
         -2   -1    0    0    0  501 -0.00000000000E+00  0.00000000000E+00  0.60439341097E+02  0.60439341097E+02  0.00000000000E+00 0.  1.
          2   -1    0    0  501    0  0.00000000000E+00 -0.00000000000E+00 -0.43334898789E+03  0.43334898789E+03  0.00000000000E+00 0. -1.
         25    2    1    2    0    0 -0.53534119480E+02 -0.10164086018E+03 -0.23699549674E+03  0.29156647412E+03  0.12508947577E+03 0.  0.
          5    1    3    3  502    0  0.93939707126E+01 -0.10165237382E+02  0.12074642523E+02  0.18837413008E+02  0.41800000000E+01 0.  1.
         -5    1    3    3    0  502 -0.62928090193E+02 -0.91475622795E+02 -0.24907013927E+03  0.27272906111E+03  0.41800000000E+01 0.  1.
        -11    1    1    2    0    0  0.14653477028E+02 -0.18125806777E+02 -0.15480818057E+02  0.27980796773E+02  0.00000000000E+00 0.  1.
         11    1    1    2    0    0  0.38880642452E+02  0.11976666695E+03 -0.12043333199E+03  0.17424105809E+03  0.00000000000E+00 0. -1.
</event>
<event>
 7    1  0.2601031E-009  0.6646283E+02  0.7561462E-02  0.1372552E+00
         -2   -1    0    0    0  501 -0.00000000000E+00  0.00000000000E+00  0.10351965928E+03  0.10351965928E+03  0.00000000000E+00 0.  1.
          2   -1    0    0  501    0  0.00000000000E+00 -0.00000000000E+00 -0.13971020031E+03  0.13971020031E+03  0.00000000000E+00 0. -1.
         25    2    1    2    0    0 -0.30445669883E+02  0.54660389006E+01 -0.62998247188E+02  0.14342230488E+03  0.12507742399E+03 0.  0.
          5    1    3    3  502    0 -0.15565450755E+02 -0.84163824500E+01  0.37033381209E+02  0.41256059852E+02  0.41800000000E+01 0.  1.
         -5    1    3    3    0  502 -0.14880219128E+02  0.13882421351E+02 -0.10003162840E+03  0.10216624503E+03  0.41800000000E+01 0.  1.
        -11    1    1    2    0    0  0.55999587733E+02 -0.25466120566E+02  0.73113221508E+01  0.61951049665E+02  0.00000000000E+00 0. -1.
         11    1    1    2    0    0 -0.25553917850E+02  0.20000081666E+02  0.19496384006E+02  0.37856505035E+02  0.00000000000E+00 0.  1.
</event>
<event>
 7    1  0.2643058E-009  0.1680458E+03  0.7561462E-02  0.1179901E+00
         -2   -1    0    0    0  501 -0.00000000000E+00  0.00000000000E+00  0.34266640737E+03  0.34266640737E+03  0.00000000000E+00 0.  1.
          2   -1    0    0  501    0  0.00000000000E+00 -0.00000000000E+00 -0.12491302733E+03  0.12491302733E+03  0.00000000000E+00 0. -1.
         25    2    1    2    0    0 -0.15943124499E+03 -0.45147647731E+02  0.17956453314E+03  0.27449441486E+03  0.12508848968E+03 0.  0.
          5    1    3    3  502    0 -0.78275637898E+02 -0.17315416048E+02  0.55915011285E+01  0.80471339035E+02  0.41800000000E+01 0.  1.
         -5    1    3    3    0  502 -0.81155607096E+02 -0.27832231683E+02  0.17397303201E+03  0.19402307582E+03  0.41800000000E+01 0.  1.
        -11    1    1    2    0    0  0.63733138647E+02  0.37423159652E+02  0.59329737009E+02  0.94775648422E+02  0.00000000000E+00 0.  1.
         11    1    1    2    0    0  0.95698106346E+02  0.77244880789E+01 -0.21140890106E+02  0.98309371419E+02  0.00000000000E+00 0. -1.
</event>
<event>
 7    1  0.2601031E-009  0.1195951E+03  0.7561462E-02  0.1243767E+00
         -4   -1    0    0    0  501 -0.00000000000E+00  0.00000000000E+00  0.43520876567E+02  0.43520876567E+02  0.00000000000E+00 0. -1.
          4   -1    0    0  501    0  0.00000000000E+00 -0.00000000000E+00 -0.33276053070E+03  0.33276053070E+03  0.00000000000E+00 0.  1.
         25    2    1    2    0    0  0.42559375459E+02 -0.21616508163E+02 -0.17393145540E+03  0.21949702064E+03  0.12509283364E+03 0.  0.
          5    1    3    3  502    0  0.19757586016E+02  0.51999086544E+02 -0.85902434577E+02  0.10242542591E+03  0.41800000000E+01 0. -1.
         -5    1    3    3    0  502  0.22801789443E+02 -0.73615594707E+02 -0.88029020824E+02  0.11707159473E+03  0.41800000000E+01 0. -1.
        -11    1    1    2    0    0 -0.46231751932E+02 -0.29589714381E+02 -0.60320693470E+02  0.81556803178E+02  0.00000000000E+00 0. -1.
         11    1    1    2    0    0  0.36723764733E+01  0.51206222544E+02 -0.54987505257E+02  0.75227583442E+02  0.00000000000E+00 0.  1.
</event>
<event>
 7    1  0.2601031E-009  0.9036851E+02  0.7561462E-02  0.1301962E+00
         -1   -1    0    0    0  501 -0.00000000000E+00  0.00000000000E+00  0.70834724442E+02  0.70834724442E+02  0.00000000000E+00 0.  1.
          1   -1    0    0  501    0  0.00000000000E+00 -0.00000000000E+00 -0.26943458197E+03  0.26943458197E+03  0.00000000000E+00 0. -1.
         25    2    1    2    0    0  0.42220126103E+02 -0.48308176998E+02 -0.17927210557E+03  0.22782321070E+03  0.12509479799E+03 0.  0.
          5    1    3    3  502    0  0.56345543873E+02 -0.16827962099E+02 -0.16270354835E+02  0.61157153868E+02  0.41800000000E+01 0. -1.
         -5    1    3    3    0  502 -0.14125417770E+02 -0.31480214899E+02 -0.16300175074E+03  0.16666605683E+03  0.41800000000E+01 0. -1.
        -11    1    1    2    0    0 -0.49780736534E+02  0.56886910180E+02  0.14294725105E+02  0.76932317302E+02  0.00000000000E+00 0.  1.
         11    1    1    2    0    0  0.75606104311E+01 -0.85787331814E+01 -0.33622477058E+02  0.35513778405E+02  0.00000000000E+00 0. -1.
</event>
<event>
 7    1  0.2601031E-009  0.1920610E+03  0.7561462E-02  0.1156616E+00
          1   -1    0    0  501    0  0.00000000000E+00  0.00000000000E+00  0.14394142664E+03  0.14394142664E+03  0.00000000000E+00 0. -1.
         -1   -1    0    0    0  501 -0.00000000000E+00 -0.00000000000E+00 -0.49315582956E+03  0.49315582956E+03  0.00000000000E+00 0.  1.
         25    2    1    2    0    0  0.31593113568E+02  0.17732712326E+03 -0.37092797834E+03  0.43090383269E+03  0.12509002536E+03 0.  0.
          5    1    3    3  502    0  0.27323149391E+02  0.34453304313E+02 -0.21434927546E+03  0.21885307620E+03  0.41800000000E+01 0.  1.
         -5    1    3    3    0  502  0.42699641777E+01  0.14287381894E+03 -0.15657870288E+03  0.21205075649E+03  0.41800000000E+01 0.  1.
        -11    1    1    2    0    0  0.11321217322E+02 -0.13886139986E+03  0.41318224802E+02  0.14531983358E+03  0.00000000000E+00 0.  1.
         11    1    1    2    0    0 -0.42914330891E+02 -0.38465723399E+02 -0.19604649374E+02  0.60873589918E+02  0.00000000000E+00 0. -1.
</event>
<event>
 7    1  0.2601031E-009  0.1109949E+03  0.7561462E-02  0.1258739E+00
          2   -1    0    0  501    0  0.00000000000E+00  0.00000000000E+00  0.71969728972E+02  0.71969728972E+02  0.00000000000E+00 0.  1.
         -2   -1    0    0    0  501 -0.00000000000E+00 -0.00000000000E+00 -0.39386461910E+03  0.39386461910E+03  0.00000000000E+00 0. -1.
         25    2    1    2    0    0  0.91685307128E+01 -0.77212482009E+02 -0.30960943547E+03  0.34285849194E+03  0.12509242034E+03 0.  0.
          5    1    3    3  502    0  0.26311775822E+02 -0.87093902274E+02 -0.11264562181E+03  0.14485912423E+03  0.41800000000E+01 0.  1.
         -5    1    3    3    0  502 -0.17143245109E+02  0.98814202642E+01 -0.19696381366E+03  0.19799936771E+03  0.41800000000E+01 0.  1.
        -11    1    1    2    0    0  0.21723928266E+02  0.76778556525E+02  0.15662158958E+02  0.81315306213E+02  0.00000000000E+00 0.  1.
         11    1    1    2    0    0 -0.30892458979E+02  0.43392548457E+00 -0.27947613615E+02  0.41660549923E+02  0.00000000000E+00 0. -1.
</event>
<event>
 7    1  0.2601031E-009  0.9605440E+02  0.7561462E-02  0.1288819E+00
          4   -1    0    0  501    0  0.00000000000E+00  0.00000000000E+00  0.12184568134E+03  0.12184568134E+03  0.00000000000E+00 0. -1.
         -4   -1    0    0    0  501 -0.00000000000E+00 -0.00000000000E+00 -0.10605241961E+03  0.10605241961E+03  0.00000000000E+00 0.  1.
         25    2    1    2    0    0  0.33090641880E+02  0.89199966327E+01  0.11057580737E+02  0.13017176411E+03  0.12509141122E+03 0.  0.
          5    1    3    3  502    0  0.63671767643E+02  0.69633108126E+01 -0.36201275939E+02  0.73692512997E+02  0.41800000000E+01 0. -1.
         -5    1    3    3    0  502 -0.30581125763E+02  0.19566858201E+01  0.47258856675E+02  0.56479251116E+02  0.41800000000E+01 0. -1.
        -11    1    1    2    0    0  0.29492128228E+02  0.10753575732E+02 -0.35975568708E+01  0.31596952921E+02  0.00000000000E+00 0.  1.
         11    1    1    2    0    0 -0.62582770108E+02 -0.19673572365E+02  0.83332378582E+01  0.66129383916E+02  0.00000000000E+00 0. -1.
</event>
<event>
 7    1  0.2601031E-009  0.1046687E+03  0.7561462E-02  0.1270774E+00
          2   -1    0    0  501    0  0.00000000000E+00  0.00000000000E+00  0.39887309235E+03  0.39887309235E+03  0.00000000000E+00 0. -1.
         -2   -1    0    0    0  501 -0.00000000000E+00 -0.00000000000E+00 -0.36231779345E+02  0.36231779345E+02  0.00000000000E+00 0.  1.
         25    2    1    2    0    0  0.48589424553E+02  0.88200321730E+01  0.18025317674E+03  0.22489441199E+03  0.12509022215E+03 0.  0.
          5    1    3    3  502    0  0.52236870081E+01 -0.45973656005E+02  0.21097447459E+02  0.51023902651E+02  0.41800000000E+01 0. -1.
         -5    1    3    3    0  502  0.43365737545E+02  0.54793688178E+02  0.15915572928E+03  0.17387050934E+03  0.41800000000E+01 0. -1.
        -11    1    1    2    0    0  0.18578676602E+02  0.12515967346E+02  0.96713199347E+02  0.99273660106E+02  0.00000000000E+00 0. -1.
         11    1    1    2    0    0 -0.67168101155E+02 -0.21335999519E+02  0.85674936922E+02  0.11093679960E+03  0.00000000000E+00 0.  1.
</event>
<event>
 7    1  0.2601031E-009  0.1006351E+03  0.7561462E-02  0.1278966E+00
         -1   -1    0    0    0  501 -0.00000000000E+00  0.00000000000E+00  0.49705244081E+02  0.49705244081E+02  0.00000000000E+00 0.  1.
          1   -1    0    0  501    0  0.00000000000E+00 -0.00000000000E+00 -0.25327398074E+03  0.25327398074E+03  0.00000000000E+00 0. -1.
         25    2    1    2    0    0  0.13638071319E+02 -0.14334487603E+01 -0.14490846442E+03  0.19193237098E+03  0.12510603585E+03 0.  0.
          5    1    3    3  502    0  0.45704068247E+02  0.40059468647E+02 -0.11810798960E+03  0.13289316194E+03  0.41800000000E+01 0.  1.
         -5    1    3    3    0  502 -0.32065996928E+02 -0.41492917407E+02 -0.26800474825E+02  0.59039209046E+02  0.41800000000E+01 0.  1.
        -11    1    1    2    0    0  0.84046665580E+01 -0.39967931179E+02 -0.72946848964E+01  0.41488388381E+02  0.00000000000E+00 0.  1.
         11    1    1    2    0    0 -0.22042737877E+02  0.41401379939E+02 -0.51365587341E+02  0.69558465458E+02  0.00000000000E+00 0. -1.
</event>
<event>
 7    1  0.2601031E-009  0.1253542E+03  0.7561462E-02  0.1234517E+00
          1   -1    0    0  501    0  0.00000000000E+00  0.00000000000E+00  0.20549531032E+03  0.20549531032E+03  0.00000000000E+00 0. -1.
         -1   -1    0    0    0  501 -0.00000000000E+00 -0.00000000000E+00 -0.13121109033E+03  0.13121109033E+03  0.00000000000E+00 0.  1.
         25    2    1    2    0    0  0.70713319330E+02 -0.49745702454E+02 -0.47474788646E+02  0.15929953231E+03  0.12508987566E+03 0.  0.
          5    1    3    3  502    0  0.94863341664E+02 -0.65054492866E+02 -0.57560467146E+02  0.12869273644E+03  0.41800000000E+01 0. -1.
         -5    1    3    3    0  502 -0.24150022334E+02  0.15308790412E+02  0.10085678501E+02  0.30606795870E+02  0.41800000000E+01 0. -1.
        -11    1    1    2    0    0 -0.39118422649E+02  0.61592948112E+02  0.28678605699E+02  0.78399009385E+02  0.00000000000E+00 0.  1.
         11    1    1    2    0    0 -0.31594896681E+02 -0.11847245658E+02  0.93080402931E+02  0.99007858960E+02  0.00000000000E+00 0. -1.
</event>
<event>
 7    1  0.2601031E-009  0.1051911E+03  0.7561462E-02  0.1269744E+00
          1   -1    0    0  501    0  0.00000000000E+00  0.00000000000E+00  0.30587851233E+03  0.30587851233E+03  0.00000000000E+00 0. -1.
         -1   -1    0    0    0  501 -0.00000000000E+00 -0.00000000000E+00 -0.54708900794E+02  0.54708900794E+02  0.00000000000E+00 0.  1.
         25    2    1    2    0    0  0.17519706954E+02 -0.34899347752E+02  0.57253475910E+02  0.14300538234E+03  0.12509066420E+03 0.  0.
          5    1    3    3  502    0  0.59862365907E+02 -0.60740469366E+01 -0.70079349493E+01  0.60720510954E+02  0.41800000000E+01 0. -1.
         -5    1    3    3    0  502 -0.42342658953E+02 -0.28825300815E+02  0.64261410859E+02  0.82284871391E+02  0.41800000000E+01 0. -1.
        -11    1    1    2    0    0  0.11118550479E+02  0.59738671397E+02  0.12087901619E+03  0.13529252596E+03  0.00000000000E+00 0.  1.
         11    1    1    2    0    0 -0.28638257433E+02 -0.24839323645E+02  0.73037119430E+02  0.82289504814E+02  0.00000000000E+00 0. -1.
</event>
<event>
 7    1  0.2601031E-009  0.8917208E+02  0.7561462E-02  0.1304869E+00
         -1   -1    0    0    0  501 -0.00000000000E+00  0.00000000000E+00  0.22991390839E+02  0.22991390839E+02  0.00000000000E+00 0.  1.
          1   -1    0    0  501    0  0.00000000000E+00 -0.00000000000E+00 -0.13398882125E+04  0.13398882125E+04  0.00000000000E+00 0. -1.
         25    2    1    2    0    0  0.44349834248E+02  0.21393995693E+02 -0.11832092674E+04  0.11908223424E+04  0.12509624244E+03 0.  0.
          5    1    3    3  502    0  0.25984642418E+01  0.31250526100E+02 -0.70432381515E+02  0.77211010639E+02  0.41800000000E+01 0.  1.
         -5    1    3    3    0  502  0.41751370006E+02 -0.98565304069E+01 -0.11127768859E+04  0.11136113318E+04  0.41800000000E+01 0.  1.
        -11    1    1    2    0    0  0.12155532428E+02 -0.41798091507E+02 -0.81861768655E+02  0.92715622144E+02  0.00000000000E+00 0. -1.
         11    1    1    2    0    0 -0.56505366676E+02  0.20404095814E+02 -0.51825785562E+02  0.79341638742E+02  0.00000000000E+00 0.  1.
</event>
<event>
 7    1  0.2601031E-009  0.9212685E+02  0.7561462E-02  0.1297781E+00
         -1   -1    0    0    0  501 -0.00000000000E+00  0.00000000000E+00  0.11597798042E+03  0.11597798042E+03  0.00000000000E+00 0.  1.
          1   -1    0    0  501    0  0.00000000000E+00 -0.00000000000E+00 -0.20506788346E+03  0.20506788346E+03  0.00000000000E+00 0. -1.
         25    2    1    2    0    0 -0.63281372436E+02 -0.37015441997E+02  0.34125618211E+02  0.14895345141E+03  0.12509155777E+03 0.  0.
          5    1    3    3  502    0 -0.64524041186E+02  0.68508506041E+01  0.67454061154E+02  0.93689961101E+02  0.41800000000E+01 0.  1.
         -5    1    3    3    0  502  0.12426687498E+01 -0.43866292601E+02 -0.33328442943E+02  0.55263490309E+02  0.41800000000E+01 0.  1.
        -11    1    1    2    0    0  0.50570066980E+02  0.21135507164E+02 -0.83521093115E+01  0.55441853030E+02  0.00000000000E+00 0.  1.
         11    1    1    2    0    0  0.12711305456E+02  0.15879934833E+02 -0.11486341194E+03  0.11665055944E+03  0.00000000000E+00 0. -1.
</event>
<event>
 7    1  0.2601031E-009  0.1278075E+03  0.7561462E-02  0.1230746E+00
         -1   -1    0    0    0  501 -0.00000000000E+00  0.00000000000E+00  0.36406117584E+02  0.36406117584E+02  0.00000000000E+00 0.  1.
          1   -1    0    0  501    0  0.00000000000E+00 -0.00000000000E+00 -0.53438534418E+03  0.53438534418E+03  0.00000000000E+00 0. -1.
         25    2    1    2    0    0  0.73078559046E+02  0.10075517690E+02 -0.36913249170E+03  0.39667223837E+03  0.12509227160E+03 0.  0.
          5    1    3    3  502    0  0.73522328394E+02  0.56446674120E+02 -0.18798932060E+03  0.20964068511E+03  0.41800000000E+01 0. -1.
         -5    1    3    3    0  502 -0.44376934852E+00 -0.46371156430E+02 -0.18114317110E+03  0.18703155327E+03  0.41800000000E+01 0. -1.
        -11    1    1    2    0    0 -0.55529129944E+01 -0.41442159133E+02 -0.56638485988E+02  0.70400323091E+02  0.00000000000E+00 0.  1.
         11    1    1    2    0    0 -0.67525646051E+02  0.31366641443E+02 -0.72208248908E+02  0.10371890031E+03  0.00000000000E+00 0. -1.
</event>
<event>
 7    1  0.2601031E-009  0.7210712E+02  0.7561462E-02  0.1353071E+00
         -1   -1    0    0    0  501 -0.00000000000E+00  0.00000000000E+00  0.27006370463E+03  0.27006370463E+03  0.00000000000E+00 0.  1.
          1   -1    0    0  501    0  0.00000000000E+00 -0.00000000000E+00 -0.55100967935E+02  0.55100967935E+02  0.00000000000E+00 0. -1.
         25    2    1    2    0    0  0.11947782395E+02  0.21855590642E+02  0.12965148807E+03  0.18187217317E+03  0.12509021812E+03 0.  0.
          5    1    3    3  502    0 -0.24830953151E+02  0.46551272668E+02  0.95333047196E+01  0.53776886488E+02  0.41800000000E+01 0.  1.
         -5    1    3    3    0  502  0.36778735546E+02 -0.24695682026E+02  0.12011818335E+03  0.12809528668E+03  0.41800000000E+01 0.  1.
        -11    1    1    2    0    0  0.12158994299E+02 -0.18943061087E+02 -0.23065493981E+02  0.32228833648E+02  0.00000000000E+00 0. -1.
         11    1    1    2    0    0 -0.24106776694E+02 -0.29125295552E+01  0.10837674261E+03  0.11106366575E+03  0.00000000000E+00 0.  1.
</event>
<event>
 7    1  0.2601031E-009  0.9199984E+02  0.7561462E-02  0.1298080E+00
          1   -1    0    0  501    0  0.00000000000E+00  0.00000000000E+00  0.63131309570E+02  0.63131309570E+02  0.00000000000E+00 0. -1.
         -1   -1    0    0    0  501 -0.00000000000E+00 -0.00000000000E+00 -0.29882818180E+03  0.29882818180E+03  0.00000000000E+00 0.  1.
         25    2    1    2    0    0 -0.27143085012E+02 -0.31570046010E+02 -0.22719191932E+03  0.26267102986E+03  0.12508591789E+03 0.  0.
          5    1    3    3  502    0 -0.67643500459E+02 -0.36419125585E+02 -0.19775720504E+03  0.21219656078E+03  0.41800000000E+01 0. -1.
         -5    1    3    3    0  502  0.40500415446E+02  0.48490795752E+01 -0.29434714277E+02  0.50474469077E+02  0.41800000000E+01 0. -1.
        -11    1    1    2    0    0  0.36054410431E+02  0.30554263827E+01 -0.41311849248E+02  0.54917438307E+02  0.00000000000E+00 0.  1.
         11    1    1    2    0    0 -0.89113254183E+01  0.28514619627E+02  0.32806896334E+02  0.44371023205E+02  0.00000000000E+00 0. -1.
</event>
<event>
 7    1  0.2601031E-009  0.1158865E+03  0.7561462E-02  0.1250042E+00
          2   -1    0    0  501    0  0.00000000000E+00  0.00000000000E+00  0.10882539664E+04  0.10882539664E+04  0.00000000000E+00 0. -1.
         -2   -1    0    0    0  501 -0.00000000000E+00 -0.00000000000E+00 -0.20592746179E+02  0.20592746179E+02  0.00000000000E+00 0.  1.
         25    2    1    2    0    0  0.35680648236E+02 -0.67463293094E+02  0.82310768817E+03  0.83605030903E+03  0.12509775514E+03 0.  0.
          5    1    3    3  502    0  0.60772367026E+02 -0.57712826104E+02  0.78348585914E+03  0.78796675994E+03  0.41800000000E+01 0.  1.
         -5    1    3    3    0  502 -0.25091718790E+02 -0.97504669905E+01  0.39621829026E+02  0.48083549096E+02  0.41800000000E+01 0.  1.
        -11    1    1    2    0    0 -0.61881530322E+02  0.17676342422E+02  0.12151349065E+03  0.13750383735E+03  0.00000000000E+00 0. -1.
         11    1    1    2    0    0  0.26200882086E+02  0.49786950672E+02  0.12304004142E+03  0.13529256621E+03  0.00000000000E+00 0.  1.
</event>
<event>
 7    1  0.2601031E-009  0.1061580E+03  0.7561462E-02  0.1267855E+00
          2   -1    0    0  501    0  0.00000000000E+00  0.00000000000E+00  0.98195966641E+03  0.98195966641E+03  0.00000000000E+00 0. -1.
         -2   -1    0    0    0  501 -0.00000000000E+00 -0.00000000000E+00 -0.19619168681E+02  0.19619168681E+02  0.00000000000E+00 0.  1.
         25    2    1    2    0    0  0.13984499324E+01 -0.53265177153E+02  0.77673022245E+03  0.78854064341E+03  0.12508946033E+03 0.  0.
          5    1    3    3  502    0 -0.51222100005E+02 -0.59280669095E+02  0.55592057333E+03  0.56142947688E+03  0.41800000000E+01 0.  1.
         -5    1    3    3    0  502  0.52620549937E+02  0.60154919420E+01  0.22080964912E+03  0.22711116653E+03  0.41800000000E+01 0.  1.
        -11    1    1    2    0    0 -0.23460102160E+02  0.41707174385E+00  0.55791528018E+01  0.24117986819E+02  0.00000000000E+00 0.  1.
         11    1    1    2    0    0  0.22061652228E+02  0.52848105409E+02  0.18003112248E+03  0.18892020486E+03  0.00000000000E+00 0. -1.
</event>
<event>
 7    1  0.2601031E-009  0.1113374E+03  0.7561462E-02  0.1258113E+00
          1   -1    0    0  501    0  0.00000000000E+00  0.00000000000E+00  0.31205718478E+03  0.31205718478E+03  0.00000000000E+00 0. -1.
         -1   -1    0    0    0  501 -0.00000000000E+00 -0.00000000000E+00 -0.41874765393E+02  0.41874765393E+02  0.00000000000E+00 0.  1.
         25    2    1    2    0    0 -0.31955500493E+02  0.39275695871E+01  0.12779608741E+03  0.18170180319E+03  0.12508847074E+03 0.  0.
          5    1    3    3  502    0 -0.42559600334E+02  0.58372248679E+02  0.59955647822E+02  0.93972289012E+02  0.41800000000E+01 0.  1.
         -5    1    3    3    0  502  0.10604099841E+02 -0.54444679092E+02  0.67840439585E+02  0.87729514178E+02  0.41800000000E+01 0.  1.
        -11    1    1    2    0    0  0.49803323456E+02 -0.33589025387E+02  0.10711303416E+03  0.12280796286E+03  0.00000000000E+00 0. -1.
         11    1    1    2    0    0 -0.17847822964E+02  0.29661455800E+02  0.35273297819E+02  0.49422184126E+02  0.00000000000E+00 0.  1.
</event>
<event>
 7    1  0.2601031E-009  0.1603162E+03  0.7561462E-02  0.1188340E+00
         -2   -1    0    0    0  501 -0.00000000000E+00  0.00000000000E+00  0.47052800568E+03  0.47052800568E+03  0.00000000000E+00 0.  1.
          2   -1    0    0  501    0  0.00000000000E+00 -0.00000000000E+00 -0.68324386855E+02  0.68324386855E+02  0.00000000000E+00 0. -1.
         25    2    1    2    0    0  0.10713650072E+03 -0.82279148327E+02  0.14554255480E+03  0.23468564342E+03  0.12508648182E+03 0.  0.
          5    1    3    3  502    0  0.63769325631E+02  0.20929850773E+02  0.29632398063E+02  0.73485624171E+02  0.41800000000E+01 0. -1.
         -5    1    3    3    0  502  0.43367175088E+02 -0.10320899910E+03  0.11591015674E+03  0.16120001925E+03  0.41800000000E+01 0. -1.
        -11    1    1    2    0    0 -0.52724837706E+02  0.14974345388E+02  0.18130957789E+03  0.18941304751E+03  0.00000000000E+00 0.  1.
         11    1    1    2    0    0 -0.54411663013E+02  0.67304802939E+02  0.75351486129E+02  0.11475370161E+03  0.00000000000E+00 0. -1.
</event>
<event>
 7    1  0.2601031E-009  0.1033626E+03  0.7561462E-02  0.1273380E+00
         -1   -1    0    0    0  501 -0.00000000000E+00  0.00000000000E+00  0.30267801564E+02  0.30267801564E+02  0.00000000000E+00 0.  1.
          1   -1    0    0  501    0  0.00000000000E+00 -0.00000000000E+00 -0.41424688402E+03  0.41424688402E+03  0.00000000000E+00 0. -1.
         25    2    1    2    0    0  0.25989211326E+02  0.14436536253E+02 -0.20938941499E+03  0.24571416242E+03  0.12509064640E+03 0.  0.
          5    1    3    3  502    0  0.26980414875E+01 -0.46283201497E+02 -0.15169610305E+03  0.15867764257E+03  0.41800000000E+01 0. -1.
         -5    1    3    3    0  502  0.23291169839E+02  0.60719737751E+02 -0.57693311938E+02  0.87036519848E+02  0.41800000000E+01 0. -1.
        -11    1    1    2    0    0 -0.31799160020E+02 -0.49845586036E+02 -0.10487170798E+03  0.12039038234E+03  0.00000000000E+00 0.  1.
         11    1    1    2    0    0  0.58099486934E+01  0.35409049782E+02 -0.69717959475E+02  0.78410140821E+02  0.00000000000E+00 0. -1.
</event>
<event>
 7    1  0.2601031E-009  0.9411310E+02  0.7561462E-02  0.1293186E+00
         -1   -1    0    0    0  501 -0.00000000000E+00  0.00000000000E+00  0.65393271832E+02  0.65393271832E+02  0.00000000000E+00 0.  1.
          1   -1    0    0  501    0  0.00000000000E+00 -0.00000000000E+00 -0.25340387240E+03  0.25340387240E+03  0.00000000000E+00 0. -1.
         25    2    1    2    0    0  0.24262853310E+02 -0.48885751766E+02 -0.15583263226E+03  0.20715496480E+03  0.12510342675E+03 0.  0.
          5    1    3    3  502    0  0.39098809919E+02 -0.11472245939E+02 -0.16121242125E+03  0.16633474240E+03  0.41800000000E+01 0. -1.
         -5    1    3    3    0  502 -0.14835956609E+02 -0.37413505827E+02  0.53797889885E+01  0.40820222394E+02  0.41800000000E+01 0. -1.
        -11    1    1    2    0    0  0.37888574997E+01 -0.26290245191E+02 -0.10140702781E+02  0.28431783029E+02  0.00000000000E+00 0.  1.
         11    1    1    2    0    0 -0.28051710810E+02  0.75175996956E+02 -0.22037265520E+02  0.83210396402E+02  0.00000000000E+00 0. -1.
</event>
<event>
 7    1  0.2601031E-009  0.1297190E+03  0.7561462E-02  0.1227873E+00
         -1   -1    0    0    0  501 -0.00000000000E+00  0.00000000000E+00  0.12755295213E+03  0.12755295213E+03  0.00000000000E+00 0.  1.
          1   -1    0    0  501    0  0.00000000000E+00 -0.00000000000E+00 -0.19880876048E+03  0.19880876048E+03  0.00000000000E+00 0. -1.
         25    2    1    2    0    0 -0.35162046352E+01  0.90390997083E+02  0.37301752547E+02  0.15881374335E+03  0.12508992079E+03 0.  0.
          5    1    3    3  502    0  0.13978537059E+02  0.11662103713E+03  0.45399947474E+02  0.12599402140E+03  0.41800000000E+01 0. -1.
         -5    1    3    3    0  502 -0.17494741694E+02 -0.26230040042E+02 -0.80981949276E+01  0.32819721946E+02  0.41800000000E+01 0. -1.
        -11    1    1    2    0    0  0.32922064515E+02 -0.54877690861E+02 -0.18897729852E+02  0.66727411757E+02  0.00000000000E+00 0.  1.
         11    1    1    2    0    0 -0.29405859880E+02 -0.35513306222E+02 -0.89659831043E+02  0.10082055751E+03  0.00000000000E+00 0. -1.
</event>
<event>
 7    1  0.2601031E-009  0.2061524E+03  0.7561462E-02  0.1144650E+00
         -1   -1    0    0    0  501 -0.00000000000E+00  0.00000000000E+00  0.10098324686E+03  0.10098324686E+03  0.00000000000E+00 0.  1.
          1   -1    0    0  501    0  0.00000000000E+00 -0.00000000000E+00 -0.47581845909E+03  0.47581845909E+03  0.00000000000E+00 0. -1.
         25    2    1    2    0    0  0.16162660837E+03  0.98842622701E+02 -0.20963250391E+03  0.30900861221E+03  0.12509001212E+03 0.  0.
          5    1    3    3  502    0  0.92521751891E+02  0.71321569718E+01 -0.33577617861E+02  0.98772825500E+02  0.41800000000E+01 0. -1.
         -5    1    3    3    0  502  0.69104856478E+02  0.91710465729E+02 -0.17605488605E+03  0.21023578671E+03  0.41800000000E+01 0. -1.
        -11    1    1    2    0    0 -0.12996240041E+03 -0.37158196378E+02 -0.76874649965E+02  0.15550134689E+03  0.00000000000E+00 0. -1.
         11    1    1    2    0    0 -0.31664207959E+02 -0.61684426323E+02 -0.88328058353E+02  0.11229174684E+03  0.00000000000E+00 0.  1.
</event>
<event>
 7    1  0.2601031E-009  0.2171064E+03  0.7561462E-02  0.1136059E+00
          1   -1    0    0  501    0  0.00000000000E+00  0.00000000000E+00  0.28451629282E+03  0.28451629282E+03  0.00000000000E+00 0. -1.
         -1   -1    0    0    0  501 -0.00000000000E+00 -0.00000000000E+00 -0.18433475012E+03  0.18433475012E+03  0.00000000000E+00 0.  1.
         25    2    1    2    0    0 -0.19284073095E+03  0.53242977649E+02  0.59948279266E+02  0.24344297606E+03  0.12509326210E+03 0.  0.
          5    1    3    3  502    0 -0.12534540206E+03  0.83980750384E+02  0.49519166728E+01  0.15101731732E+03  0.41800000000E+01 0.  1.
         -5    1    3    3    0  502 -0.67495328883E+02 -0.30737772734E+02  0.54996362593E+02  0.92425658733E+02  0.41800000000E+01 0.  1.
        -11    1    1    2    0    0  0.87908887773E+02 -0.55635487196E+02  0.57763020267E+02  0.11899515324E+03  0.00000000000E+00 0. -1.
         11    1    1    2    0    0  0.10493184317E+03  0.23925095470E+01 -0.17529756838E+02  0.10641291364E+03  0.00000000000E+00 0.  1.
</event>
<event>
 7    1  0.2601031E-009  0.1091291E+03  0.7561462E-02  0.1262191E+00
         -2   -1    0    0    0  501 -0.00000000000E+00  0.00000000000E+00  0.51445187450E+02  0.51445187450E+02  0.00000000000E+00 0.  1.
          2   -1    0    0  501    0  0.00000000000E+00 -0.00000000000E+00 -0.44414607691E+03  0.44414607691E+03  0.00000000000E+00 0. -1.
         25    2    1    2    0    0  0.55397684950E+02 -0.22917375216E+02 -0.72606434081E+02  0.15656727971E+03  0.12509000448E+03 0.  0.
          5    1    3    3  502    0  0.84435400334E+02 -0.30940898094E+02 -0.84918794203E+02  0.12375520196E+03  0.41800000000E+01 0. -1.
         -5    1    3    3    0  502 -0.29037715384E+02  0.80235228777E+01  0.12312360122E+02  0.32812077744E+02  0.41800000000E+01 0. -1.
        -11    1    1    2    0    0  0.11295691035E+02  0.28733645040E+02 -0.37333244491E+02  0.48445702982E+02  0.00000000000E+00 0.  1.
         11    1    1    2    0    0 -0.66693375985E+02 -0.58162698237E+01 -0.28276121088E+03  0.29057828166E+03  0.00000000000E+00 0. -1.
</event>
<event>
 7    1  0.2601031E-009  0.1018832E+03  0.7561462E-02  0.1276385E+00
         -1   -1    0    0    0  501 -0.00000000000E+00  0.00000000000E+00  0.79919874914E+02  0.79919874914E+02  0.00000000000E+00 0.  1.
          1   -1    0    0  501    0  0.00000000000E+00 -0.00000000000E+00 -0.16107128433E+03  0.16107128433E+03  0.00000000000E+00 0. -1.
         25    2    1    2    0    0  0.22241077705E+02 -0.19235763341E+02 -0.30908040239E+02  0.13216300100E+03  0.12508825586E+03 0.  0.
          5    1    3    3  502    0  0.37483803593E+02  0.43726741616E+02  0.50281617591E+01  0.57963939435E+02  0.41800000000E+01 0. -1.
         -5    1    3    3    0  502 -0.15242725888E+02 -0.62962504958E+02 -0.35936201998E+02  0.74199061565E+02  0.41800000000E+01 0. -1.
        -11    1    1    2    0    0  0.17138162235E+02  0.34776434866E+02 -0.53833637812E+02  0.66341371608E+02  0.00000000000E+00 0.  1.
         11    1    1    2    0    0 -0.39379239940E+02 -0.15540671525E+02  0.35902686354E+01  0.42486786635E+02  0.00000000000E+00 0. -1.
</event>
<event>
 7    1  0.2601031E-009  0.1049380E+03  0.7561462E-02  0.1270242E+00
          1   -1    0    0  501    0  0.00000000000E+00  0.00000000000E+00  0.68001207466E+02  0.68001207466E+02  0.00000000000E+00 0. -1.
         -1   -1    0    0    0  501 -0.00000000000E+00 -0.00000000000E+00 -0.27188218079E+03  0.27188218079E+03  0.00000000000E+00 0.  1.
         25    2    1    2    0    0  0.34041066373E+02  0.65437536190E+02 -0.71000599281E+02  0.16164632338E+03  0.12509030107E+03 0.  0.
          5    1    3    3  502    0  0.59918614943E+02  0.68923052363E+02 -0.90615729070E+02  0.12872183311E+03  0.41800000000E+01 0. -1.
         -5    1    3    3    0  502 -0.25877548570E+02 -0.34855161726E+01  0.19615129789E+02  0.32924490271E+02  0.41800000000E+01 0. -1.
        -11    1    1    2    0    0  0.14846072756E+02 -0.22426002671E+02  0.34882296119E+01  0.27120088825E+02  0.00000000000E+00 0. -1.
         11    1    1    2    0    0 -0.48887139129E+02 -0.43011533520E+02 -0.13636860365E+03  0.15111697605E+03  0.00000000000E+00 0.  1.
</event>
<event>
 7    1  0.2601031E-009  0.1414102E+03  0.7561462E-02  0.1211444E+00
          2   -1    0    0  501    0  0.00000000000E+00  0.00000000000E+00  0.47991565674E+03  0.47991565674E+03  0.00000000000E+00 0. -1.
         -2   -1    0    0    0  501 -0.00000000000E+00 -0.00000000000E+00 -0.54599380187E+02  0.54599380187E+02  0.00000000000E+00 0.  1.
         25    2    1    2    0    0  0.21604672931E+00 -0.97194516495E+02  0.34353281064E+03  0.37829805755E+03  0.12509119730E+03 0.  0.
          5    1    3    3  502    0  0.60545661858E+02 -0.61287812515E+02  0.21735129884E+03  0.23383975847E+03  0.41800000000E+01 0.  1.
         -5    1    3    3    0  502 -0.60329615128E+02 -0.35906703980E+02  0.12618151180E+03  0.14445829908E+03  0.41800000000E+01 0.  1.
        -11    1    1    2    0    0  0.32063580190E+02  0.86469090879E+02  0.35590989864E+02  0.98851886231E+02  0.00000000000E+00 0.  1.
         11    1    1    2    0    0 -0.32279626920E+02  0.10725425616E+02  0.46192476052E+02  0.57365093154E+02  0.00000000000E+00 0. -1.
</event>
<event>
 7    1  0.2601031E-009  0.1149598E+03  0.7561462E-02  0.1251651E+00
         -1   -1    0    0    0  501 -0.00000000000E+00  0.00000000000E+00  0.50941725202E+02  0.50941725202E+02  0.00000000000E+00 0.  1.
          1   -1    0    0  501    0  0.00000000000E+00 -0.00000000000E+00 -0.38358398547E+03  0.38358398547E+03  0.00000000000E+00 0. -1.
         25    2    1    2    0    0  0.77009794173E+02 -0.25796708700E+02 -0.12749432685E+03  0.19621084783E+03  0.12509162581E+03 0.  0.
          5    1    3    3  502    0  0.13643194576E+02 -0.41784113726E+02  0.87806793774E+01  0.45018014710E+02  0.41800000000E+01 0.  1.
         -5    1    3    3    0  502  0.63366599597E+02  0.15987405027E+02 -0.13627500623E+03  0.15119283312E+03  0.41800000000E+01 0.  1.
        -11    1    1    2    0    0 -0.84069902258E+02 -0.92062227490E+01 -0.15752091653E+03  0.17878854032E+03  0.00000000000E+00 0. -1.
         11    1    1    2    0    0  0.70601080852E+01  0.35002931449E+02 -0.47627016881E+02  0.59526322524E+02  0.00000000000E+00 0.  1.
</event>
<event>
 7    1  0.2601031E-009  0.3199154E+03  0.7561462E-02  0.1075688E+00
          2   -1    0    0  501    0  0.00000000000E+00  0.00000000000E+00  0.13043311426E+04  0.13043311426E+04  0.00000000000E+00 0. -1.
         -2   -1    0    0    0  501 -0.00000000000E+00 -0.00000000000E+00 -0.90652835576E+02  0.90652835576E+02  0.00000000000E+00 0.  1.
         25    2    1    2    0    0  0.13857449532E+03  0.28765177096E+03  0.47544894976E+03  0.58621275222E+03  0.12508898811E+03 0.  0.
          5    1    3    3  502    0  0.56690795243E+02  0.13860996814E+03  0.11924839987E+03  0.19147904012E+03  0.41800000000E+01 0.  1.
         -5    1    3    3    0  502  0.81883700079E+02  0.14904180282E+03  0.35620054989E+03  0.39473371210E+03  0.41800000000E+01 0.  1.
        -11    1    1    2    0    0 -0.12209783343E+03 -0.23627986706E+03  0.67585138437E+03  0.72629962843E+03  0.00000000000E+00 0. -1.
         11    1    1    2    0    0 -0.16476661890E+02 -0.51371903901E+02  0.62377972928E+02  0.82471597560E+02  0.00000000000E+00 0.  1.
</event>
<event>
 7    1  0.2601031E-009  0.1421697E+03  0.7561462E-02  0.1210439E+00
         -1   -1    0    0    0  501 -0.00000000000E+00  0.00000000000E+00  0.42226438383E+02  0.42226438383E+02  0.00000000000E+00 0.  1.
          1   -1    0    0  501    0  0.00000000000E+00 -0.00000000000E+00 -0.54029680495E+03  0.54029680495E+03  0.00000000000E+00 0. -1.
         25    2    1    2    0    0 -0.58391658707E+02  0.72275587643E+02 -0.17708227694E+03  0.23587785578E+03  0.12508750402E+03 0.  0.
          5    1    3    3  502    0 -0.16126813783E+02  0.10089820800E+03 -0.13635574442E+03  0.17044319857E+03  0.41800000000E+01 0. -1.
         -5    1    3    3    0  502 -0.42264844923E+02 -0.28622620362E+02 -0.40726532520E+02  0.65434657208E+02  0.41800000000E+01 0. -1.
        -11    1    1    2    0    0  0.17549927621E+02  0.21985210772E+02 -0.66485273657E+02  0.72191696652E+02  0.00000000000E+00 0.  1.
         11    1    1    2    0    0  0.40841731085E+02 -0.94260798415E+02 -0.25450281597E+03  0.27445369091E+03  0.00000000000E+00 0. -1.
</event>
<event>
 7    1  0.2601031E-009  0.1151813E+03  0.7561462E-02  0.1251265E+00
          2   -1    0    0  501    0  0.00000000000E+00  0.00000000000E+00  0.13664385688E+03  0.13664385688E+03  0.00000000000E+00 0. -1.
         -2   -1    0    0    0  501 -0.00000000000E+00 -0.00000000000E+00 -0.14218697024E+03  0.14218697024E+03  0.00000000000E+00 0.  1.
         25    2    1    2    0    0 -0.43771191599E+02 -0.45456913167E+02  0.56317453456E+02  0.15100128282E+03  0.12508990240E+03 0.  0.
          5    1    3    3  502    0 -0.58785642494E+01 -0.72745387238E+02 -0.56235694635E+01  0.73318113829E+02  0.41800000000E+01 0. -1.
         -5    1    3    3    0  502 -0.37892627350E+02  0.27288474071E+02  0.61941022920E+02  0.77683168994E+02  0.41800000000E+01 0. -1.
        -11    1    1    2    0    0 -0.12118094413E+02  0.52650792606E+02 -0.40680160391E+02  0.67630094068E+02  0.00000000000E+00 0.  1.
         11    1    1    2    0    0  0.55889286012E+02 -0.71938794390E+01 -0.21180406426E+02  0.60199450236E+02  0.00000000000E+00 0. -1.
</event>
<event>
 7    1  0.2601031E-009  0.8755308E+02  0.7561462E-02  0.1308888E+00
         -2   -1    0    0    0  501 -0.00000000000E+00  0.00000000000E+00  0.11600283299E+03  0.11600283299E+03  0.00000000000E+00 0.  1.
          2   -1    0    0  501    0  0.00000000000E+00 -0.00000000000E+00 -0.13328095088E+03  0.13328095088E+03  0.00000000000E+00 0. -1.
         25    2    1    2    0    0 -0.42828464832E+02  0.37907343284E+02  0.94558577988E+01  0.13786520778E+03  0.12508460414E+03 0.  0.
          5    1    3    3  502    0 -0.36942363740E+02 -0.29917212057E+02  0.40814800782E+02  0.62794093503E+02  0.41800000000E+01 0.  1.
         -5    1    3    3    0  502 -0.58861010914E+01  0.67824555341E+02 -0.31358942983E+02  0.75071114273E+02  0.41800000000E+01 0.  1.
        -11    1    1    2    0    0  0.21480553871E+02 -0.28897355915E+02 -0.60537228726E+02  0.70435981113E+02  0.00000000000E+00 0. -1.
         11    1    1    2    0    0  0.21347910961E+02 -0.90099873686E+01  0.33803253040E+02  0.40982594975E+02  0.00000000000E+00 0.  1.
</event>
<event>
 7    1  0.2601031E-009  0.1212976E+03  0.7561462E-02  0.1240972E+00
          1   -1    0    0  501    0  0.00000000000E+00  0.00000000000E+00  0.98246793506E+03  0.98246793506E+03  0.00000000000E+00 0. -1.
         -1   -1    0    0    0  501 -0.00000000000E+00 -0.00000000000E+00 -0.19357145893E+02  0.19357145893E+02  0.00000000000E+00 0.  1.
         25    2    1    2    0    0 -0.43650566211E+02  0.60467780567E+02  0.69105340984E+03  0.70623389536E+03  0.12509906187E+03 0.  0.
          5    1    3    3  502    0  0.20410872593E+02 -0.20569201735E+02  0.31082881271E+03  0.31220461078E+03  0.41800000000E+01 0.  1.
         -5    1    3    3    0  502 -0.64061438804E+02  0.81036982302E+02  0.38022459713E+03  0.39402928458E+03  0.41800000000E+01 0.  1.
        -11    1    1    2    0    0 -0.21498281283E+02 -0.32654160336E+02  0.14437630945E+03  0.14957603089E+03  0.00000000000E+00 0.  1.
         11    1    1    2    0    0  0.65148847493E+02 -0.27813620231E+02  0.12768106987E+03  0.14601515471E+03  0.00000000000E+00 0. -1.
</event>
<event>
 7    1  0.2601031E-009  0.1024859E+03  0.7561462E-02  0.1275154E+00
         -3   -1    0    0    0  501 -0.00000000000E+00  0.00000000000E+00  0.14573024765E+03  0.14573024765E+03  0.00000000000E+00 0.  1.
          3   -1    0    0  501    0  0.00000000000E+00 -0.00000000000E+00 -0.84244673237E+02  0.84244673237E+02  0.00000000000E+00 0. -1.
         25    2    1    2    0    0 -0.19809609532E+02  0.13522512155E+02  0.43289204112E+02  0.13452409652E+03  0.12508996117E+03 0.  0.
          5    1    3    3  502    0 -0.47492359017E+02  0.57756572286E+02  0.28429796898E+02  0.80106626186E+02  0.41800000000E+01 0.  1.
         -5    1    3    3    0  502  0.27682749485E+02 -0.44234060130E+02  0.14859407214E+02  0.54417470333E+02  0.41800000000E+01 0.  1.
        -11    1    1    2    0    0  0.12527672341E+02  0.30571649484E+02  0.34603220052E+02  0.47842984485E+02  0.00000000000E+00 0.  1.
         11    1    1    2    0    0  0.72819371916E+01 -0.44094161640E+02 -0.16406849748E+02  0.47607839886E+02  0.00000000000E+00 0. -1.
</event>
<event>
 7    1  0.2601031E-009  0.1073701E+03  0.7561462E-02  0.1265519E+00
          1   -1    0    0  501    0  0.00000000000E+00  0.00000000000E+00  0.47253908489E+03  0.47253908489E+03  0.00000000000E+00 0. -1.
         -1   -1    0    0    0  501 -0.00000000000E+00 -0.00000000000E+00 -0.26042610755E+02  0.26042610755E+02  0.00000000000E+00 0.  1.
         25    2    1    2    0    0 -0.87641376220E+01 -0.15050433617E+01  0.22183406873E+03  0.25482682749E+03  0.12508909904E+03 0.  0.
          5    1    3    3  502    0 -0.43890390507E+02 -0.47649699168E+02  0.92315814249E+02  0.11285628990E+03  0.41800000000E+01 0.  1.
         -5    1    3    3    0  502  0.35126252885E+02  0.46144655806E+02  0.12951825448E+03  0.14197053759E+03  0.41800000000E+01 0.  1.
        -11    1    1    2    0    0 -0.31238186797E+02 -0.28017529024E+02  0.73602697072E+02  0.84724041826E+02  0.00000000000E+00 0.  1.
         11    1    1    2    0    0  0.40002324419E+02  0.29522572385E+02  0.15105970834E+03  0.15903082632E+03  0.00000000000E+00 0. -1.
</event>
<event>
 7    1  0.2601031E-009  0.1205562E+03  0.7561462E-02  0.1242182E+00
         -1   -1    0    0    0  501 -0.00000000000E+00  0.00000000000E+00  0.95163124036E+02  0.95163124036E+02  0.00000000000E+00 0.  1.
          1   -1    0    0  501    0  0.00000000000E+00 -0.00000000000E+00 -0.19516396084E+03  0.19516396084E+03  0.00000000000E+00 0. -1.
         25    2    1    2    0    0  0.44047297375E+02 -0.68845410750E+02 -0.46933313242E+02  0.15663269979E+03  0.12510480312E+03 0.  0.
          5    1    3    3  502    0  0.64250811654E+01 -0.83988544919E+02 -0.70164533610E+02  0.10970821082E+03  0.41800000000E+01 0.  1.
         -5    1    3    3    0  502  0.37622216209E+02  0.15143134169E+02  0.23231220368E+02  0.46924488966E+02  0.41800000000E+01 0.  1.
        -11    1    1    2    0    0 -0.53906658397E+02  0.81568156476E+01 -0.46871853706E+02  0.71898763069E+02  0.00000000000E+00 0. -1.
         11    1    1    2    0    0  0.98593610223E+01  0.60688595102E+02 -0.61956698541E+01  0.61795622015E+02  0.00000000000E+00 0.  1.
</event>
<event>
 7    1  0.2601031E-009  0.9747229E+02  0.7561462E-02  0.1285703E+00
         -2   -1    0    0    0  501 -0.00000000000E+00  0.00000000000E+00  0.50245476995E+02  0.50245476995E+02  0.00000000000E+00 0.  1.
          2   -1    0    0  501    0  0.00000000000E+00 -0.00000000000E+00 -0.24749275591E+03  0.24749275591E+03  0.00000000000E+00 0. -1.
         25    2    1    2    0    0 -0.21787545148E+02 -0.28485965885E+02 -0.12535493409E+03  0.18068873195E+03  0.12509360885E+03 0.  0.
          5    1    3    3  502    0 -0.63641281494E+02  0.16762650888E+02 -0.81942113501E+02  0.10518165971E+03  0.41800000000E+01 0. -1.
         -5    1    3    3    0  502  0.41853736345E+02 -0.45248616773E+02 -0.43412820587E+02  0.75507072233E+02  0.41800000000E+01 0. -1.
        -11    1    1    2    0    0 -0.15571010728E+02 -0.57002790468E+01 -0.63611792995E+02  0.65737430467E+02  0.00000000000E+00 0. -1.
         11    1    1    2    0    0  0.37358555877E+02  0.34186244932E+02 -0.82805518341E+01  0.51312070494E+02  0.00000000000E+00 0.  1.
</event>
<event>
 7    1  0.2601031E-009  0.1220106E+03  0.7561462E-02  0.1239817E+00
         -1   -1    0    0    0  501 -0.00000000000E+00  0.00000000000E+00  0.24131981547E+02  0.24131981547E+02  0.00000000000E+00 0.  1.
          1   -1    0    0  501    0  0.00000000000E+00 -0.00000000000E+00 -0.72272106288E+03  0.72272106288E+03  0.00000000000E+00 0. -1.
         25    2    1    2    0    0  0.64732158599E+02  0.47417168073E+02 -0.41043999965E+03  0.43651765649E+03  0.12509208980E+03 0.  0.
          5    1    3    3  502    0  0.89775400243E+02  0.18734280108E+02 -0.36829907081E+03  0.37956853624E+03  0.41800000000E+01 0. -1.
         -5    1    3    3    0  502 -0.25043241644E+02  0.28682887966E+02 -0.42140928833E+02  0.56949120248E+02  0.41800000000E+01 0. -1.
        -11    1    1    2    0    0 -0.29725739072E+02 -0.67356348821E+02 -0.20769791379E+03  0.22036088737E+03  0.00000000000E+00 0. -1.
         11    1    1    2    0    0 -0.35006419527E+02  0.19939180748E+02 -0.80451167896E+02  0.89974500570E+02  0.00000000000E+00 0.  1.
</event>
<event>
 7    1  0.2601031E-009  0.1696752E+03  0.7561462E-02  0.1178187E+00
          2   -1    0    0  501    0  0.00000000000E+00  0.00000000000E+00  0.39837063499E+03  0.39837063499E+03  0.00000000000E+00 0. -1.
         -2   -1    0    0    0  501 -0.00000000000E+00 -0.00000000000E+00 -0.81658128708E+02  0.81658128708E+02  0.00000000000E+00 0.  1.
         25    2    1    2    0    0  0.68220455780E+02  0.12615163412E+03  0.16488595265E+03  0.25180067723E+03  0.12509171954E+03 0.  0.
          5    1    3    3  502    0 -0.13259465663E+02  0.79958460820E+02  0.27934854381E+02  0.85831214460E+02  0.41800000000E+01 0. -1.
         -5    1    3    3    0  502  0.81479921443E+02  0.46193173297E+02  0.13695109826E+03  0.16596946277E+03  0.41800000000E+01 0. -1.
        -11    1    1    2    0    0 -0.85138203231E+02 -0.86715465916E+02  0.83152946599E+02  0.14724978169E+03  0.00000000000E+00 0.  1.
         11    1    1    2    0    0  0.16917747450E+02 -0.39436168201E+02  0.68673607037E+02  0.80978304778E+02  0.00000000000E+00 0. -1.
</event>
<event>
 7    1  0.2601031E-009  0.1048223E+03  0.7561462E-02  0.1270470E+00
         -2   -1    0    0    0  501 -0.00000000000E+00  0.00000000000E+00  0.24914672820E+02  0.24914672820E+02  0.00000000000E+00 0. -1.
          2   -1    0    0  501    0  0.00000000000E+00 -0.00000000000E+00 -0.34748361608E+04  0.34748361608E+04  0.00000000000E+00 0.  1.
         25    2    1    2    0    0 -0.57001325095E+02 -0.63107572812E+02 -0.33090349556E+04  0.33124903806E+04  0.12509383401E+03 0.  0.
          5    1    3    3  502    0  0.24262786703E+02 -0.23601594766E+02 -0.27492664818E+03  0.27703402746E+03  0.41800000000E+01 0. -1.
         -5    1    3    3    0  502 -0.81264111798E+02 -0.39505978046E+02 -0.30341083075E+04  0.30354563532E+04  0.41800000000E+01 0. -1.
        -11    1    1    2    0    0  0.11371593963E+02  0.14281089964E+02  0.11005882873E+02  0.21316475732E+02  0.00000000000E+00 0. -1.
         11    1    1    2    0    0  0.45629731132E+02  0.48826482848E+02 -0.15189241527E+03  0.16594397731E+03  0.00000000000E+00 0.  1.
</event>
<event>
 7    1  0.2601031E-009  0.1220437E+03  0.7561462E-02  0.1239763E+00
         -2   -1    0    0    0  501 -0.00000000000E+00  0.00000000000E+00  0.18383166083E+02  0.18383166083E+02  0.00000000000E+00 0.  1.
          2   -1    0    0  501    0  0.00000000000E+00 -0.00000000000E+00 -0.14284372501E+04  0.14284372501E+04  0.00000000000E+00 0. -1.
         25    2    1    2    0    0  0.62029929020E+02  0.37307750091E+02 -0.11755609707E+04  0.11844117308E+04  0.12509185430E+03 0.  0.
          5    1    3    3  502    0 -0.37894964630E+02  0.17565692935E+02 -0.29562378284E+03  0.29858914129E+03  0.41800000000E+01 0.  1.
         -5    1    3    3    0  502  0.99924893650E+02  0.19742057155E+02 -0.87993718784E+03  0.88582258953E+03  0.41800000000E+01 0.  1.
        -11    1    1    2    0    0 -0.41089740452E+02 -0.57768760058E+02 -0.87920643739E+02  0.11294085180E+03  0.00000000000E+00 0.  1.
         11    1    1    2    0    0 -0.20940188568E+02  0.20461009968E+02 -0.14657246957E+03  0.14946783354E+03  0.00000000000E+00 0. -1.
</event>
<event>
 7    1  0.2601031E-009  0.1172680E+03  0.7561462E-02  0.1247673E+00
         -1   -1    0    0    0  501 -0.00000000000E+00  0.00000000000E+00  0.67864971448E+02  0.67864971448E+02  0.00000000000E+00 0.  1.
          1   -1    0    0  501    0  0.00000000000E+00 -0.00000000000E+00 -0.30484732842E+03  0.30484732842E+03  0.00000000000E+00 0. -1.
         25    2    1    2    0    0 -0.15392444034E+02  0.68923399537E+02 -0.20852804413E+03  0.25321701878E+03  0.12509017176E+03 0.  0.
          5    1    3    3  502    0  0.46669811475E+02  0.16521993996E+02 -0.13395049194E+03  0.14286796099E+03  0.41800000000E+01 0.  1.
         -5    1    3    3    0  502 -0.62062255509E+02  0.52401405542E+02 -0.74577552195E+02  0.11034905778E+03  0.41800000000E+01 0.  1.
        -11    1    1    2    0    0  0.45862529604E+02 -0.48990784900E+02 -0.43634976366E+02  0.80046735031E+02  0.00000000000E+00 0. -1.
         11    1    1    2    0    0 -0.30470085569E+02 -0.19932614638E+02  0.15180663530E+02  0.39448546058E+02  0.00000000000E+00 0.  1.
</event>
<event>
 7    1  0.2601031E-009  0.1122477E+03  0.7561462E-02  0.1256463E+00
          1   -1    0    0  501    0  0.00000000000E+00  0.00000000000E+00  0.40491693496E+03  0.40491693496E+03  0.00000000000E+00 0. -1.
         -1   -1    0    0    0  501 -0.00000000000E+00 -0.00000000000E+00 -0.45508640300E+02  0.45508640300E+02  0.00000000000E+00 0.  1.
         25    2    1    2    0    0  0.47080365264E+02  0.67449813868E+02  0.18999415006E+03  0.24189133817E+03  0.12509038428E+03 0.  0.
          5    1    3    3  502    0  0.23234559113E+02  0.81657040114E+02  0.19559613935E+03  0.21326752933E+03  0.41800000000E+01 0.  1.
         -5    1    3    3    0  502  0.23845806151E+02 -0.14207226247E+02 -0.56019892879E+01  0.28623808842E+02  0.41800000000E+01 0.  1.
        -11    1    1    2    0    0 -0.81751805984E+01 -0.71811201880E+02  0.65686683766E+02  0.97664848935E+02  0.00000000000E+00 0.  1.
         11    1    1    2    0    0 -0.38905184666E+02  0.43613880121E+01  0.10372746083E+03  0.11086938816E+03  0.00000000000E+00 0. -1.
</event>
<event>
 7    1  0.2601031E-009  0.9065323E+02  0.7561462E-02  0.1301277E+00
          4   -1    0    0  501    0  0.00000000000E+00  0.00000000000E+00  0.91888043422E+02  0.91888043422E+02  0.00000000000E+00 0. -1.
         -4   -1    0    0    0  501 -0.00000000000E+00 -0.00000000000E+00 -0.13711880627E+03  0.13711880627E+03  0.00000000000E+00 0.  1.
         25    2    1    2    0    0 -0.13772962924E+02  0.22331077133E+02 -0.20957506983E+02  0.12952969568E+03  0.12510137269E+03 0.  0.
          5    1    3    3  502    0 -0.16052635702E+02  0.54726412553E+02 -0.57064740961E+02  0.80786907385E+02  0.41800000000E+01 0.  1.
         -5    1    3    3    0  502  0.22796727776E+01 -0.32395335419E+02  0.36107233978E+02  0.48742788292E+02  0.41800000000E+01 0.  1.
        -11    1    1    2    0    0 -0.41737227528E+01 -0.54436883885E+02  0.14124192936E+01  0.54614917532E+02  0.00000000000E+00 0.  1.
         11    1    1    2    0    0  0.17946685677E+02  0.32105806752E+02 -0.25685675163E+02  0.44862236487E+02  0.00000000000E+00 0. -1.
</event>
<event>
 7    1  0.2601031E-009  0.1400156E+03  0.7561462E-02  0.1213308E+00
         -2   -1    0    0    0  501 -0.00000000000E+00  0.00000000000E+00  0.61674415718E+02  0.61674415718E+02  0.00000000000E+00 0.  1.
          2   -1    0    0  501    0  0.00000000000E+00 -0.00000000000E+00 -0.34512161824E+03  0.34512161824E+03  0.00000000000E+00 0. -1.
         25    2    1    2    0    0 -0.38668847789E+02  0.86432498192E+02 -0.12380806005E+03  0.19985390004E+03  0.12508912460E+03 0.  0.
          5    1    3    3  502    0  0.41177251883E+02  0.44063783912E+01 -0.24820934215E+02  0.48461669579E+02  0.41800000000E+01 0. -1.
         -5    1    3    3    0  502 -0.79846099671E+02  0.82026119801E+02 -0.98987125840E+02  0.15139223046E+03  0.41800000000E+01 0. -1.
        -11    1    1    2    0    0  0.84932431548E+01  0.15435252716E+02 -0.33070120632E+01  0.17925360093E+02  0.00000000000E+00 0. -1.
         11    1    1    2    0    0  0.30175604634E+02 -0.10186775091E+03 -0.15633213041E+03  0.18901677382E+03  0.00000000000E+00 0.  1.
</event>
<event>
 7    1  0.2601031E-009  0.8390870E+02  0.7561462E-02  0.1318311E+00
          2   -1    0    0  501    0  0.00000000000E+00  0.00000000000E+00  0.12099865172E+03  0.12099865172E+03  0.00000000000E+00 0. -1.
         -2   -1    0    0    0  501 -0.00000000000E+00 -0.00000000000E+00 -0.11786388922E+03  0.11786388922E+03  0.00000000000E+00 0.  1.
         25    2    1    2    0    0 -0.19190931734E+02  0.27163559033E+02  0.36924927741E+02  0.13459382022E+03  0.12508355348E+03 0.  0.
          5    1    3    3  502    0  0.31687403747E+02 -0.17437980732E+01 -0.31193395290E+02  0.44694884469E+02  0.41800000000E+01 0. -1.
         -5    1    3    3    0  502 -0.50878335481E+02  0.28907357106E+02  0.68118323031E+02  0.89898935749E+02  0.41800000000E+01 0. -1.
        -11    1    1    2    0    0  0.45692011166E+02 -0.16636578294E+02 -0.51397995516E+02  0.70755138080E+02  0.00000000000E+00 0.  1.
         11    1    1    2    0    0 -0.26501079432E+02 -0.10526980739E+02  0.17607830271E+02  0.33513582641E+02  0.00000000000E+00 0. -1.
</event>
<event>
 7    1  0.2601031E-009  0.1831548E+03  0.7561462E-02  0.1164784E+00
          2   -1    0    0  501    0  0.00000000000E+00  0.00000000000E+00  0.11583049317E+04  0.11583049317E+04  0.00000000000E+00 0. -1.
         -2   -1    0    0    0  501 -0.00000000000E+00 -0.00000000000E+00 -0.43066146540E+02  0.43066146540E+02  0.00000000000E+00 0.  1.
         25    2    1    2    0    0 -0.13341537041E+03  0.95056950560E+02  0.85893105145E+03  0.88331534063E+03  0.12509178601E+03 0.  0.
          5    1    3    3  502    0  0.21631951404E+02  0.66605100926E+01  0.17336185343E+03  0.17488312766E+03  0.41800000000E+01 0.  1.
         -5    1    3    3    0  502 -0.15504732181E+03  0.88396440467E+02  0.68556919803E+03  0.70843221297E+03  0.41800000000E+01 0.  1.
        -11    1    1    2    0    0  0.92668570980E+02 -0.75697401761E+02  0.10181378773E+03  0.15711017807E+03  0.00000000000E+00 0.  1.
         11    1    1    2    0    0  0.40746799429E+02 -0.19359548799E+02  0.15449394599E+03  0.16094555956E+03  0.00000000000E+00 0. -1.
</event>
<event>
 7    1  0.2601031E-009  0.1545400E+03  0.7561462E-02  0.1195003E+00
         -1   -1    0    0    0  501 -0.00000000000E+00  0.00000000000E+00  0.20357316111E+03  0.20357316111E+03  0.00000000000E+00 0.  1.
          1   -1    0    0  501    0  0.00000000000E+00 -0.00000000000E+00 -0.13719719161E+03  0.13719719161E+03  0.00000000000E+00 0. -1.
         25    2    1    2    0    0  0.10999642824E+03  0.11680264402E+02  0.98672897081E+02  0.19395760481E+03  0.12509024360E+03 0.  0.
          5    1    3    3  502    0  0.11304266265E+03  0.52908923783E+02  0.67066763511E+02  0.14175126442E+03  0.41800000000E+01 0. -1.
         -5    1    3    3    0  502 -0.30462344116E+01 -0.41228659381E+02  0.31606133570E+02  0.52206340397E+02  0.41800000000E+01 0. -1.
        -11    1    1    2    0    0 -0.62271748541E+02  0.38646389491E+02 -0.23129273660E+02  0.76852308925E+02  0.00000000000E+00 0. -1.
         11    1    1    2    0    0 -0.47724679700E+02 -0.50326653892E+02 -0.91676539264E+01  0.69960438985E+02  0.00000000000E+00 0.  1.
</event>
<event>
 7    1  0.2601031E-009  0.9607592E+02  0.7561462E-02  0.1288771E+00
          3   -1    0    0  501    0  0.00000000000E+00  0.00000000000E+00  0.10715641747E+03  0.10715641747E+03  0.00000000000E+00 0. -1.
         -3   -1    0    0    0  501 -0.00000000000E+00 -0.00000000000E+00 -0.12208927704E+03  0.12208927704E+03  0.00000000000E+00 0.  1.
         25    2    1    2    0    0  0.54259268839E+01 -0.29023771805E+02 -0.32727990708E+02  0.13263084357E+03  0.12509196328E+03 0.  0.
          5    1    3    3  502    0 -0.98440903132E+01 -0.69716405861E+02  0.10357515906E+02  0.71288385422E+02  0.41800000000E+01 0.  1.
         -5    1    3    3    0  502  0.15270017197E+02  0.40692634057E+02 -0.43085506614E+02  0.61342458150E+02  0.41800000000E+01 0.  1.
        -11    1    1    2    0    0 -0.21441564969E+02 -0.18178629977E+02  0.34079238331E+02  0.44176891939E+02  0.00000000000E+00 0. -1.
         11    1    1    2    0    0  0.16015638086E+02  0.47202401782E+02 -0.16284107185E+02  0.52437959000E+02  0.00000000000E+00 0.  1.
</event>
<event>
 7    1  0.2601031E-009  0.1151549E+03  0.7561462E-02  0.1251311E+00
         -2   -1    0    0    0  501 -0.00000000000E+00  0.00000000000E+00  0.97277384375E+02  0.97277384375E+02  0.00000000000E+00 0.  1.
          2   -1    0    0  501    0  0.00000000000E+00 -0.00000000000E+00 -0.19676520020E+03  0.19676520020E+03  0.00000000000E+00 0. -1.
         25    2    1    2    0    0 -0.69366656845E+02  0.43368788572E+02 -0.86026041980E+02  0.17245623327E+03  0.12509231627E+03 0.  0.
          5    1    3    3  502    0 -0.45702462384E+02  0.64113895925E+02 -0.10809280979E+03  0.13379400079E+03  0.41800000000E+01 0. -1.
         -5    1    3    3    0  502 -0.23664194461E+02 -0.20745107353E+02  0.22066767812E+02  0.38662232479E+02  0.41800000000E+01 0. -1.
        -11    1    1    2    0    0  0.36226410137E+02 -0.68926342995E+02 -0.16607276040E+02  0.79617806849E+02  0.00000000000E+00 0. -1.
         11    1    1    2    0    0  0.33140246708E+02  0.25557554422E+02  0.31455021934E+01  0.41968544458E+02  0.00000000000E+00 0.  1.
</event>
<event>
 7    1  0.2601031E-009  0.1201163E+03  0.7561462E-02  0.1242905E+00
          4   -1    0    0  501    0  0.00000000000E+00  0.00000000000E+00  0.34548221215E+03  0.34548221215E+03  0.00000000000E+00 0. -1.
         -4   -1    0    0    0  501 -0.00000000000E+00 -0.00000000000E+00 -0.52954218756E+02  0.52954218756E+02  0.00000000000E+00 0.  1.
         25    2    1    2    0    0 -0.63014433053E+02  0.49591547172E+02  0.14546247235E+03  0.20793795642E+03  0.12509485415E+03 0.  0.
          5    1    3    3  502    0  0.30961551005E+02  0.25878274009E+02  0.10819526315E+02  0.41986155528E+02  0.41800000000E+01 0. -1.
         -5    1    3    3    0  502 -0.93975984058E+02  0.23713273163E+02  0.13464294603E+03  0.16595180090E+03  0.41800000000E+01 0. -1.
        -11    1    1    2    0    0  0.10971906952E+02 -0.49406155601E+02  0.22283021076E+02  0.55298137235E+02  0.00000000000E+00 0.  1.
         11    1    1    2    0    0  0.52042526101E+02 -0.18539157171E+00  0.12478249997E+03  0.13520033724E+03  0.00000000000E+00 0. -1.
</event>
<event>
 7    1  0.2601031E-009  0.1012482E+03  0.7561462E-02  0.1277693E+00
          4   -1    0    0  501    0  0.00000000000E+00  0.00000000000E+00  0.50725248728E+03  0.50725248728E+03  0.00000000000E+00 0.  1.
         -4   -1    0    0    0  501 -0.00000000000E+00 -0.00000000000E+00 -0.44917230559E+02  0.44917230559E+02  0.00000000000E+00 0. -1.
         25    2    1    2    0    0  0.52657770350E+01 -0.63343465446E+02  0.37749807771E+03  0.40273125053E+03  0.12509012131E+03 0.  0.
          5    1    3    3  502    0  0.41089718730E+01 -0.93361235857E+02  0.34825603649E+03  0.36060080887E+03  0.41800000000E+01 0. -1.
         -5    1    3    3    0  502  0.11568051620E+01  0.30017770412E+02  0.29242041229E+02  0.42130441654E+02  0.41800000000E+01 0. -1.
        -11    1    1    2    0    0  0.20526307994E+02  0.24033852823E+02  0.96039516014E+02  0.10110659740E+03  0.00000000000E+00 0.  1.
         11    1    1    2    0    0 -0.25792085029E+02  0.39309612623E+02 -0.11202337010E+02  0.48331869912E+02  0.00000000000E+00 0. -1.
</event>
<event>
 7    1  0.2601031E-009  0.1035499E+03  0.7561462E-02  0.1273003E+00
         -1   -1    0    0    0  501 -0.00000000000E+00  0.00000000000E+00  0.55193049237E+02  0.55193049237E+02  0.00000000000E+00 0.  1.
          1   -1    0    0  501    0  0.00000000000E+00 -0.00000000000E+00 -0.22242939870E+03  0.22242939870E+03  0.00000000000E+00 0. -1.
         25    2    1    2    0    0 -0.78299779061E+01  0.12079387579E+02 -0.10127038898E+03  0.16158955884E+03  0.12509306009E+03 0.  0.
          5    1    3    3  502    0  0.31999208730E+02  0.48900922392E+02 -0.16508225667E+02  0.60870711224E+02  0.41800000000E+01 0.  1.
         -5    1    3    3    0  502 -0.39829186636E+02 -0.36821534813E+02 -0.84762163318E+02  0.10071884761E+03  0.41800000000E+01 0.  1.
        -11    1    1    2    0    0  0.17424825839E+02  0.38693577531E+02 -0.39513341865E+02  0.57983805351E+02  0.00000000000E+00 0. -1.
         11    1    1    2    0    0 -0.95948479332E+01 -0.50772965110E+02 -0.26452618617E+02  0.58049083753E+02  0.00000000000E+00 0.  1.
</event>
<event>
 7    1  0.2601031E-009  0.1009007E+03  0.7561462E-02  0.1278413E+00
         -1   -1    0    0    0  501 -0.00000000000E+00  0.00000000000E+00  0.22040992130E+02  0.22040992130E+02  0.00000000000E+00 0.  1.
          1   -1    0    0  501    0  0.00000000000E+00 -0.00000000000E+00 -0.69225957831E+03  0.69225957831E+03  0.00000000000E+00 0. -1.
         25    2    1    2    0    0 -0.57106087254E+02  0.76875136051E+01 -0.41554502571E+03  0.43777292563E+03  0.12508902011E+03 0.  0.
          5    1    3    3  502    0 -0.16792157293E+02  0.42691298364E+02 -0.48682489785E+02  0.67022240444E+02  0.41800000000E+01 0. -1.
         -5    1    3    3    0  502 -0.40313929961E+02 -0.35003784759E+02 -0.36686253593E+03  0.37075068518E+03  0.41800000000E+01 0. -1.
        -11    1    1    2    0    0  0.60928279284E+02  0.27458497771E+02 -0.20455181694E+03  0.21519217023E+03  0.00000000000E+00 0. -1.
         11    1    1    2    0    0 -0.38221920305E+01 -0.35146011376E+02 -0.50121743534E+02  0.61335474584E+02  0.00000000000E+00 0.  1.
</event>
<event>
 7    1  0.2601031E-009  0.1210941E+03  0.7561462E-02  0.1241303E+00
         -1   -1    0    0    0  501 -0.00000000000E+00  0.00000000000E+00  0.21499677848E+03  0.21499677848E+03  0.00000000000E+00 0.  1.
          1   -1    0    0  501    0  0.00000000000E+00 -0.00000000000E+00 -0.68531810320E+02  0.68531810320E+02  0.00000000000E+00 0. -1.
         25    2    1    2    0    0  0.53031698820E+02  0.16846918759E+02  0.89894810293E+02  0.16378269779E+03  0.12509002928E+03 0.  0.
          5    1    3    3  502    0 -0.23046027048E+02  0.48820310432E+02  0.32111971709E+02  0.62953897420E+02  0.41800000000E+01 0. -1.
         -5    1    3    3    0  502  0.76077725868E+02 -0.31973391673E+02  0.57782838585E+02  0.10082880037E+03  0.41800000000E+01 0. -1.
        -11    1    1    2    0    0 -0.26694243366E+02  0.36908428093E+02  0.27399865600E+02  0.53156065770E+02  0.00000000000E+00 0.  1.
         11    1    1    2    0    0 -0.26337455454E+02 -0.53755346852E+02  0.29170292264E+02  0.66589825242E+02  0.00000000000E+00 0. -1.
</event>
<event>
 7    1  0.2601031E-009  0.1238195E+03  0.7561462E-02  0.1236926E+00
          1   -1    0    0  501    0  0.00000000000E+00  0.00000000000E+00  0.51763685055E+03  0.51763685055E+03  0.00000000000E+00 0. -1.
         -1   -1    0    0    0  501 -0.00000000000E+00 -0.00000000000E+00 -0.49483358015E+02  0.49483358015E+02  0.00000000000E+00 0.  1.
         25    2    1    2    0    0  0.25898452467E+02 -0.11499568371E+03  0.26601444509E+03  0.31671412135E+03  0.12509761210E+03 0.  0.
          5    1    3    3  502    0 -0.11194230380E+02 -0.70674991086E+02  0.24468529001E+03  0.25496789740E+03  0.41800000000E+01 0. -1.
         -5    1    3    3    0  502  0.37092682847E+02 -0.44320692628E+02  0.21329155084E+02  0.61746223952E+02  0.41800000000E+01 0. -1.
        -11    1    1    2    0    0 -0.70147347642E+01  0.20960911253E+02 -0.45324993635E+01  0.22563462829E+02  0.00000000000E+00 0.  1.
         11    1    1    2    0    0 -0.18883717703E+02  0.94034772461E+02  0.20667154681E+03  0.22784262439E+03  0.00000000000E+00 0. -1.
</event>
<event>
 7    1  0.2601031E-009  0.1156048E+03  0.7561462E-02  0.1250529E+00
          1   -1    0    0  501    0  0.00000000000E+00  0.00000000000E+00  0.32412464259E+02  0.32412464259E+02  0.00000000000E+00 0. -1.
         -1   -1    0    0    0  501 -0.00000000000E+00 -0.00000000000E+00 -0.50328472351E+03  0.50328472351E+03  0.00000000000E+00 0.  1.
         25    2    1    2    0    0 -0.70056883962E+02  0.16782207223E+02 -0.23742785769E+03  0.27786699630E+03  0.12509384699E+03 0.  0.
          5    1    3    3  502    0  0.26396423834E+02  0.26378416382E+02 -0.27310046515E+02  0.46431703422E+02  0.41800000000E+01 0.  1.
         -5    1    3    3    0  502 -0.96453307796E+02 -0.95962091590E+01 -0.21011781118E+03  0.23143529288E+03  0.41800000000E+01 0.  1.
        -11    1    1    2    0    0  0.47124402829E+02 -0.41592240795E+02 -0.20244653956E+03  0.21197930374E+03  0.00000000000E+00 0.  1.
         11    1    1    2    0    0  0.22932481133E+02  0.24810033572E+02 -0.30997862003E+02  0.45850887729E+02  0.00000000000E+00 0. -1.
</event>
<event>
 7    1  0.2601031E-009  0.1096159E+03  0.7561462E-02  0.1261283E+00
          1   -1    0    0  501    0  0.00000000000E+00  0.00000000000E+00  0.15457344080E+03  0.15457344080E+03  0.00000000000E+00 0. -1.
         -1   -1    0    0    0  501 -0.00000000000E+00 -0.00000000000E+00 -0.11285926980E+03  0.11285926980E+03  0.00000000000E+00 0.  1.
         25    2    1    2    0    0 -0.42904244827E+02 -0.49140355688E+02 -0.15626392632E+02  0.14194348030E+03  0.12509284021E+03 0.  0.
          5    1    3    3  502    0 -0.45700529972E+02  0.27975209518E+02 -0.32548113993E+02  0.62833135460E+02  0.41800000000E+01 0.  1.
         -5    1    3    3    0  502  0.27962851448E+01 -0.77115565205E+02  0.16921721361E+02  0.79110344844E+02  0.41800000000E+01 0.  1.
        -11    1    1    2    0    0 -0.36262455888E+01  0.40767706553E+02  0.65770708534E+02  0.77465745048E+02  0.00000000000E+00 0. -1.
         11    1    1    2    0    0  0.46530490416E+02  0.83726491345E+01 -0.84301449011E+01  0.48023485243E+02  0.00000000000E+00 0.  1.
</event>
<event>
 7    1  0.2601031E-009  0.8962240E+02  0.7561462E-02  0.1303769E+00
          1   -1    0    0  501    0  0.00000000000E+00  0.00000000000E+00  0.21269197010E+03  0.21269197010E+03  0.00000000000E+00 0. -1.
         -1   -1    0    0    0  501 -0.00000000000E+00 -0.00000000000E+00 -0.67601726041E+02  0.67601726041E+02  0.00000000000E+00 0.  1.
         25    2    1    2    0    0 -0.25398062492E+02 -0.22633485202E+02  0.41586867958E+02  0.13614044212E+03  0.12508963251E+03 0.  0.
          5    1    3    3  502    0  0.38761819768E+01  0.34483391381E+02  0.59825106515E+02  0.69286685859E+02  0.41800000000E+01 0.  1.
         -5    1    3    3    0  502 -0.29274244469E+02 -0.57116876583E+02 -0.18238238557E+02  0.66853756256E+02  0.41800000000E+01 0.  1.
        -11    1    1    2    0    0  0.98096675098E+01  0.48659359655E+02  0.16974642974E+02  0.52460474290E+02  0.00000000000E+00 0.  1.
         11    1    1    2    0    0  0.15588394983E+02 -0.26025874452E+02  0.86528733128E+02  0.91692779737E+02  0.00000000000E+00 0. -1.
</event>
<event>
 7    1  0.2601031E-009  0.1839746E+03  0.7561462E-02  0.1164011E+00
          1   -1    0    0  501    0  0.00000000000E+00  0.00000000000E+00  0.21651491555E+03  0.21651491555E+03  0.00000000000E+00 0. -1.
         -1   -1    0    0    0  501 -0.00000000000E+00 -0.00000000000E+00 -0.18404004577E+03  0.18404004577E+03  0.00000000000E+00 0.  1.
         25    2    1    2    0    0 -0.19384900419E+02  0.15338499820E+03 -0.40371758086E+02  0.20292792075E+03  0.12508848920E+03 0.  0.
          5    1    3    3  502    0 -0.69393802965E+02  0.78347109009E+02 -0.41456360384E+02  0.11264933021E+03  0.41800000000E+01 0.  1.
         -5    1    3    3    0  502  0.50008902546E+02  0.75037889189E+02  0.10846022974E+01  0.90278590540E+02  0.41800000000E+01 0.  1.
        -11    1    1    2    0    0  0.22683599630E+02 -0.34290741942E+01 -0.11375341185E+02  0.25606691100E+02  0.00000000000E+00 0.  1.
         11    1    1    2    0    0 -0.32986992108E+01 -0.14995592400E+03  0.84221969057E+02  0.17202034947E+03  0.00000000000E+00 0. -1.
</event>
<event>
 7    1  0.2601031E-009  0.1089917E+03  0.7561462E-02  0.1262449E+00
          2   -1    0    0  501    0  0.00000000000E+00  0.00000000000E+00  0.43932191394E+03  0.43932191394E+03  0.00000000000E+00 0. -1.
         -2   -1    0    0    0  501 -0.00000000000E+00 -0.00000000000E+00 -0.48018271055E+02  0.48018271055E+02  0.00000000000E+00 0.  1.
         25    2    1    2    0    0 -0.79381762153E+02  0.49991698141E+02  0.24947065253E+03  0.29442011506E+03  0.12508782367E+03 0.  0.
          5    1    3    3  502    0 -0.65323337377E+02  0.41770467097E+02  0.26212010405E+03  0.27337946462E+03  0.41800000000E+01 0. -1.
         -5    1    3    3    0  502 -0.14058424776E+02  0.82212310436E+01 -0.12649451520E+02  0.21040650437E+02  0.41800000000E+01 0. -1.
        -11    1    1    2    0    0  0.44830403935E+02  0.17159217152E+02  0.25855026198E+02  0.54522346152E+02  0.00000000000E+00 0.  1.
         11    1    1    2    0    0  0.34551358218E+02 -0.67150915293E+02  0.11597796415E+03  0.13839772378E+03  0.00000000000E+00 0. -1.
</event>
<event>
 7    1  0.2601031E-009  0.1345811E+03  0.7561462E-02  0.1220812E+00
          2   -1    0    0  501    0  0.00000000000E+00  0.00000000000E+00  0.89955358133E+03  0.89955358133E+03  0.00000000000E+00 0. -1.
         -2   -1    0    0    0  501 -0.00000000000E+00 -0.00000000000E+00 -0.26096814530E+02  0.26096814530E+02  0.00000000000E+00 0.  1.
         25    2    1    2    0    0  0.98730983963E+02 -0.28785262530E+02  0.56997812084E+03  0.59253537205E+03  0.12508681128E+03 0.  0.
          5    1    3    3  502    0  0.51654410287E+02 -0.77845514541E+02  0.34728188990E+03  0.35965300734E+03  0.41800000000E+01 0.  1.
         -5    1    3    3    0  502  0.47076573676E+02  0.49060252011E+02  0.22269623094E+03  0.23288236471E+03  0.41800000000E+01 0.  1.
        -11    1    1    2    0    0 -0.17204586009E+02 -0.68890047107E+01  0.18405165643E+01  0.18623739337E+02  0.00000000000E+00 0.  1.
         11    1    1    2    0    0 -0.81526397954E+02  0.35674267241E+02  0.30163812940E+03  0.31449128448E+03  0.00000000000E+00 0. -1.
</event>
<event>
 7    1  0.2601031E-009  0.1127261E+03  0.7561462E-02  0.1255603E+00
          2   -1    0    0  501    0  0.00000000000E+00  0.00000000000E+00  0.48404059263E+03  0.48404059263E+03  0.00000000000E+00 0. -1.
         -2   -1    0    0    0  501 -0.00000000000E+00 -0.00000000000E+00 -0.32273944299E+02  0.32273944299E+02  0.00000000000E+00 0.  1.
         25    2    1    2    0    0  0.34179076685E+02 -0.51527806500E+02  0.31295658481E+03  0.34265556146E+03  0.12509070988E+03 0.  0.
          5    1    3    3  502    0  0.38197067831E+02 -0.88389937530E+02  0.26438587416E+03  0.28140568562E+03  0.41800000000E+01 0.  1.
         -5    1    3    3    0  502 -0.40179911465E+01  0.36862131030E+02  0.48570710650E+02  0.61249875836E+02  0.41800000000E+01 0.  1.
        -11    1    1    2    0    0  0.81369906022E+01 -0.12555692458E+02  0.66556311551E+02  0.68217289864E+02  0.00000000000E+00 0. -1.
         11    1    1    2    0    0 -0.42316067287E+02  0.64083498958E+02  0.72253751975E+02  0.10544168561E+03  0.00000000000E+00 0.  1.
</event>
<event>
 7    1  0.2601031E-009  0.8993251E+02  0.7561462E-02  0.1303015E+00
          3   -1    0    0  501    0  0.00000000000E+00  0.00000000000E+00  0.89929176283E+02  0.89929176283E+02  0.00000000000E+00 0. -1.
         -3   -1    0    0    0  501 -0.00000000000E+00 -0.00000000000E+00 -0.16962018518E+03  0.16962018518E+03  0.00000000000E+00 0.  1.
         25    2    1    2    0    0  0.34913791517E+02  0.66085634697E+00  0.19918751896E+01  0.12987251071E+03  0.12507394573E+03 0.  0.
          5    1    3    3  502    0  0.75211022989E+02  0.44964601557E+01 -0.26738138494E+02  0.80058207469E+02  0.41800000000E+01 0.  1.
         -5    1    3    3    0  502 -0.40297231472E+02 -0.38356038087E+01  0.28730013684E+02  0.49814303239E+02  0.41800000000E+01 0.  1.
        -11    1    1    2    0    0  0.14332597663E+02 -0.18300914694E+01 -0.79035605821E+02  0.80345501293E+02  0.00000000000E+00 0.  1.
         11    1    1    2    0    0 -0.49246389179E+02  0.11692351225E+01 -0.26472782693E+01  0.49331349467E+02  0.00000000000E+00 0. -1.
</event>
<event>
 7    1  0.2601031E-009  0.1954143E+03  0.7561462E-02  0.1153667E+00
          3   -1    0    0  501    0  0.00000000000E+00  0.00000000000E+00  0.59121168155E+02  0.59121168155E+02  0.00000000000E+00 0. -1.
         -3   -1    0    0    0  501 -0.00000000000E+00 -0.00000000000E+00 -0.74934668859E+03  0.74934668859E+03  0.00000000000E+00 0.  1.
         25    2    1    2    0    0 -0.15485775604E+03  0.70290557773E+02 -0.47607280023E+03  0.52078267925E+03  0.12509037044E+03 0.  0.
          5    1    3    3  502    0 -0.78960150975E+02 -0.29558479899E+02 -0.16468818643E+03  0.18506236875E+03  0.41800000000E+01 0.  1.
         -5    1    3    3    0  502 -0.75897605064E+02  0.99849037672E+02 -0.31138461379E+03  0.33572031051E+03  0.41800000000E+01 0.  1.
        -11    1    1    2    0    0  0.11729461475E+03 -0.80180109323E+02 -0.12050648307E+03  0.18630268125E+03  0.00000000000E+00 0. -1.
         11    1    1    2    0    0  0.37563141292E+02  0.98895515496E+01 -0.93646237141E+02  0.10138249624E+03  0.00000000000E+00 0.  1.
</event>
<event>
 7    1  0.2601031E-009  0.3046936E+03  0.7561462E-02  0.1082918E+00
         -1   -1    0    0    0  501 -0.00000000000E+00  0.00000000000E+00  0.86152795302E+02  0.86152795302E+02  0.00000000000E+00 0.  1.
          1   -1    0    0  501    0  0.00000000000E+00 -0.00000000000E+00 -0.11569326386E+04  0.11569326386E+04  0.00000000000E+00 0. -1.
         25    2    1    2    0    0  0.18195065245E+02 -0.29240501037E+03 -0.45998899354E+03  0.55952565006E+03  0.12508928173E+03 0.  0.
          5    1    3    3  502    0  0.35793616828E+02 -0.40672698390E+02 -0.15150059631E+03  0.16095140410E+03  0.41800000000E+01 0.  1.
         -5    1    3    3    0  502 -0.17598551583E+02 -0.25173231198E+03 -0.30848839723E+03  0.39857424596E+03  0.41800000000E+01 0.  1.
        -11    1    1    2    0    0  0.23374844181E+02  0.36073960033E+02 -0.13281616051E+03  0.13959887687E+03  0.00000000000E+00 0. -1.
         11    1    1    2    0    0 -0.41569909426E+02  0.25633105034E+03 -0.47797468921E+03  0.54396090693E+03  0.00000000000E+00 0.  1.
</event>
<event>
 7    1  0.2601031E-009  0.1310560E+03  0.7561462E-02  0.1225897E+00
          2   -1    0    0  501    0  0.00000000000E+00  0.00000000000E+00  0.50472390374E+03  0.50472390374E+03  0.00000000000E+00 0. -1.
         -2   -1    0    0    0  501 -0.00000000000E+00 -0.00000000000E+00 -0.36037352629E+02  0.36037352629E+02  0.00000000000E+00 0.  1.
         25    2    1    2    0    0 -0.51663671375E+02 -0.63225894639E+02  0.23168364470E+03  0.27566589833E+03  0.12509087733E+03 0.  0.
          5    1    3    3  502    0 -0.89547096986E+02 -0.25045345234E+02  0.12218351069E+03  0.15359763859E+03  0.41800000000E+01 0. -1.
         -5    1    3    3    0  502  0.37883425611E+02 -0.38180549406E+02  0.10950013401E+03  0.12206825975E+03  0.41800000000E+01 0. -1.
        -11    1    1    2    0    0  0.59554051153E+02  0.89294453243E+01  0.15637777536E+03  0.16757215946E+03  0.00000000000E+00 0.  1.
         11    1    1    2    0    0 -0.78903797786E+01  0.54296449315E+02  0.80625131060E+02  0.97523198572E+02  0.00000000000E+00 0. -1.
</event>
<event>
 7    1  0.2601031E-009  0.9007754E+02  0.7561462E-02  0.1302664E+00
          2   -1    0    0  501    0  0.00000000000E+00  0.00000000000E+00  0.36400475989E+03  0.36400475989E+03  0.00000000000E+00 0. -1.
         -2   -1    0    0    0  501 -0.00000000000E+00 -0.00000000000E+00 -0.38508436148E+02  0.38508436148E+02  0.00000000000E+00 0.  1.
         25    2    1    2    0    0  0.24546493756E+02 -0.38997432676E+02  0.21169236499E+03  0.25017165460E+03  0.12509544059E+03 0.  0.
          5    1    3    3  502    0  0.60482916293E+02 -0.25462659345E+02  0.19888893050E+03  0.20947746719E+03  0.41800000000E+01 0.  1.
         -5    1    3    3    0  502 -0.35936422537E+02 -0.13534773331E+02  0.12803434489E+02  0.40694187406E+02  0.41800000000E+01 0.  1.
        -11    1    1    2    0    0 -0.44717965563E+02  0.28540121082E+02  0.11787167298E+03  0.12925929849E+03  0.00000000000E+00 0. -1.
         11    1    1    2    0    0  0.20171471808E+02  0.10457311594E+02 -0.40677142270E+01  0.23082242952E+02  0.00000000000E+00 0.  1.
</event>
<event>
 7    1  0.2601031E-009  0.1522302E+03  0.7561462E-02  0.1197759E+00
         -3   -1    0    0    0  501 -0.00000000000E+00  0.00000000000E+00  0.62326728594E+02  0.62326728594E+02  0.00000000000E+00 0.  1.
          3   -1    0    0  501    0  0.00000000000E+00 -0.00000000000E+00 -0.47082461476E+03  0.47082461476E+03  0.00000000000E+00 0. -1.
         25    2    1    2    0    0 -0.83121231441E+02 -0.10404858999E+03 -0.21532262477E+03  0.28239475812E+03  0.12509084091E+03 0.  0.
          5    1    3    3  502    0 -0.64131323099E+02 -0.31133475905E+02 -0.18970678824E+03  0.20270238733E+03  0.41800000000E+01 0. -1.
         -5    1    3    3    0  502 -0.18989908343E+02 -0.72915114089E+02 -0.25615836531E+02  0.79692370794E+02  0.41800000000E+01 0. -1.
        -11    1    1    2    0    0  0.44820212988E+02 -0.19672530570E+01 -0.37010905294E+02  0.58159510723E+02  0.00000000000E+00 0.  1.
         11    1    1    2    0    0  0.38301018453E+02  0.10601584305E+03 -0.15616435610E+03  0.19259707450E+03  0.00000000000E+00 0. -1.
</event>
<event>
 7    1  0.2601031E-009  0.1263722E+03  0.7561462E-02  0.1232940E+00
         -2   -1    0    0    0  501 -0.00000000000E+00  0.00000000000E+00  0.87361074018E+02  0.87361074018E+02  0.00000000000E+00 0.  1.
          2   -1    0    0  501    0  0.00000000000E+00 -0.00000000000E+00 -0.28948876767E+03  0.28948876767E+03  0.00000000000E+00 0. -1.
         25    2    1    2    0    0 -0.11126449492E+02  0.94940555407E+02 -0.31791065881E+02  0.16061134261E+03  0.12509126495E+03 0.  0.
          5    1    3    3  502    0  0.35819577598E+02  0.84695500622E+02  0.15168057102E+02  0.93294760417E+02  0.41800000000E+01 0.  1.
         -5    1    3    3    0  502 -0.46946027089E+02  0.10245054785E+02 -0.46959122983E+02  0.67316582194E+02  0.41800000000E+01 0.  1.
        -11    1    1    2    0    0 -0.24390059124E+02 -0.44870224481E+02 -0.21823391809E+02  0.55538027144E+02  0.00000000000E+00 0.  1.
         11    1    1    2    0    0  0.35516508615E+02 -0.50070330926E+02 -0.14851323596E+03  0.16070047193E+03  0.00000000000E+00 0. -1.
</event>
<event>
 7    1  0.2601031E-009  0.1477970E+03  0.7561462E-02  0.1203206E+00
         -1   -1    0    0    0  501 -0.00000000000E+00  0.00000000000E+00  0.24529737262E+02  0.24529737262E+02  0.00000000000E+00 0.  1.
          1   -1    0    0  501    0  0.00000000000E+00 -0.00000000000E+00 -0.11345671374E+04  0.11345671374E+04  0.00000000000E+00 0. -1.
         25    2    1    2    0    0  0.18576281431E+02 -0.12179197960E+03 -0.69314125860E+03  0.71503294509E+03  0.12509573797E+03 0.  0.
          5    1    3    3  502    0 -0.48062504555E+01  0.14889481941E+02 -0.25363310860E+03  0.25414960731E+03  0.41800000000E+01 0.  1.
         -5    1    3    3    0  502  0.23382531886E+02 -0.13668146154E+03 -0.43950815000E+03  0.46088333778E+03  0.41800000000E+01 0.  1.
        -11    1    1    2    0    0 -0.42472707640E+02  0.98646181912E+02 -0.22516554429E+03  0.24946847984E+03  0.00000000000E+00 0.  1.
         11    1    1    2    0    0  0.23896426210E+02  0.23145797687E+02 -0.19173059727E+03  0.19459544976E+03  0.00000000000E+00 0. -1.
</event>
<event>
 7    1  0.2601031E-009  0.1001837E+03  0.7561462E-02  0.1279910E+00
          1   -1    0    0  501    0  0.00000000000E+00  0.00000000000E+00  0.52689214035E+03  0.52689214035E+03  0.00000000000E+00 0. -1.
         -1   -1    0    0    0  501 -0.00000000000E+00 -0.00000000000E+00 -0.34369597630E+02  0.34369597630E+02  0.00000000000E+00 0.  1.
         25    2    1    2    0    0 -0.60531104941E+01 -0.72917120067E+02  0.33996323067E+03  0.36956149399E+03  0.12508858094E+03 0.  0.
          5    1    3    3  502    0  0.99779069352E+01  0.95603543555E+01  0.23315686534E+03  0.23360341448E+03  0.41800000000E+01 0. -1.
         -5    1    3    3    0  502 -0.16031017429E+02 -0.82477474423E+02  0.10680636533E+03  0.13595807950E+03  0.41800000000E+01 0. -1.
        -11    1    1    2    0    0  0.26033001082E+02  0.77113698568E+02  0.72233585497E+02  0.10882063465E+03  0.00000000000E+00 0.  1.
         11    1    1    2    0    0 -0.19979890587E+02 -0.41965785011E+01  0.80325726547E+02  0.82879609340E+02  0.00000000000E+00 0. -1.
</event>
<event>
 7    1  0.2601031E-009  0.8271781E+02  0.7561462E-02  0.1321511E+00
          4   -1    0    0  501    0  0.00000000000E+00  0.00000000000E+00  0.23614286135E+02  0.23614286135E+02  0.00000000000E+00 0. -1.
         -4   -1    0    0    0  501 -0.00000000000E+00 -0.00000000000E+00 -0.66504503739E+03  0.66504503739E+03  0.00000000000E+00 0.  1.
         25    2    1    2    0    0 -0.50142044442E+02 -0.30179887999E+02 -0.41656174765E+03  0.43885886434E+03  0.12509341688E+03 0.  0.
          5    1    3    3  502    0 -0.33851790750E+01  0.24970896621E+02 -0.30360702776E+03  0.30467967576E+03  0.41800000000E+01 0. -1.
         -5    1    3    3    0  502 -0.46756865367E+02 -0.55150784620E+02 -0.11295471989E+03  0.13417918858E+03  0.41800000000E+01 0. -1.
        -11    1    1    2    0    0  0.19668422755E+02  0.31307631909E+02 -0.21439141382E+03  0.21755618353E+03  0.00000000000E+00 0.  1.
         11    1    1    2    0    0  0.30473621687E+02 -0.11277439098E+01 -0.10477589783E+02  0.32244275658E+02  0.00000000000E+00 0. -1.
</event>
<event>
 7    1  0.2601031E-009  0.1313598E+03  0.7561462E-02  0.1225452E+00
         -1   -1    0    0    0  501 -0.00000000000E+00  0.00000000000E+00  0.29876182344E+02  0.29876182344E+02  0.00000000000E+00 0.  1.
          1   -1    0    0  501    0  0.00000000000E+00 -0.00000000000E+00 -0.66697487552E+03  0.66697487552E+03  0.00000000000E+00 0. -1.
         25    2    1    2    0    0 -0.69329143676E+02  0.39711165970E+02 -0.25846216692E+03  0.29804955650E+03  0.12508932621E+03 0.  0.
          5    1    3    3  502    0  0.26559860790E+02  0.34030542817E+02 -0.13356856469E+03  0.14043339319E+03  0.41800000000E+01 0.  1.
         -5    1    3    3    0  502 -0.95889004466E+02  0.56806231532E+01 -0.12489360223E+03  0.15761616330E+03  0.41800000000E+01 0.  1.
        -11    1    1    2    0    0  0.92707645971E+02 -0.26844465448E+02 -0.32272463244E+03  0.33684792018E+03  0.00000000000E+00 0. -1.
         11    1    1    2    0    0 -0.23378502295E+02 -0.12866700522E+02 -0.55911893816E+02  0.61953581187E+02  0.00000000000E+00 0.  1.
</event>
<event>
 7    1  0.2601031E-009  0.1283072E+03  0.7561462E-02  0.1229989E+00
         -2   -1    0    0    0  501 -0.00000000000E+00  0.00000000000E+00  0.17464554155E+02  0.17464554155E+02  0.00000000000E+00 0.  1.
          2   -1    0    0  501    0  0.00000000000E+00 -0.00000000000E+00 -0.14888029023E+04  0.14888029023E+04  0.00000000000E+00 0. -1.
         25    2    1    2    0    0  0.96398810800E+02 -0.44012047690E+02 -0.10359188211E+04  0.10488115690E+04  0.12509241537E+03 0.  0.
          5    1    3    3  502    0  0.87994937870E+02 -0.73905853557E+02 -0.55044163221E+03  0.56232432559E+03  0.41800000000E+01 0. -1.
         -5    1    3    3    0  502  0.84038729297E+01  0.29893805866E+02 -0.48547718890E+03  0.48648724346E+03  0.41800000000E+01 0. -1.
        -11    1    1    2    0    0 -0.99691801182E+01  0.17056583167E+02 -0.93200847825E+01  0.21844348512E+02  0.00000000000E+00 0.  1.
         11    1    1    2    0    0 -0.86429630681E+02  0.26955464523E+02 -0.42609944230E+03  0.43561153894E+03  0.00000000000E+00 0. -1.
</event>
<event>
 7    1  0.2601031E-009  0.1301104E+03  0.7561462E-02  0.1227292E+00
         -2   -1    0    0    0  501 -0.00000000000E+00  0.00000000000E+00  0.74963969741E+02  0.74963969741E+02  0.00000000000E+00 0.  1.
          2   -1    0    0  501    0  0.00000000000E+00 -0.00000000000E+00 -0.31440761663E+03  0.31440761663E+03  0.00000000000E+00 0. -1.
         25    2    1    2    0    0  0.97944273165E+02 -0.12964868079E+02 -0.18233210973E+03  0.24218641438E+03  0.12509233638E+03 0.  0.
          5    1    3    3  502    0  0.10138690751E+03  0.37847560801E+02 -0.12431133426E+03  0.16487123188E+03  0.41800000000E+01 0.  1.
         -5    1    3    3    0  502 -0.34426343499E+01 -0.50812428881E+02 -0.58020775467E+02  0.77315182505E+02  0.41800000000E+01 0.  1.
        -11    1    1    2    0    0 -0.45063370447E+02  0.16080376672E+02  0.21448540456E+02  0.52434013365E+02  0.00000000000E+00 0.  1.
         11    1    1    2    0    0 -0.52880902718E+02 -0.31155085922E+01 -0.78560077616E+02  0.94751158627E+02  0.00000000000E+00 0. -1.
</event>
<event>
 7    1  0.2601031E-009  0.1224462E+03  0.7561462E-02  0.1239115E+00
          1   -1    0    0  501    0  0.00000000000E+00  0.00000000000E+00  0.33011604969E+02  0.33011604969E+02  0.00000000000E+00 0. -1.
         -1   -1    0    0    0  501 -0.00000000000E+00 -0.00000000000E+00 -0.54429503166E+03  0.54429503166E+03  0.00000000000E+00 0.  1.
         25    2    1    2    0    0  0.31436357766E+02  0.45653248327E+02 -0.16424778312E+03  0.21376865627E+03  0.12508893025E+03 0.  0.
          5    1    3    3  502    0 -0.33289546790E+02  0.61327021911E+02 -0.89621670513E+02  0.11366051983E+03  0.41800000000E+01 0. -1.
         -5    1    3    3    0  502  0.64725904555E+02 -0.15673773584E+02 -0.74626112609E+02  0.10010813644E+03  0.41800000000E+01 0. -1.
        -11    1    1    2    0    0 -0.45009614416E+02  0.13957057634E+02 -0.14703017281E+03  0.15439733341E+03  0.00000000000E+00 0.  1.
         11    1    1    2    0    0  0.13573256650E+02 -0.59610305961E+02 -0.20000547076E+03  0.20914064695E+03  0.00000000000E+00 0. -1.
</event>
<event>
 7    1  0.2641272E-009  0.1265184E+03  0.7561462E-02  0.1232715E+00
          1   -1    0    0  501    0  0.00000000000E+00  0.00000000000E+00  0.29271671980E+03  0.29271671980E+03  0.00000000000E+00 0. -1.
         -1   -1    0    0    0  501 -0.00000000000E+00 -0.00000000000E+00 -0.85913486774E+02  0.85913486774E+02  0.00000000000E+00 0.  1.
         25    2    1    2    0    0 -0.77243479277E+02 -0.47362164083E+02  0.19544304129E+03  0.24911313957E+03  0.12509853811E+03 0.  0.
          5    1    3    3  502    0 -0.26981643190E+01 -0.73130934210E+02  0.73334931307E+02  0.10368653808E+03  0.41800000000E+01 0. -1.
         -5    1    3    3    0  502 -0.74545314958E+02  0.25768770126E+02  0.12210810999E+03  0.14542660149E+03  0.41800000000E+01 0. -1.
        -11    1    1    2    0    0  0.22365526767E+02  0.39392571771E+02 -0.34993806059E+02  0.57241226059E+02  0.00000000000E+00 0.  1.
         11    1    1    2    0    0  0.54877952510E+02  0.79695923121E+01  0.46353997789E+02  0.72275840946E+02  0.00000000000E+00 0. -1.
</event>
<event>
 7    1  0.2601031E-009  0.1273200E+03  0.7561462E-02  0.1231487E+00
          2   -1    0    0  501    0  0.00000000000E+00  0.00000000000E+00  0.90672503808E+02  0.90672503808E+02  0.00000000000E+00 0. -1.
         -2   -1    0    0    0  501 -0.00000000000E+00 -0.00000000000E+00 -0.32647596327E+03  0.32647596327E+03  0.00000000000E+00 0.  1.
         25    2    1    2    0    0  0.11910302753E+03 -0.37780707296E+02 -0.69695547815E+02  0.19005284982E+03  0.12509877430E+03 0.  0.
          5    1    3    3  502    0  0.47316721613E+02 -0.79676047125E+01 -0.96394931752E+02  0.10775810938E+03  0.41800000000E+01 0. -1.
         -5    1    3    3    0  502  0.71786305913E+02 -0.29813102584E+02  0.26699383937E+02  0.82294740445E+02  0.41800000000E+01 0. -1.
        -11    1    1    2    0    0 -0.25690019232E+02 -0.45254785783E+01  0.59878603463E+01  0.26763996638E+02  0.00000000000E+00 0. -1.
         11    1    1    2    0    0 -0.93413008294E+02  0.42306185874E+02 -0.17209577200E+03  0.20033162062E+03  0.00000000000E+00 0.  1.
</event>
<event>
 7    1  0.2601031E-009  0.9822310E+02  0.7561462E-02  0.1284078E+00
         -1   -1    0    0    0  501 -0.00000000000E+00  0.00000000000E+00  0.50981448809E+02  0.50981448809E+02  0.00000000000E+00 0.  1.
          1   -1    0    0  501    0  0.00000000000E+00 -0.00000000000E+00 -0.32766967145E+03  0.32766967145E+03  0.00000000000E+00 0. -1.
         25    2    1    2    0    0 -0.43592743276E+02  0.25513197018E+02 -0.26402316875E+03  0.29648357333E+03  0.12507207974E+03 0.  0.
          5    1    3    3  502    0 -0.27062891874E+02  0.66003443317E+02 -0.23020666548E+03  0.24104239436E+03  0.41800000000E+01 0.  1.
         -5    1    3    3    0  502 -0.16529851402E+02 -0.40490246299E+02 -0.33816503270E+02  0.55441178975E+02  0.41800000000E+01 0.  1.
        -11    1    1    2    0    0  0.49112746263E+02  0.56217598530E+01 -0.10001466945E+02  0.50435060924E+02  0.00000000000E+00 0. -1.
         11    1    1    2    0    0 -0.55200029866E+01 -0.31134956871E+02 -0.26635869449E+01  0.31732486000E+02  0.00000000000E+00 0.  1.
</event>
<event>
 7    1  0.2601031E-009  0.1148147E+03  0.7561462E-02  0.1251905E+00
         -1   -1    0    0    0  501 -0.00000000000E+00  0.00000000000E+00  0.61347012820E+02  0.61347012820E+02  0.00000000000E+00 0.  1.
          1   -1    0    0  501    0  0.00000000000E+00 -0.00000000000E+00 -0.41783424174E+03  0.41783424174E+03  0.00000000000E+00 0. -1.
         25    2    1    2    0    0 -0.71574072941E+02  0.20931513509E+01 -0.52768338076E+02  0.15348913765E+03  0.12508872320E+03 0.  0.
          5    1    3    3  502    0 -0.67995860039E+02  0.44276029301E+02 -0.70336572166E+02  0.10746399182E+03  0.41800000000E+01 0. -1.
         -5    1    3    3    0  502 -0.35782129023E+01 -0.42182877950E+02  0.17568234089E+02  0.46025145830E+02  0.41800000000E+01 0. -1.
        -11    1    1    2    0    0 -0.11057224429E+02 -0.18541775079E+02 -0.18965305199E+02  0.28735734486E+02  0.00000000000E+00 0.  1.
         11    1    1    2    0    0  0.82631297370E+02  0.16448623728E+02 -0.28475358565E+03  0.29695638243E+03  0.00000000000E+00 0. -1.
</event>
<event>
 7    1  0.2601031E-009  0.1614879E+03  0.7561462E-02  0.1187027E+00
          1   -1    0    0  501    0  0.00000000000E+00  0.00000000000E+00  0.25922753882E+03  0.25922753882E+03  0.00000000000E+00 0. -1.
         -1   -1    0    0    0  501 -0.00000000000E+00 -0.00000000000E+00 -0.14144763722E+03  0.14144763722E+03  0.00000000000E+00 0.  1.
         25    2    1    2    0    0  0.78630621364E+02 -0.10523315264E+03  0.15216475646E+03  0.23676602464E+03  0.12508895349E+03 0.  0.
          5    1    3    3  502    0 -0.33813243774E+02 -0.17280402008E+02  0.38510240206E+02  0.54244435188E+02  0.41800000000E+01 0.  1.
         -5    1    3    3    0  502  0.11244386514E+03 -0.87952750630E+02  0.11365451625E+03  0.18252158945E+03  0.41800000000E+01 0.  1.
        -11    1    1    2    0    0 -0.48599874646E+02  0.10039282208E+03 -0.57704510802E+02  0.12558056023E+03  0.00000000000E+00 0.  1.
         11    1    1    2    0    0 -0.30030746719E+02  0.48403305592E+01  0.23319655947E+02  0.38328591180E+02  0.00000000000E+00 0. -1.
</event>
<event>
 7    1  0.2601031E-009  0.1513048E+03  0.7561462E-02  0.1198879E+00
         -1   -1    0    0    0  501 -0.00000000000E+00  0.00000000000E+00  0.64508669997E+03  0.64508669997E+03  0.00000000000E+00 0.  1.
          1   -1    0    0  501    0  0.00000000000E+00 -0.00000000000E+00 -0.43712675007E+02  0.43712675007E+02  0.00000000000E+00 0. -1.
         25    2    1    2    0    0  0.85693817724E+02  0.93484582713E+02  0.37007974333E+03  0.41071813860E+03  0.12509026881E+03 0.  0.
          5    1    3    3  502    0 -0.11632641748E+02 -0.10392138931E+02  0.13430955843E+03  0.13527691892E+03  0.41800000000E+01 0.  1.
         -5    1    3    3    0  502  0.97326459472E+02  0.10387672164E+03  0.23577018490E+03  0.27544121968E+03  0.41800000000E+01 0.  1.
        -11    1    1    2    0    0  0.81353475372E+01 -0.29203112516E+02  0.99400234985E+02  0.10392022120E+03  0.00000000000E+00 0.  1.
         11    1    1    2    0    0 -0.93829165261E+02 -0.64281470197E+02  0.13189404664E+03  0.17416101516E+03  0.00000000000E+00 0. -1.
</event>
<event>
 7    1  0.2601031E-009  0.3811328E+03  0.7561462E-02  0.1050516E+00
          1   -1    0    0  501    0  0.00000000000E+00  0.00000000000E+00  0.24994690593E+03  0.24994690593E+03  0.00000000000E+00 0. -1.
         -1   -1    0    0    0  501 -0.00000000000E+00 -0.00000000000E+00 -0.59599613450E+03  0.59599613450E+03  0.00000000000E+00 0.  1.
         25    2    1    2    0    0 -0.36803722750E+03  0.38645717567E+02 -0.19079357281E+03  0.43473460643E+03  0.12508836193E+03 0.  0.
          5    1    3    3  502    0 -0.30621142448E+03  0.67937374810E+02 -0.18889108616E+03  0.36616695401E+03  0.41800000000E+01 0. -1.
         -5    1    3    3    0  502 -0.61825803015E+02 -0.29291657244E+02 -0.19024866529E+01  0.68567652417E+02  0.41800000000E+01 0. -1.
        -11    1    1    2    0    0  0.51357705466E+02 -0.37099128228E+02 -0.16556254762E+02  0.65483347484E+02  0.00000000000E+00 0. -1.
         11    1    1    2    0    0  0.31667952203E+03 -0.15465893383E+01 -0.13869940099E+03  0.34572508652E+03  0.00000000000E+00 0.  1.
</event>
<event>
 7    1  0.2601031E-009  0.8274074E+02  0.7561462E-02  0.1321449E+00
         -1   -1    0    0    0  501 -0.00000000000E+00  0.00000000000E+00  0.51116679587E+02  0.51116679587E+02  0.00000000000E+00 0.  1.
          1   -1    0    0  501    0  0.00000000000E+00 -0.00000000000E+00 -0.26846396691E+03  0.26846396691E+03  0.00000000000E+00 0. -1.
         25    2    1    2    0    0 -0.12076843387E+02  0.35155754325E+02 -0.92906013015E+02  0.16019080805E+03  0.12509112887E+03 0.  0.
          5    1    3    3  502    0 -0.41080768771E+02  0.17404658137E+02 -0.11223758634E+03  0.12085238878E+03  0.41800000000E+01 0. -1.
         -5    1    3    3    0  502  0.29003925384E+02  0.17751096188E+02  0.19331573322E+02  0.39338419270E+02  0.41800000000E+01 0. -1.
        -11    1    1    2    0    0  0.51374157128E+01  0.25168576621E+02 -0.61345410191E+01  0.26409901228E+02  0.00000000000E+00 0.  1.
         11    1    1    2    0    0  0.69394276740E+01 -0.60324330947E+02 -0.11830673329E+03  0.13297993722E+03  0.00000000000E+00 0. -1.
</event>
<event>
 7    1  0.2601031E-009  0.1369692E+03  0.7561462E-02  0.1217466E+00
         -2   -1    0    0    0  501 -0.00000000000E+00  0.00000000000E+00  0.48688618195E+02  0.48688618195E+02  0.00000000000E+00 0.  1.
          2   -1    0    0  501    0  0.00000000000E+00 -0.00000000000E+00 -0.50086083889E+03  0.50086083889E+03  0.00000000000E+00 0. -1.
         25    2    1    2    0    0  0.69375595426E+02  0.52366955882E+02 -0.12427216679E+03  0.19658093091E+03  0.12508085246E+03 0.  0.
          5    1    3    3  502    0  0.58259034827E+02  0.92654801737E+02 -0.80598120281E+02  0.13598734065E+03  0.41800000000E+01 0. -1.
         -5    1    3    3    0  502  0.11116560600E+02 -0.40287845855E+02 -0.43674046504E+02  0.60593590265E+02  0.41800000000E+01 0. -1.
        -11    1    1    2    0    0  0.11616342809E+02 -0.38529453916E+02 -0.56241996901E+02  0.69156492498E+02  0.00000000000E+00 0. -1.
         11    1    1    2    0    0 -0.80991938235E+02 -0.13837501967E+02 -0.27165805701E+03  0.28381203367E+03  0.00000000000E+00 0.  1.
</event>
<event>
 7    1  0.2601031E-009  0.9381561E+02  0.7561462E-02  0.1293866E+00
         -4   -1    0    0    0  501 -0.00000000000E+00  0.00000000000E+00  0.12233997459E+03  0.12233997459E+03  0.00000000000E+00 0.  1.
          4   -1    0    0  501    0  0.00000000000E+00 -0.00000000000E+00 -0.14466096173E+03  0.14466096173E+03  0.00000000000E+00 0. -1.
         25    2    1    2    0    0 -0.12372489839E+02  0.53280646527E+02 -0.66112160011E+02  0.15168947396E+03  0.12508786116E+03 0.  0.
          5    1    3    3  502    0  0.13492124748E+02  0.58574243544E+02  0.18440865823E+02  0.63012041462E+02  0.41800000000E+01 0. -1.
         -5    1    3    3    0  502 -0.25864614587E+02 -0.52935970174E+01 -0.84553025833E+02  0.88677432500E+02  0.41800000000E+01 0. -1.
        -11    1    1    2    0    0 -0.27204473144E+02 -0.54651049085E+02  0.73378122220E+01  0.61487104448E+02  0.00000000000E+00 0. -1.
         11    1    1    2    0    0  0.39576962983E+02  0.13704025588E+01  0.36453360642E+02  0.53824357908E+02  0.00000000000E+00 0.  1.
</event>
<event>
 7    1  0.2601031E-009  0.1617319E+03  0.7561462E-02  0.1186755E+00
         -2   -1    0    0    0  501 -0.00000000000E+00  0.00000000000E+00  0.57289996491E+02  0.57289996491E+02  0.00000000000E+00 0.  1.
          2   -1    0    0  501    0  0.00000000000E+00 -0.00000000000E+00 -0.49855958045E+03  0.49855958045E+03  0.00000000000E+00 0. -1.
         25    2    1    2    0    0  0.11288276466E+03  0.48077819429E+02 -0.16705914440E+03  0.24209643889E+03  0.12509169724E+03 0.  0.
          5    1    3    3  502    0 -0.21298800470E+02  0.28362114734E+02 -0.57551159972E+02  0.67732243929E+02  0.41800000000E+01 0.  1.
         -5    1    3    3    0  502  0.13418156513E+03  0.19715704695E+02 -0.10950798443E+03  0.17436419496E+03  0.41800000000E+01 0.  1.
        -11    1    1    2    0    0 -0.47053221929E+02 -0.68530642480E+02 -0.13830985655E+03  0.16136936225E+03  0.00000000000E+00 0.  1.
         11    1    1    2    0    0 -0.65829542727E+02  0.20452823051E+02 -0.13590058300E+03  0.15238377580E+03  0.00000000000E+00 0. -1.
</event>
<event>
 7    1  0.2601031E-009  0.1184528E+03  0.7561462E-02  0.1245671E+00
         -1   -1    0    0    0  501 -0.00000000000E+00  0.00000000000E+00  0.74558284577E+02  0.74558284577E+02  0.00000000000E+00 0.  1.
          1   -1    0    0  501    0  0.00000000000E+00 -0.00000000000E+00 -0.27273949429E+03  0.27273949429E+03  0.00000000000E+00 0. -1.
         25    2    1    2    0    0  0.79880589774E+02  0.35968543669E+02 -0.73697870946E+02  0.16958143454E+03  0.12510732193E+03 0.  0.
          5    1    3    3  502    0  0.62412126475E+02 -0.28905799012E+02 -0.75531708942E+02  0.10224152876E+03  0.41800000000E+01 0.  1.
         -5    1    3    3    0  502  0.17468463299E+02  0.64874342680E+02  0.18338379956E+01  0.67339905777E+02  0.41800000000E+01 0.  1.
        -11    1    1    2    0    0 -0.14460624127E+02  0.12619878914E+02 -0.85046472776E+02  0.87185282735E+02  0.00000000000E+00 0. -1.
         11    1    1    2    0    0 -0.65419965647E+02 -0.48588422583E+02 -0.39436865991E+02  0.90531061595E+02  0.00000000000E+00 0.  1.
</event>
<event>
 7    1  0.2601031E-009  0.8757921E+02  0.7561462E-02  0.1308822E+00
         -1   -1    0    0    0  501 -0.00000000000E+00  0.00000000000E+00  0.40007132635E+02  0.40007132635E+02  0.00000000000E+00 0.  1.
          1   -1    0    0  501    0  0.00000000000E+00 -0.00000000000E+00 -0.36161353041E+03  0.36161353041E+03  0.00000000000E+00 0. -1.
         25    2    1    2    0    0  0.30596509643E+02  0.38221695236E+02 -0.17644187056E+03  0.22175883143E+03  0.12509277053E+03 0.  0.
          5    1    3    3  502    0 -0.29019739677E+02  0.11313842598E+02 -0.14626762504E+03  0.14960561106E+03  0.41800000000E+01 0. -1.
         -5    1    3    3    0  502  0.59616249320E+02  0.26907852638E+02 -0.30174245524E+02  0.72153220369E+02  0.41800000000E+01 0. -1.
        -11    1    1    2    0    0 -0.11227721150E+02 -0.52780067360E+02 -0.29124568338E+02  0.61319146387E+02  0.00000000000E+00 0.  1.
         11    1    1    2    0    0 -0.19368788493E+02  0.14558372124E+02 -0.11603995887E+03  0.11854268523E+03  0.00000000000E+00 0. -1.
</event>
<event>
 7    1  0.2601031E-009  0.2030360E+03  0.7561462E-02  0.1147202E+00
          2   -1    0    0  501    0  0.00000000000E+00  0.00000000000E+00  0.24987849119E+04  0.24987849119E+04  0.00000000000E+00 0.  1.
         -2   -1    0    0    0  501 -0.00000000000E+00 -0.00000000000E+00 -0.35413002905E+02  0.35413002905E+02  0.00000000000E+00 0. -1.
         25    2    1    2    0    0 -0.14590090681E+03 -0.12428406767E+03  0.21064432425E+04  0.21188394425E+04  0.12507535687E+03 0.  0.
          5    1    3    3  502    0 -0.92918640168E+02 -0.20631432710E+02  0.56277261121E+03  0.57078018013E+03  0.41800000000E+01 0. -1.
         -5    1    3    3    0  502 -0.52982266642E+02 -0.10365263496E+03  0.15436706313E+04  0.15480592623E+04  0.41800000000E+01 0. -1.
        -11    1    1    2    0    0  0.90705965523E+02  0.56347622316E+02  0.27682282525E+03  0.29670440392E+03  0.00000000000E+00 0.  1.
         11    1    1    2    0    0  0.55194941287E+02  0.67936445354E+02  0.80105841158E+02  0.11865406836E+03  0.00000000000E+00 0. -1.
</event>
<event>
 7    1  0.2601031E-009  0.1103063E+03  0.7561462E-02  0.1260004E+00
         -2   -1    0    0    0  501 -0.00000000000E+00  0.00000000000E+00  0.19993826554E+02  0.19993826554E+02  0.00000000000E+00 0.  1.
          2   -1    0    0  501    0  0.00000000000E+00 -0.00000000000E+00 -0.77325078222E+03  0.77325078222E+03  0.00000000000E+00 0. -1.
         25    2    1    2    0    0  0.53437525846E+01  0.47899094583E+02 -0.56613862820E+03  0.58179339661E+03  0.12509089110E+03 0.  0.
          5    1    3    3  502    0 -0.31881705988E+02 -0.32256732508E+02 -0.18642820165E+03  0.19191114282E+03  0.41800000000E+01 0. -1.
         -5    1    3    3    0  502  0.37225458572E+02  0.80155827091E+02 -0.37971042655E+03  0.38988225379E+03  0.41800000000E+01 0. -1.
        -11    1    1    2    0    0 -0.38735245258E+02 -0.25056807736E+02 -0.48023438686E+02  0.66592142948E+02  0.00000000000E+00 0.  1.
         11    1    1    2    0    0  0.33391492674E+02 -0.22842286847E+02 -0.13909488878E+03  0.14485906922E+03  0.00000000000E+00 0. -1.
</event>
<event>
 7    1  0.2601031E-009  0.1613647E+03  0.7561462E-02  0.1187165E+00
          1   -1    0    0  501    0  0.00000000000E+00  0.00000000000E+00  0.23526825775E+04  0.23526825775E+04  0.00000000000E+00 0. -1.
         -1   -1    0    0    0  501 -0.00000000000E+00 -0.00000000000E+00 -0.14025496402E+02  0.14025496402E+02  0.00000000000E+00 0.  1.
         25    2    1    2    0    0  0.10899735535E+03 -0.64497912528E+02  0.16722767185E+04  0.16817244530E+04  0.12508920068E+03 0.  0.
          5    1    3    3  502    0  0.10436883474E+03 -0.94823592265E+02  0.11662367146E+04  0.11747382322E+04  0.41800000000E+01 0.  1.
         -5    1    3    3    0  502  0.46285206173E+01  0.30325679737E+02  0.50604000393E+03  0.50698622076E+03  0.41800000000E+01 0.  1.
        -11    1    1    2    0    0 -0.54078690951E+02  0.77266895658E+02  0.51234703806E+03  0.52095505121E+03  0.00000000000E+00 0. -1.
         11    1    1    2    0    0 -0.54918664402E+02 -0.12768983130E+02  0.15403332454E+03  0.16402856976E+03  0.00000000000E+00 0.  1.
</event>
<event>
 7    1  0.2601031E-009  0.1035060E+03  0.7561462E-02  0.1273091E+00
          1   -1    0    0  501    0  0.00000000000E+00  0.00000000000E+00  0.88035686693E+03  0.88035686693E+03  0.00000000000E+00 0. -1.
         -1   -1    0    0    0  501 -0.00000000000E+00 -0.00000000000E+00 -0.15998738572E+02  0.15998738572E+02  0.00000000000E+00 0.  1.
         25    2    1    2    0    0  0.33318544269E+02 -0.33368538126E+02  0.55137263813E+03  0.56734677695E+03  0.12508794712E+03 0.  0.
          5    1    3    3  502    0  0.48103445176E+02 -0.64503768542E+02  0.49210916450E+03  0.49866178897E+03  0.41800000000E+01 0.  1.
         -5    1    3    3    0  502 -0.14784900906E+02  0.31135230416E+02  0.59263473627E+02  0.68684987983E+02  0.41800000000E+01 0.  1.
        -11    1    1    2    0    0  0.25766932312E+02  0.15135755812E+02  0.45261358827E+02  0.54236671245E+02  0.00000000000E+00 0.  1.
         11    1    1    2    0    0 -0.59085476582E+02  0.18232782313E+02  0.26772413140E+03  0.27477215730E+03  0.00000000000E+00 0. -1.
</event>
<event>
 7    1  0.2601031E-009  0.1128855E+03  0.7561462E-02  0.1255318E+00
         -1   -1    0    0    0  501 -0.00000000000E+00  0.00000000000E+00  0.21562377218E+02  0.21562377218E+02  0.00000000000E+00 0.  1.
          1   -1    0    0  501    0  0.00000000000E+00 -0.00000000000E+00 -0.66504697351E+03  0.66504697351E+03  0.00000000000E+00 0. -1.
         25    2    1    2    0    0 -0.18498722184E+01  0.52531620751E+02 -0.36009608306E+03  0.38481194128E+03  0.12509215766E+03 0.  0.
          5    1    3    3  502    0  0.37788965168E+02 -0.23174580693E+02 -0.75688514733E+02  0.87813955276E+02  0.41800000000E+01 0. -1.
         -5    1    3    3    0  502 -0.39638837386E+02  0.75706201444E+02 -0.28440756833E+03  0.29699798600E+03  0.41800000000E+01 0. -1.
        -11    1    1    2    0    0  0.69968006878E+01  0.20918311879E+02 -0.12751281177E+03  0.12940652285E+03  0.00000000000E+00 0. -1.
         11    1    1    2    0    0 -0.51469284693E+01 -0.73449932630E+02 -0.15587570147E+03  0.17239088660E+03  0.00000000000E+00 0.  1.
</event>
<event>
 7    1  0.2601031E-009  0.9871395E+02  0.7561462E-02  0.1283024E+00
          1   -1    0    0  501    0  0.00000000000E+00  0.00000000000E+00  0.45312209901E+03  0.45312209901E+03  0.00000000000E+00 0. -1.
         -1   -1    0    0    0  501 -0.00000000000E+00 -0.00000000000E+00 -0.25690565651E+02  0.25690565651E+02  0.00000000000E+00 0.  1.
         25    2    1    2    0    0  0.54441486059E+01  0.12696332445E+02  0.21717101373E+03  0.25100139611E+03  0.12509043142E+03 0.  0.
          5    1    3    3  502    0  0.34560869403E+02  0.51147766030E+02  0.17887589933E+03  0.18927389525E+03  0.41800000000E+01 0. -1.
         -5    1    3    3    0  502 -0.29116720797E+02 -0.38451433585E+02  0.38295114403E+02  0.61727500856E+02  0.41800000000E+01 0. -1.
        -11    1    1    2    0    0  0.38832089035E+00 -0.49691150251E+02  0.10722266804E+03  0.11817809335E+03  0.00000000000E+00 0.  1.
         11    1    1    2    0    0 -0.58324694963E+01  0.36994817806E+02  0.10303785160E+03  0.10963317521E+03  0.00000000000E+00 0. -1.
</event>
<event>
 7    1  0.2759065E-009  0.1058345E+03  0.7561462E-02  0.1268484E+00
         -1   -1    0    0    0  501 -0.00000000000E+00  0.00000000000E+00  0.23397676875E+02  0.23397676875E+02  0.00000000000E+00 0.  1.
          1   -1    0    0  501    0  0.00000000000E+00 -0.00000000000E+00 -0.52406543171E+03  0.52406543171E+03  0.00000000000E+00 0. -1.
         25    2    1    2    0    0  0.16349431369E+02 -0.38942556906E+01 -0.32823634149E+03  0.35166641322E+03  0.12509077175E+03 0.  0.
          5    1    3    3  502    0  0.59832598728E+02  0.29194063180E+02 -0.13165667509E+03  0.14759127919E+03  0.41800000000E+01 0. -1.
         -5    1    3    3    0  502 -0.43483167359E+02 -0.33088318871E+02 -0.19657966639E+03  0.20407513403E+03  0.41800000000E+01 0. -1.
        -11    1    1    2    0    0  0.39598701438E+01  0.44545022092E+02 -0.62574626846E+02  0.76912440409E+02  0.00000000000E+00 0.  1.
         11    1    1    2    0    0 -0.20309301513E+02 -0.40650766401E+02 -0.10985678651E+03  0.11888425496E+03  0.00000000000E+00 0. -1.
</event>
<event>
 7    1  0.2601031E-009  0.1380420E+03  0.7561462E-02  0.1215988E+00
          3   -1    0    0  501    0  0.00000000000E+00  0.00000000000E+00  0.12633600757E+04  0.12633600757E+04  0.00000000000E+00 0. -1.
         -3   -1    0    0    0  501 -0.00000000000E+00 -0.00000000000E+00 -0.16335597666E+02  0.16335597666E+02  0.00000000000E+00 0.  1.
         25    2    1    2    0    0 -0.79692430957E+02 -0.53147970522E+02  0.68668634244E+03  0.70453049956E+03  0.12509796799E+03 0.  0.
          5    1    3    3  502    0 -0.78592434322E+02  0.21130041185E+02  0.40965570663E+03  0.41768231917E+03  0.41800000000E+01 0.  1.
         -5    1    3    3    0  502 -0.10999966345E+01 -0.74278011707E+02  0.27703063581E+03  0.28684818039E+03  0.41800000000E+01 0.  1.
        -11    1    1    2    0    0  0.34609001229E+02 -0.15612411664E+02  0.89788471830E+02  0.97485896609E+02  0.00000000000E+00 0.  1.
         11    1    1    2    0    0  0.45083429728E+02  0.68760382185E+02  0.47054966373E+03  0.47767927717E+03  0.00000000000E+00 0. -1.
</event>
<event>
 7    1  0.2601031E-009  0.7830838E+02  0.7561462E-02  0.1333922E+00
          1   -1    0    0  501    0  0.00000000000E+00  0.00000000000E+00  0.18041970266E+03  0.18041970266E+03  0.00000000000E+00 0. -1.
         -1   -1    0    0    0  501 -0.00000000000E+00 -0.00000000000E+00 -0.77678089946E+02  0.77678089946E+02  0.00000000000E+00 0.  1.
         25    2    1    2    0    0 -0.16487323154E+02 -0.56358284038E+02  0.28159293796E+02  0.14100892610E+03  0.12506991408E+03 0.  0.
          5    1    3    3  502    0 -0.85924736897E+00  0.19662795023E+02 -0.35325265297E+02  0.40653543296E+02  0.41800000000E+01 0. -1.
         -5    1    3    3    0  502 -0.15628075785E+02 -0.76021079061E+02  0.63484559093E+02  0.10035538280E+03  0.41800000000E+01 0. -1.
        -11    1    1    2    0    0  0.38720137937E+01  0.17293974263E+02  0.73938826214E+02  0.76033045832E+02  0.00000000000E+00 0. -1.
         11    1    1    2    0    0  0.12615309361E+02  0.39064309775E+02  0.64349270434E+00  0.41055820675E+02  0.00000000000E+00 0.  1.
</event>
<event>
 7    1  0.2601031E-009  0.1832593E+03  0.7561462E-02  0.1164685E+00
          2   -1    0    0  501    0  0.00000000000E+00  0.00000000000E+00  0.14330688745E+04  0.14330688745E+04  0.00000000000E+00 0. -1.
         -2   -1    0    0    0  501 -0.00000000000E+00 -0.00000000000E+00 -0.34464301179E+02  0.34464301179E+02  0.00000000000E+00 0.  1.
         25    2    1    2    0    0 -0.13612706940E+03 -0.11073888390E+03  0.99518230248E+03  0.10182500336E+04  0.12510649969E+03 0.  0.
          5    1    3    3  502    0 -0.12622824258E+03 -0.11428540739E+03  0.62211189372E+03  0.64500806528E+03  0.41800000000E+01 0.  1.
         -5    1    3    3    0  502 -0.98988268205E+01  0.35465234914E+01  0.37307040875E+03  0.37324196829E+03  0.41800000000E+01 0.  1.
        -11    1    1    2    0    0  0.10108909491E+03  0.11059677582E+03  0.24625134054E+03  0.28825401064E+03  0.00000000000E+00 0.  1.
         11    1    1    2    0    0  0.35037974490E+02  0.14210808173E+00  0.15717093029E+03  0.16102913147E+03  0.00000000000E+00 0. -1.
</event>
<event>
 7    1  0.2601031E-009  0.1856287E+03  0.7561462E-02  0.1162464E+00
          1   -1    0    0  501    0  0.00000000000E+00  0.00000000000E+00  0.16369730377E+03  0.16369730377E+03  0.00000000000E+00 0. -1.
         -1   -1    0    0    0  501 -0.00000000000E+00 -0.00000000000E+00 -0.23202521098E+03  0.23202521098E+03  0.00000000000E+00 0.  1.
         25    2    1    2    0    0 -0.14128721365E+03 -0.69991928233E+02 -0.71048163964E+02  0.21344006251E+03  0.12509145423E+03 0.  0.
          5    1    3    3  502    0 -0.11570985346E+03  0.10549694149E+02 -0.34505816682E+02  0.12127732690E+03  0.41800000000E+01 0.  1.
         -5    1    3    3    0  502 -0.25577360188E+02 -0.80541622382E+02 -0.36542347282E+02  0.92162735609E+02  0.41800000000E+01 0.  1.
        -11    1    1    2    0    0  0.70457446852E+02 -0.49275705979E+00  0.33093021320E+02  0.77843706788E+02  0.00000000000E+00 0.  1.
         11    1    1    2    0    0  0.70829766799E+02  0.70484685293E+02 -0.30372764564E+02  0.10443874546E+03  0.00000000000E+00 0. -1.
</event>
<event>
 7    1  0.2601031E-009  0.9098403E+02  0.7561462E-02  0.1300486E+00
          1   -1    0    0  501    0  0.00000000000E+00  0.00000000000E+00  0.74073889995E+02  0.74073889995E+02  0.00000000000E+00 0. -1.
         -1   -1    0    0    0  501 -0.00000000000E+00 -0.00000000000E+00 -0.26061171750E+03  0.26061171750E+03  0.00000000000E+00 0.  1.
         25    2    1    2    0    0 -0.70404546382E+02 -0.36774580923E+02 -0.13860841823E+03  0.20289742872E+03  0.12508358415E+03 0.  0.
          5    1    3    3  502    0 -0.20131511479E+02  0.18199664320E+02 -0.12382693839E+03  0.12683488719E+03  0.41800000000E+01 0. -1.
         -5    1    3    3    0  502 -0.50273034903E+02 -0.54974245243E+02 -0.14781479837E+02  0.76062541534E+02  0.41800000000E+01 0. -1.
        -11    1    1    2    0    0  0.44615104894E+02  0.27913441279E+02 -0.76136372280E+02  0.92554929489E+02  0.00000000000E+00 0.  1.
         11    1    1    2    0    0  0.25789441487E+02  0.88611396438E+01  0.28206963001E+02  0.39233249289E+02  0.00000000000E+00 0. -1.
</event>
<event>
 7    1  0.2601031E-009  0.1057624E+03  0.7561462E-02  0.1268625E+00
          2   -1    0    0  501    0  0.00000000000E+00  0.00000000000E+00  0.18512677998E+03  0.18512677998E+03  0.00000000000E+00 0. -1.
         -2   -1    0    0    0  501 -0.00000000000E+00 -0.00000000000E+00 -0.71625205819E+02  0.71625205819E+02  0.00000000000E+00 0.  1.
         25    2    1    2    0    0 -0.13637871597E+02 -0.36898178924E+02  0.48487941747E+02  0.13980456139E+03  0.12508704066E+03 0.  0.
          5    1    3    3  502    0 -0.15949970509E+02  0.39753412560E+02 -0.88794142280E+01  0.43943734097E+02  0.41800000000E+01 0. -1.
         -5    1    3    3    0  502  0.23120989126E+01 -0.76651591484E+02  0.57367355975E+02  0.95860827296E+02  0.41800000000E+01 0. -1.
        -11    1    1    2    0    0  0.36257080970E+02 -0.11687602882E+02  0.84374575236E+01  0.39017517490E+02  0.00000000000E+00 0.  1.
         11    1    1    2    0    0 -0.22619209373E+02  0.48585781807E+02  0.56576174888E+02  0.77929906913E+02  0.00000000000E+00 0. -1.
</event>
<event>
 7    1  0.2601031E-009  0.1300037E+03  0.7561462E-02  0.1227450E+00
          1   -1    0    0  501    0  0.00000000000E+00  0.00000000000E+00  0.75294677194E+03  0.75294677194E+03  0.00000000000E+00 0. -1.
         -1   -1    0    0    0  501 -0.00000000000E+00 -0.00000000000E+00 -0.27958233053E+02  0.27958233053E+02  0.00000000000E+00 0.  1.
         25    2    1    2    0    0  0.83504322608E+02  0.39015200651E+02  0.47365622547E+03  0.49848976360E+03  0.12508663681E+03 0.  0.
          5    1    3    3  502    0  0.10953264001E+03  0.44414641460E+02  0.43877734334E+03  0.45443711230E+03  0.41800000000E+01 0.  1.
         -5    1    3    3    0  502 -0.26028317406E+02 -0.53994408095E+01  0.34878882132E+02  0.44052651303E+02  0.41800000000E+01 0.  1.
        -11    1    1    2    0    0 -0.63231213907E+02  0.78985665397E+01  0.72978494415E+02  0.96883612714E+02  0.00000000000E+00 0. -1.
         11    1    1    2    0    0 -0.20273108701E+02 -0.46913767190E+02  0.17835381900E+03  0.18553162867E+03  0.00000000000E+00 0.  1.
</event>
<event>
 7    1  0.2601031E-009  0.1904864E+03  0.7561462E-02  0.1158023E+00
          2   -1    0    0  501    0  0.00000000000E+00  0.00000000000E+00  0.63035328204E+03  0.63035328204E+03  0.00000000000E+00 0. -1.
         -2   -1    0    0    0  501 -0.00000000000E+00 -0.00000000000E+00 -0.92704869764E+02  0.92704869764E+02  0.00000000000E+00 0.  1.
         25    2    1    2    0    0 -0.37098648024E+02  0.15198965268E+03  0.49895520053E+03  0.53766242841E+03  0.12508969014E+03 0.  0.
          5    1    3    3  502    0  0.25282949230E+02 -0.88664952403E+01  0.54393537177E+02  0.60778051517E+02  0.41800000000E+01 0.  1.
         -5    1    3    3    0  502 -0.62381597253E+02  0.16085614792E+03  0.44456166336E+03  0.47688437690E+03  0.41800000000E+01 0.  1.
        -11    1    1    2    0    0 -0.14921609870E+02 -0.11843994671E+03  0.23722017029E+02  0.12171035087E+03  0.00000000000E+00 0.  1.
         11    1    1    2    0    0  0.52020257894E+02 -0.33549705971E+02  0.14971194715E+02  0.63685372522E+02  0.00000000000E+00 0. -1.
</event>
<event>
 7    1  0.2601031E-009  0.3338925E+03  0.7561462E-02  0.1069427E+00
         -2   -1    0    0    0  501 -0.00000000000E+00  0.00000000000E+00  0.47665763456E+02  0.47665763456E+02  0.00000000000E+00 0.  1.
          2   -1    0    0  501    0  0.00000000000E+00 -0.00000000000E+00 -0.25970206970E+04  0.25970206970E+04  0.00000000000E+00 0. -1.
         25    2    1    2    0    0  0.11166790080E+02  0.32697844942E+03 -0.10349722451E+04  0.10926361863E+04  0.12508670503E+03 0.  0.
          5    1    3    3  502    0 -0.19195045045E+02  0.29620082068E+03 -0.79183503232E+03  0.84564978965E+03  0.41800000000E+01 0. -1.
         -5    1    3    3    0  502  0.30361835125E+02  0.30777628741E+02 -0.24313721281E+03  0.24698639662E+03  0.41800000000E+01 0. -1.
        -11    1    1    2    0    0 -0.14807951105E+02 -0.25941738989E+03 -0.13408371514E+04  0.13657821657E+04  0.00000000000E+00 0. -1.
         11    1    1    2    0    0  0.36411610253E+01 -0.67561059534E+02 -0.17354553710E+03  0.18626810856E+03  0.00000000000E+00 0.  1.
</event>
<event>
 7    1  0.2601031E-009  0.1152472E+03  0.7561462E-02  0.1251150E+00
          1   -1    0    0  501    0  0.00000000000E+00  0.00000000000E+00  0.10103721680E+03  0.10103721680E+03  0.00000000000E+00 0. -1.
         -1   -1    0    0    0  501 -0.00000000000E+00 -0.00000000000E+00 -0.16254522635E+03  0.16254522635E+03  0.00000000000E+00 0.  1.
         25    2    1    2    0    0 -0.66735526126E+02 -0.10446858143E+02 -0.43278347127E+02  0.14861014815E+03  0.12509673661E+03 0.  0.
          5    1    3    3  502    0 -0.86078292348E+01  0.54115840516E+02 -0.20965048275E+02  0.58818573325E+02  0.41800000000E+01 0.  1.
         -5    1    3    3    0  502 -0.58127696891E+02 -0.64562698659E+02 -0.22313298853E+02  0.89791574826E+02  0.41800000000E+01 0.  1.
        -11    1    1    2    0    0  0.46185662945E+02 -0.21209320180E+02  0.25787059939E+02  0.56990553467E+02  0.00000000000E+00 0. -1.
         11    1    1    2    0    0  0.20549863181E+02  0.31656178323E+02 -0.44016722366E+02  0.57981741528E+02  0.00000000000E+00 0.  1.
</event>
<event>
 7    1  0.2601031E-009  0.9980469E+02  0.7561462E-02  0.1280707E+00
         -2   -1    0    0    0  501 -0.00000000000E+00  0.00000000000E+00  0.89909129608E+02  0.89909129608E+02  0.00000000000E+00 0.  1.
          2   -1    0    0  501    0  0.00000000000E+00 -0.00000000000E+00 -0.15214680426E+03  0.15214680426E+03  0.00000000000E+00 0. -1.
         25    2    1    2    0    0 -0.20692713826E+02  0.71225784602E+01  0.10283668605E+02  0.12740438798E+03  0.12508878730E+03 0.  0.
          5    1    3    3  502    0  0.38015623621E+02  0.31504108180E+02 -0.24002366135E+02  0.55057083573E+02  0.41800000000E+01 0.  1.
         -5    1    3    3    0  502 -0.58708337447E+02 -0.24381529720E+02  0.34286034740E+02  0.72347304410E+02  0.41800000000E+01 0.  1.
        -11    1    1    2    0    0 -0.24594716823E-01 -0.44028957109E+02 -0.23571503816E+02  0.49941620530E+02  0.00000000000E+00 0.  1.
         11    1    1    2    0    0  0.20717308543E+02  0.36906378649E+02 -0.48949839446E+02  0.64709925360E+02  0.00000000000E+00 0. -1.
</event>
<event>
 7    1  0.2601031E-009  0.1894519E+03  0.7561462E-02  0.1158957E+00
         -1   -1    0    0    0  501 -0.00000000000E+00  0.00000000000E+00  0.74221110224E+03  0.74221110224E+03  0.00000000000E+00 0.  1.
          1   -1    0    0  501    0  0.00000000000E+00 -0.00000000000E+00 -0.64865702487E+02  0.64865702487E+02  0.00000000000E+00 0. -1.
         25    2    1    2    0    0  0.10719409789E+03  0.15312230405E+03  0.41774124604E+03  0.47443761756E+03  0.12508512980E+03 0.  0.
          5    1    3    3  502    0  0.32615278788E+02  0.27000470410E+02  0.24143809474E+03  0.24515833211E+03  0.41800000000E+01 0.  1.
         -5    1    3    3    0  502  0.74578819098E+02  0.12612183364E+03  0.17630315130E+03  0.22927928545E+03  0.41800000000E+01 0.  1.
        -11    1    1    2    0    0 -0.59744865853E+02 -0.56973650370E+02  0.18332089902E+03  0.20105222667E+03  0.00000000000E+00 0.  1.
         11    1    1    2    0    0 -0.47449232033E+02 -0.96148653677E+02  0.76283254688E+02  0.13158696049E+03  0.00000000000E+00 0. -1.
</event>
<event>
 7    1  0.2601031E-009  0.1185035E+03  0.7561462E-02  0.1245586E+00
         -1   -1    0    0    0  501 -0.00000000000E+00  0.00000000000E+00  0.76498009555E+02  0.76498009555E+02  0.00000000000E+00 0.  1.
          1   -1    0    0  501    0  0.00000000000E+00 -0.00000000000E+00 -0.21449706194E+03  0.21449706194E+03  0.00000000000E+00 0. -1.
         25    2    1    2    0    0  0.66222311910E+02  0.14916890329E+02 -0.65679874470E+02  0.15674537349E+03  0.12508939998E+03 0.  0.
          5    1    3    3  502    0  0.87430028520E+02  0.44516207545E+02 -0.23704412873E+02  0.10102016735E+03  0.41800000000E+01 0.  1.
         -5    1    3    3    0  502 -0.21207716609E+02 -0.29599317216E+02 -0.41975461598E+02  0.55725206144E+02  0.41800000000E+01 0.  1.
        -11    1    1    2    0    0  0.17337996108E+02 -0.39394963696E+00 -0.39803270686E+02  0.43417296814E+02  0.00000000000E+00 0. -1.
         11    1    1    2    0    0 -0.83560308019E+02 -0.14522940692E+02 -0.32515907225E+02  0.90832401186E+02  0.00000000000E+00 0.  1.
</event>
<event>
 7    1  0.2601031E-009  0.9057837E+02  0.7561462E-02  0.1301457E+00
          2   -1    0    0  501    0  0.00000000000E+00  0.00000000000E+00  0.81412704963E+03  0.81412704963E+03  0.00000000000E+00 0.  1.
         -2   -1    0    0    0  501 -0.00000000000E+00 -0.00000000000E+00 -0.24550029830E+02  0.24550029830E+02  0.00000000000E+00 0. -1.
         25    2    1    2    0    0  0.48174740292E+02  0.60104420277E+02  0.60175495922E+03  0.61942685089E+03  0.12508895123E+03 0.  0.
          5    1    3    3  502    0  0.44045408738E+02  0.63529053688E+02  0.16127025050E+03  0.17888964417E+03  0.41800000000E+01 0. -1.
         -5    1    3    3    0  502  0.41293315538E+01 -0.34246334108E+01  0.44048470872E+03  0.44053720673E+03  0.41800000000E+01 0. -1.
        -11    1    1    2    0    0 -0.55138614175E+02 -0.23942648343E+02  0.16575508418E+03  0.17631864653E+03  0.00000000000E+00 0.  1.
         11    1    1    2    0    0  0.69638738824E+01 -0.36161771934E+02  0.22066976398E+02  0.42931582037E+02  0.00000000000E+00 0. -1.
</event>
<event>
 7    1  0.2601031E-009  0.1135154E+03  0.7561462E-02  0.1254195E+00
          1   -1    0    0  501    0  0.00000000000E+00  0.00000000000E+00  0.51780029582E+03  0.51780029582E+03  0.00000000000E+00 0. -1.
         -1   -1    0    0    0  501 -0.00000000000E+00 -0.00000000000E+00 -0.28203490471E+02  0.28203490471E+02  0.00000000000E+00 0.  1.
         25    2    1    2    0    0  0.60077740523E+01 -0.48791531557E+02  0.22804201326E+03  0.26470159047E+03  0.12508823002E+03 0.  0.
          5    1    3    3  502    0  0.56339944903E+02 -0.46925305450E+02  0.81594147149E+02  0.10977818969E+03  0.41800000000E+01 0.  1.
         -5    1    3    3    0  502 -0.50332170851E+02 -0.18662261074E+01  0.14644786611E+03  0.15492340078E+03  0.41800000000E+01 0.  1.
        -11    1    1    2    0    0  0.84126893927E+01 -0.25768824054E+02  0.81414555954E+02  0.85808714925E+02  0.00000000000E+00 0. -1.
         11    1    1    2    0    0 -0.14420463445E+02  0.74560355611E+02  0.18014023614E+03  0.19549348089E+03  0.00000000000E+00 0.  1.
</event>
<event>
 7    1  0.2601031E-009  0.7835657E+02  0.7561462E-02  0.1333781E+00
          2   -1    0    0  501    0  0.00000000000E+00  0.00000000000E+00  0.64685931348E+02  0.64685931348E+02  0.00000000000E+00 0. -1.
         -2   -1    0    0    0  501 -0.00000000000E+00 -0.00000000000E+00 -0.35769837309E+03  0.35769837309E+03  0.00000000000E+00 0.  1.
         25    2    1    2    0    0 -0.30437889047E+02 -0.49964844424E+02 -0.28092469853E+03  0.31302869332E+03  0.12508127689E+03 0.  0.
          5    1    3    3  502    0  0.10966637696E+02 -0.38503233722E+00 -0.23095934177E+03  0.23125766008E+03  0.41800000000E+01 0.  1.
         -5    1    3    3    0  502 -0.41404526743E+02 -0.49579812087E+02 -0.49965356755E+02  0.81771033239E+02  0.41800000000E+01 0.  1.
        -11    1    1    2    0    0  0.36017753729E+02  0.59290457112E+02  0.22634595181E+02  0.72972335767E+02  0.00000000000E+00 0. -1.
         11    1    1    2    0    0 -0.55798646817E+01 -0.93256126880E+01 -0.34722338401E+02  0.36383275359E+02  0.00000000000E+00 0.  1.
</event>
<event>
 7    1  0.2601031E-009  0.7444437E+02  0.7561462E-02  0.1345600E+00
         -2   -1    0    0    0  501 -0.00000000000E+00  0.00000000000E+00  0.15077546047E+03  0.15077546047E+03  0.00000000000E+00 0.  1.
          2   -1    0    0  501    0  0.00000000000E+00 -0.00000000000E+00 -0.90830615780E+02  0.90830615780E+02  0.00000000000E+00 0. -1.
         25    2    1    2    0    0 -0.25138827135E+02 -0.15426825915E+02  0.76939432447E+00  0.12851907428E+03  0.12508642172E+03 0.  0.
          5    1    3    3  502    0  0.18435702839E+02 -0.71619727353E+01  0.54848041845E+02  0.58454675492E+02  0.41800000000E+01 0.  1.
         -5    1    3    3    0  502 -0.43574529974E+02 -0.82648531795E+01 -0.54078647520E+02  0.70064398793E+02  0.41800000000E+01 0.  1.
        -11    1    1    2    0    0 -0.14779307629E+01 -0.30772367907E+02  0.50373116831E+02  0.59047216744E+02  0.00000000000E+00 0.  1.
         11    1    1    2    0    0  0.26616757898E+02  0.46199193821E+02  0.88023335305E+01  0.54039785217E+02  0.00000000000E+00 0. -1.
</event>
<event>
 7    1  0.2601031E-009  0.9561112E+02  0.7561462E-02  0.1289806E+00
         -1   -1    0    0    0  501 -0.00000000000E+00  0.00000000000E+00  0.18448436267E+02  0.18448436267E+02  0.00000000000E+00 0.  1.
          1   -1    0    0  501    0  0.00000000000E+00 -0.00000000000E+00 -0.76497640363E+03  0.76497640363E+03  0.00000000000E+00 0. -1.
         25    2    1    2    0    0 -0.45297888130E+02 -0.18410557926E+01 -0.35733138886E+03  0.38129897887E+03  0.12509157312E+03 0.  0.
          5    1    3    3  502    0  0.16190415142E+02  0.20981372067E+02 -0.27332974623E+03  0.27464335071E+03  0.41800000000E+01 0. -1.
         -5    1    3    3    0  502 -0.61488303272E+02 -0.22822427859E+02 -0.84001642629E+02  0.10665562815E+03  0.41800000000E+01 0. -1.
        -11    1    1    2    0    0  0.68073371564E+02 -0.15777477962E+02 -0.31211266828E+03  0.31983938223E+03  0.00000000000E+00 0. -1.
         11    1    1    2    0    0 -0.22775483434E+02  0.17618533755E+02 -0.77083910227E+02  0.82286478799E+02  0.00000000000E+00 0.  1.
</event>
<event>
 7    1  0.2601031E-009  0.1118978E+03  0.7561462E-02  0.1257095E+00
         -1   -1    0    0    0  501 -0.00000000000E+00  0.00000000000E+00  0.89863538255E+02  0.89863538255E+02  0.00000000000E+00 0.  1.
          1   -1    0    0  501    0  0.00000000000E+00 -0.00000000000E+00 -0.19219833927E+03  0.19219833927E+03  0.00000000000E+00 0. -1.
         25    2    1    2    0    0  0.73353580584E+02  0.11375600569E+02 -0.57766045150E+02  0.15650854629E+03  0.12509139465E+03 0.  0.
          5    1    3    3  502    0  0.96661402075E+02  0.17984713501E+02 -0.77275559302E+02  0.12512338325E+03  0.41800000000E+01 0.  1.
         -5    1    3    3    0  502 -0.23307821492E+02 -0.66091129319E+01  0.19509514152E+02  0.31385163037E+02  0.41800000000E+01 0.  1.
        -11    1    1    2    0    0 -0.73052202534E+02 -0.32300570181E+02 -0.59707694807E+02  0.99724420020E+02  0.00000000000E+00 0. -1.
         11    1    1    2    0    0 -0.30137804971E+00  0.20924969612E+02  0.15138938946E+02  0.25828911212E+02  0.00000000000E+00 0.  1.
</event>
<event>
 7    1  0.2601031E-009  0.1357688E+03  0.7561462E-02  0.1219139E+00
         -1   -1    0    0    0  501 -0.00000000000E+00  0.00000000000E+00  0.28988227106E+02  0.28988227106E+02  0.00000000000E+00 0.  1.
          1   -1    0    0  501    0  0.00000000000E+00 -0.00000000000E+00 -0.87496875610E+03  0.87496875610E+03  0.00000000000E+00 0. -1.
         25    2    1    2    0    0  0.90281432653E+02  0.31951831862E+02 -0.62965833370E+03  0.64906628752E+03  0.12508305944E+03 0.  0.
          5    1    3    3  502    0 -0.12125508458E+02  0.31743500519E+02 -0.34171613585E+03  0.34342694664E+03  0.41800000000E+01 0.  1.
         -5    1    3    3    0  502  0.10240694111E+03  0.20833134254E+00 -0.28794219786E+03  0.30563934088E+03  0.41800000000E+01 0.  1.
        -11    1    1    2    0    0 -0.10666254316E+03 -0.95959141175E+01 -0.17246656849E+03  0.20301156846E+03  0.00000000000E+00 0.  1.
         11    1    1    2    0    0  0.16381110503E+02 -0.22355917744E+02 -0.43855626792E+02  0.51879127217E+02  0.00000000000E+00 0. -1.
</event>
<event>
 7    1  0.3190115E-009  0.1218104E+03  0.7561462E-02  0.1240140E+00
          2   -1    0    0  501    0  0.00000000000E+00  0.00000000000E+00  0.78490593871E+03  0.78490593871E+03  0.00000000000E+00 0.  1.
         -2   -1    0    0    0  501 -0.00000000000E+00 -0.00000000000E+00 -0.23412480103E+02  0.23412480103E+02  0.00000000000E+00 0. -1.
         25    2    1    2    0    0 -0.49129581401E+02  0.41018649286E+02  0.56306854518E+03  0.58033453321E+03  0.12508292656E+03 0.  0.
          5    1    3    3  502    0  0.72291092449E+01 -0.37777499169E+02  0.10002300258E+03  0.10724492020E+03  0.41800000000E+01 0. -1.
         -5    1    3    3    0  502 -0.56358690646E+02  0.78796148456E+02  0.46304554259E+03  0.47308961301E+03  0.41800000000E+01 0. -1.
        -11    1    1    2    0    0  0.57298122353E+02  0.83686295048E+01  0.74697245368E+02  0.94513423653E+02  0.00000000000E+00 0.  1.
         11    1    1    2    0    0 -0.81685409522E+01 -0.49387278791E+02  0.12372766806E+03  0.13347046195E+03  0.00000000000E+00 0. -1.
</event>
<event>
 7    1  0.2601031E-009  0.2098639E+03  0.7561462E-02  0.1141674E+00
          2   -1    0    0  501    0  0.00000000000E+00  0.00000000000E+00  0.26632313991E+04  0.26632313991E+04  0.00000000000E+00 0. -1.
         -2   -1    0    0    0  501 -0.00000000000E+00 -0.00000000000E+00 -0.19283240240E+02  0.19283240240E+02  0.00000000000E+00 0.  1.
         25    2    1    2    0    0 -0.16517363965E+03 -0.98580225919E+02  0.16362369535E+04  0.16522462468E+04  0.12508357098E+03 0.  0.
          5    1    3    3  502    0 -0.10987794399E+03 -0.10507034370E+03  0.81197325163E+03  0.82609380428E+03  0.41800000000E+01 0.  1.
         -5    1    3    3    0  502 -0.55295695656E+02  0.64901177856E+01  0.82426370187E+03  0.82615244247E+03  0.41800000000E+01 0.  1.
        -11    1    1    2    0    0  0.62597372027E+02 -0.89107713185E+01  0.23234734260E+03  0.24079684475E+03  0.00000000000E+00 0.  1.
         11    1    1    2    0    0  0.10257626762E+03  0.10749099724E+03  0.77536386281E+03  0.78947154788E+03  0.00000000000E+00 0. -1.
</event>
<event>
 7    1  0.2601031E-009  0.3100145E+03  0.7561462E-02  0.1080339E+00
          2   -1    0    0  501    0  0.00000000000E+00  0.00000000000E+00  0.14886485980E+04  0.14886485980E+04  0.00000000000E+00 0. -1.
         -2   -1    0    0    0  501 -0.00000000000E+00 -0.00000000000E+00 -0.76748424554E+02  0.76748424554E+02  0.00000000000E+00 0.  1.
         25    2    1    2    0    0  0.22949583364E+03 -0.19118181221E+03  0.98219455009E+03  0.10342017179E+04  0.12509291015E+03 0.  0.
          5    1    3    3  502    0  0.20585133822E+03 -0.20375566716E+03  0.94345023691E+03  0.98691791314E+03  0.41800000000E+01 0.  1.
         -5    1    3    3    0  502  0.23644495413E+02  0.12573854957E+02  0.38744313179E+02  0.47283804791E+02  0.41800000000E+01 0.  1.
        -11    1    1    2    0    0 -0.13973644039E+03  0.14835363365E+03  0.34433024787E+03  0.40012297233E+03  0.00000000000E+00 0.  1.
         11    1    1    2    0    0 -0.89759393241E+02  0.42828178562E+02  0.85375375500E+02  0.13107233230E+03  0.00000000000E+00 0. -1.
</event>
<event>
 7    1  0.3276254E-009  0.1516694E+03  0.7561462E-02  0.1198437E+00
         -1   -1    0    0    0  501 -0.00000000000E+00  0.00000000000E+00  0.33955081981E+02  0.33955081981E+02  0.00000000000E+00 0.  1.
          1   -1    0    0  501    0  0.00000000000E+00 -0.00000000000E+00 -0.91332439641E+03  0.91332439641E+03  0.00000000000E+00 0. -1.
         25    2    1    2    0    0 -0.12837190323E+03 -0.32179215476E+01 -0.32942396849E+03  0.37504319726E+03  0.12509016044E+03 0.  0.
          5    1    3    3  502    0  0.17638123444E+02  0.24119090073E+01 -0.46199137726E+01  0.18860983722E+02  0.41800000000E+01 0. -1.
         -5    1    3    3    0  502 -0.14601002667E+03 -0.56298305549E+01 -0.32480405472E+03  0.35618221354E+03  0.41800000000E+01 0. -1.
        -11    1    1    2    0    0  0.43237947377E+02 -0.24054138449E+02 -0.81547867273E+02  0.95384361017E+02  0.00000000000E+00 0.  1.
         11    1    1    2    0    0  0.85133955851E+02  0.27272059996E+02 -0.46839747866E+03  0.47685192011E+03  0.00000000000E+00 0. -1.
</event>
<event>
 7    1  0.2601031E-009  0.9757532E+02  0.7561462E-02  0.1285479E+00
          1   -1    0    0  501    0  0.00000000000E+00  0.00000000000E+00  0.87322467489E+03  0.87322467489E+03  0.00000000000E+00 0. -1.
         -1   -1    0    0    0  501 -0.00000000000E+00 -0.00000000000E+00 -0.18703236663E+02  0.18703236663E+02  0.00000000000E+00 0.  1.
         25    2    1    2    0    0  0.59363424010E+02  0.35696423440E+02  0.37700647971E+03  0.40321187405E+03  0.12509068261E+03 0.  0.
          5    1    3    3  502    0  0.70677494735E+02  0.24691967591E+02  0.37937459722E+03  0.38671379461E+03  0.41800000000E+01 0.  1.
         -5    1    3    3    0  502 -0.11314070725E+02  0.11004455849E+02 -0.23681175059E+01  0.16498079446E+02  0.41800000000E+01 0.  1.
        -11    1    1    2    0    0 -0.35159823620E+02  0.21860316973E+02  0.20512085900E+03  0.20925738566E+03  0.00000000000E+00 0. -1.
         11    1    1    2    0    0 -0.24203600391E+02 -0.57556740413E+02  0.27239409951E+03  0.27945865184E+03  0.00000000000E+00 0.  1.
</event>
<event>
 7    1  0.2601031E-009  0.1741821E+03  0.7561462E-02  0.1173555E+00
          2   -1    0    0  501    0  0.00000000000E+00  0.00000000000E+00  0.29382263618E+02  0.29382263618E+02  0.00000000000E+00 0.  1.
         -2   -1    0    0    0  501 -0.00000000000E+00 -0.00000000000E+00 -0.12880279031E+04  0.12880279031E+04  0.00000000000E+00 0. -1.
         25    2    1    2    0    0  0.15047038119E+03 -0.14752106495E+01 -0.85279447072E+03  0.87495794223E+03  0.12509787982E+03 0.  0.
          5    1    3    3  502    0  0.44743099600E+02 -0.49018603285E+02 -0.47853972621E+03  0.48313818975E+03  0.41800000000E+01 0. -1.
         -5    1    3    3    0  502  0.10572728159E+03  0.47543392636E+02 -0.37425474451E+03  0.39181975249E+03  0.41800000000E+01 0. -1.
        -11    1    1    2    0    0 -0.33361594579E+02  0.30510496166E+02 -0.18862664492E+03  0.19396880559E+03  0.00000000000E+00 0. -1.
         11    1    1    2    0    0 -0.11710878661E+03 -0.29035285517E+02 -0.21722452387E+03  0.24848341892E+03  0.00000000000E+00 0.  1.
</event>
<event>
 7    1  0.2601031E-009  0.1323799E+03  0.7561462E-02  0.1223967E+00
          1   -1    0    0  501    0  0.00000000000E+00  0.00000000000E+00  0.25768852404E+03  0.25768852404E+03  0.00000000000E+00 0. -1.
         -1   -1    0    0    0  501 -0.00000000000E+00 -0.00000000000E+00 -0.25646425515E+03  0.25646425515E+03  0.00000000000E+00 0.  1.
         25    2    1    2    0    0  0.11515534612E+02  0.11312857744E+03  0.20293820145E+03  0.26412340298E+03  0.12508627352E+03 0.  0.
          5    1    3    3  502    0  0.17261039248E+02  0.28761409653E+02 -0.97682615888E+01  0.35185984363E+02  0.41800000000E+01 0.  1.
         -5    1    3    3    0  502 -0.57455046357E+01  0.84367167789E+02  0.21270646303E+03  0.22893741861E+03  0.41800000000E+01 0.  1.
        -11    1    1    2    0    0  0.34436939119E+02 -0.14274223452E+02 -0.37111788954E+02  0.52601721553E+02  0.00000000000E+00 0. -1.
         11    1    1    2    0    0 -0.45952473731E+02 -0.98854353990E+02 -0.16460214361E+03  0.19742765466E+03  0.00000000000E+00 0.  1.
</event>
<event>
 7    1  0.2601031E-009  0.7421873E+02  0.7561462E-02  0.1346308E+00
          1   -1    0    0  501    0  0.00000000000E+00  0.00000000000E+00  0.75271120838E+03  0.75271120838E+03  0.00000000000E+00 0. -1.
         -1   -1    0    0    0  501 -0.00000000000E+00 -0.00000000000E+00 -0.17866218244E+02  0.17866218244E+02  0.00000000000E+00 0.  1.
         25    2    1    2    0    0  0.37978185423E-01  0.20785789384E+02  0.53751164901E+03  0.55226856541E+03  0.12509894098E+03 0.  0.
          5    1    3    3  502    0 -0.19638808638E+02 -0.65571955658E+01  0.50442117028E+03  0.50486321815E+03  0.41800000000E+01 0.  1.
         -5    1    3    3    0  502  0.19676786823E+02  0.27342984950E+02  0.33090478731E+02  0.47405347254E+02  0.41800000000E+01 0.  1.
        -11    1    1    2    0    0  0.34052692294E+02 -0.41342329415E+02  0.11247369784E+03  0.12457570694E+03  0.00000000000E+00 0.  1.
         11    1    1    2    0    0 -0.34090670480E+02  0.20556540031E+02  0.84859643280E+02  0.93733154270E+02  0.00000000000E+00 0. -1.
</event>
<event>
 7    1  0.2601031E-009  0.1345274E+03  0.7561462E-02  0.1220888E+00
         -1   -1    0    0    0  501 -0.00000000000E+00  0.00000000000E+00  0.73411036202E+02  0.73411036202E+02  0.00000000000E+00 0.  1.
          1   -1    0    0  501    0  0.00000000000E+00 -0.00000000000E+00 -0.32766672680E+03  0.32766672680E+03  0.00000000000E+00 0. -1.
         25    2    1    2    0    0 -0.63608260517E+01 -0.89444311704E+02 -0.22131733687E+03  0.26957142210E+03  0.12508654207E+03 0.  0.
          5    1    3    3  502    0  0.20441148043E+02  0.24275603734E+02 -0.23206652788E+02  0.39536901796E+02  0.41800000000E+01 0.  1.
         -5    1    3    3    0  502 -0.26801974095E+02 -0.11371991544E+03 -0.19811068408E+03  0.23003452030E+03  0.41800000000E+01 0.  1.
        -11    1    1    2    0    0 -0.25669670062E+02  0.83758112664E+02 -0.35644833781E+01  0.87675874332E+02  0.00000000000E+00 0.  1.
         11    1    1    2    0    0  0.32030496114E+02  0.56861990391E+01 -0.29373870354E+02  0.43830466578E+02  0.00000000000E+00 0. -1.
</event>
<event>
 7    1  0.2601031E-009  0.1117540E+03  0.7561462E-02  0.1257356E+00
         -1   -1    0    0    0  501 -0.00000000000E+00  0.00000000000E+00  0.28788927765E+03  0.28788927765E+03  0.00000000000E+00 0.  1.
          1   -1    0    0  501    0  0.00000000000E+00 -0.00000000000E+00 -0.60115632563E+02  0.60115632563E+02  0.00000000000E+00 0. -1.
         25    2    1    2    0    0 -0.37298509894E+02 -0.55787993611E+02  0.16902258485E+03  0.22072459415E+03  0.12508890120E+03 0.  0.
          5    1    3    3  502    0 -0.65259049765E+02 -0.56055403531E+02  0.17193543477E+03  0.19230241280E+03  0.41800000000E+01 0.  1.
         -5    1    3    3    0  502  0.27960539871E+02  0.26740991944E+00 -0.29128499178E+01  0.28422181348E+02  0.41800000000E+01 0.  1.
        -11    1    1    2    0    0  0.62248616133E+02  0.56611775605E+02  0.30302100622E+02  0.89431541693E+02  0.00000000000E+00 0. -1.
         11    1    1    2    0    0 -0.24950106238E+02 -0.82378199313E+00  0.28448959615E+02  0.37848774369E+02  0.00000000000E+00 0.  1.
</event>
<event>
 7    1  0.2601031E-009  0.1125462E+03  0.7561462E-02  0.1255926E+00
         -1   -1    0    0    0  501 -0.00000000000E+00  0.00000000000E+00  0.15631647104E+03  0.15631647104E+03  0.00000000000E+00 0.  1.
          1   -1    0    0  501    0  0.00000000000E+00 -0.00000000000E+00 -0.10069525390E+03  0.10069525390E+03  0.00000000000E+00 0. -1.
         25    2    1    2    0    0  0.62139258693E+02 -0.24144782496E+01  0.34953432924E+02  0.14399552711E+03  0.12508338090E+03 0.  0.
          5    1    3    3  502    0  0.26946579906E+01 -0.45688118508E+02  0.50967842936E+02  0.68628410793E+02  0.41800000000E+01 0.  1.
         -5    1    3    3    0  502  0.59444600702E+02  0.43273640259E+02 -0.16014410011E+02  0.75367116317E+02  0.41800000000E+01 0.  1.
        -11    1    1    2    0    0  0.21531909554E+01 -0.32334544576E+02  0.23257283864E+02  0.39888096683E+02  0.00000000000E+00 0.  1.
         11    1    1    2    0    0 -0.64292449648E+02  0.34749022826E+02 -0.25894996416E+01  0.73128101148E+02  0.00000000000E+00 0. -1.
</event>
<event>
 7    1  0.2808353E-009  0.9478371E+02  0.7561462E-02  0.1291664E+00
         -1   -1    0    0    0  501 -0.00000000000E+00  0.00000000000E+00  0.17484769396E+02  0.17484769396E+02  0.00000000000E+00 0.  1.
          1   -1    0    0  501    0  0.00000000000E+00 -0.00000000000E+00 -0.91861034153E+03  0.91861034153E+03  0.00000000000E+00 0. -1.
         25    2    1    2    0    0  0.24665899616E+02  0.60112155930E+02 -0.51859150925E+03  0.53740726833E+03  0.12509013029E+03 0.  0.
          5    1    3    3  502    0  0.39038100904E+02  0.55752307392E+02 -0.51728809777E+03  0.52176310870E+03  0.41800000000E+01 0. -1.
         -5    1    3    3    0  502 -0.14372201288E+02  0.43598485386E+01 -0.13034114760E+01  0.15644159633E+02  0.41800000000E+01 0. -1.
        -11    1    1    2    0    0  0.12393709888E+02 -0.66963579875E+02 -0.17546667030E+03  0.18821869583E+03  0.00000000000E+00 0.  1.
         11    1    1    2    0    0 -0.37059609503E+02  0.68514239449E+01 -0.20706739259E+03  0.21046914677E+03  0.00000000000E+00 0. -1.
</event>
<event>
 7    1  0.2601031E-009  0.9023629E+02  0.7561462E-02  0.1302280E+00
          1   -1    0    0  501    0  0.00000000000E+00  0.00000000000E+00  0.68125565874E+02  0.68125565874E+02  0.00000000000E+00 0. -1.
         -1   -1    0    0    0  501 -0.00000000000E+00 -0.00000000000E+00 -0.54278871338E+03  0.54278871338E+03  0.00000000000E+00 0.  1.
         25    2    1    2    0    0 -0.14304202756E+02  0.56280904756E+02 -0.48332240159E+03  0.50261338233E+03  0.12509003864E+03 0.  0.
          5    1    3    3  502    0 -0.61057299755E+02  0.32971299259E+02 -0.15162790934E+03  0.16680406385E+03  0.41800000000E+01 0.  1.
         -5    1    3    3    0  502  0.46753096999E+02  0.23309605498E+02 -0.33169449225E+03  0.33580931848E+03  0.41800000000E+01 0.  1.
        -11    1    1    2    0    0  0.83335474012E+01 -0.18406457585E+02  0.48783633314E+02  0.52802353854E+02  0.00000000000E+00 0. -1.
         11    1    1    2    0    0  0.59706553550E+01 -0.37874447171E+02 -0.40124379234E+02  0.55498543069E+02  0.00000000000E+00 0.  1.
</event>
<event>
 7    1  0.2601031E-009  0.5055303E+02  0.7561462E-02  0.1442381E+00
         -1   -1    0    0    0  501 -0.00000000000E+00  0.00000000000E+00  0.19673972688E+02  0.19673972688E+02  0.00000000000E+00 0.  1.
          1   -1    0    0  501    0  0.00000000000E+00 -0.00000000000E+00 -0.61965386727E+03  0.61965386727E+03  0.00000000000E+00 0. -1.
         25    2    1    2    0    0 -0.12064439399E+02 -0.16533999359E+02 -0.40923295888E+03  0.42841399286E+03  0.12509200939E+03 0.  0.
          5    1    3    3  502    0 -0.78060502768E+01  0.89541198543E+01 -0.40067567498E+03  0.40087352070E+03  0.41800000000E+01 0.  1.
         -5    1    3    3    0  502 -0.42583891222E+01 -0.25488119213E+02 -0.85572839040E+01  0.27540472159E+02  0.41800000000E+01 0.  1.
        -11    1    1    2    0    0  0.31099902130E+02  0.26491301716E+02 -0.18387544242E+03  0.18835915509E+03  0.00000000000E+00 0. -1.
         11    1    1    2    0    0 -0.19035462731E+02 -0.99573023572E+01 -0.68714932751E+01  0.22554692005E+02  0.00000000000E+00 0.  1.
</event>
<event>
 7    1  0.2601031E-009  0.1161940E+03  0.7561462E-02  0.1249511E+00
          3   -1    0    0  501    0  0.00000000000E+00  0.00000000000E+00  0.12778359858E+03  0.12778359858E+03  0.00000000000E+00 0. -1.
         -3   -1    0    0    0  501 -0.00000000000E+00 -0.00000000000E+00 -0.11496352610E+03  0.11496352610E+03  0.00000000000E+00 0.  1.
         25    2    1    2    0    0 -0.59532537446E+01 -0.49618415697E+02 -0.97866325195E+01  0.13506269229E+03  0.12509486108E+03 0.  0.
          5    1    3    3  502    0  0.52741415574E+02 -0.44169416974E+02  0.15731645750E+02  0.70693361715E+02  0.41800000000E+01 0.  1.
         -5    1    3    3    0  502 -0.58694669319E+02 -0.54489987234E+01 -0.25518278269E+02  0.64369330580E+02  0.41800000000E+01 0.  1.
        -11    1    1    2    0    0 -0.11700058203E+02  0.73638801123E+02  0.22469084282E+02  0.77874412622E+02  0.00000000000E+00 0. -1.
         11    1    1    2    0    0  0.17653311947E+02 -0.24020385425E+02  0.13762071676E+00  0.29810019761E+02  0.00000000000E+00 0.  1.
</event>
<event>
 7    1  0.2601031E-009  0.2244980E+03  0.7561462E-02  0.1130573E+00
         -2   -1    0    0    0  501 -0.00000000000E+00  0.00000000000E+00  0.97296970994E+02  0.97296970994E+02  0.00000000000E+00 0.  1.
          2   -1    0    0  501    0  0.00000000000E+00 -0.00000000000E+00 -0.62167127805E+03  0.62167127805E+03  0.00000000000E+00 0. -1.
         25    2    1    2    0    0 -0.20788206398E+03 -0.59962666627E+02 -0.20939868775E+03  0.32604599258E+03  0.12509078676E+03 0.  0.
          5    1    3    3  502    0 -0.10593657970E+03 -0.35881216025E+02 -0.18838459826E+03  0.21912610489E+03  0.41800000000E+01 0. -1.
         -5    1    3    3    0  502 -0.10194548428E+03 -0.24081450602E+02 -0.21014089495E+02  0.10691988770E+03  0.41800000000E+01 0. -1.
        -11    1    1    2    0    0  0.21178877231E+03  0.44665997131E+02 -0.27515001281E+03  0.35008151183E+03  0.00000000000E+00 0.  1.
         11    1    1    2    0    0 -0.39067083322E+01  0.15296669496E+02 -0.39825606489E+02  0.42840744623E+02  0.00000000000E+00 0. -1.
</event>
<event>
 7    1  0.2601031E-009  0.2383393E+03  0.7561462E-02  0.1120904E+00
          1   -1    0    0  501    0  0.00000000000E+00  0.00000000000E+00  0.85707715761E+02  0.85707715761E+02  0.00000000000E+00 0. -1.
         -1   -1    0    0    0  501 -0.00000000000E+00 -0.00000000000E+00 -0.81842994179E+03  0.81842994179E+03  0.00000000000E+00 0.  1.
         25    2    1    2    0    0  0.14208057320E+02 -0.22702828982E+03 -0.51506098134E+03  0.57678289733E+03  0.12508790064E+03 0.  0.
          5    1    3    3  502    0  0.28000733337E+02 -0.72703303845E+02 -0.67584342138E+02  0.10322270661E+03  0.41800000000E+01 0.  1.
         -5    1    3    3    0  502 -0.13792676017E+02 -0.15432498598E+03 -0.44747663920E+03  0.47356019072E+03  0.41800000000E+01 0.  1.
        -11    1    1    2    0    0  0.31589791305E+02  0.39274200046E+02 -0.34412357847E+02  0.61029403376E+02  0.00000000000E+00 0. -1.
         11    1    1    2    0    0 -0.45797848625E+02  0.18775408978E+03 -0.18324888684E+03  0.26632535684E+03  0.00000000000E+00 0.  1.
</event>
<event>
 7    1  0.2601031E-009  0.8049612E+02  0.7561462E-02  0.1327649E+00
         -3   -1    0    0    0  501 -0.00000000000E+00  0.00000000000E+00  0.42704899588E+02  0.42704899588E+02  0.00000000000E+00 0.  1.
          3   -1    0    0  501    0  0.00000000000E+00 -0.00000000000E+00 -0.28773645804E+03  0.28773645804E+03  0.00000000000E+00 0. -1.
         25    2    1    2    0    0 -0.17329623138E+02  0.24065876646E+02 -0.11280113082E+03  0.17102891477E+03  0.12508921743E+03 0.  0.
          5    1    3    3  502    0 -0.88713628302E+01  0.49618042493E+02  0.43389618548E+01  0.50763670171E+02  0.41800000000E+01 0.  1.
         -5    1    3    3    0  502 -0.84582603080E+01 -0.25552165847E+02 -0.11714009267E+03  0.12026524460E+03  0.41800000000E+01 0.  1.
        -11    1    1    2    0    0  0.47009727279E+02 -0.36480540174E+01 -0.45617314895E+02  0.65606113856E+02  0.00000000000E+00 0. -1.
         11    1    1    2    0    0 -0.29680104141E+02 -0.20417822629E+02 -0.86613112737E+02  0.93806329002E+02  0.00000000000E+00 0.  1.
</event>
<event>
 7    1  0.2601031E-009  0.1143242E+03  0.7561462E-02  0.1252765E+00
          2   -1    0    0  501    0  0.00000000000E+00  0.00000000000E+00  0.10849933295E+04  0.10849933295E+04  0.00000000000E+00 0. -1.
         -2   -1    0    0    0  501 -0.00000000000E+00 -0.00000000000E+00 -0.14955322355E+02  0.14955322355E+02  0.00000000000E+00 0.  1.
         25    2    1    2    0    0 -0.37636808723E+02 -0.60346247164E+02  0.72469873185E+03  0.73884648547E+03  0.12509068001E+03 0.  0.
          5    1    3    3  502    0  0.20657485040E+02  0.19004683736E+02  0.35840719257E+03  0.35952899435E+03  0.41800000000E+01 0.  1.
         -5    1    3    3    0  502 -0.58294293763E+02 -0.79350930899E+02  0.36629153928E+03  0.37931749112E+03  0.41800000000E+01 0.  1.
        -11    1    1    2    0    0 -0.97258812164E+01  0.52884479782E+02  0.22984170712E+03  0.23604781570E+03  0.00000000000E+00 0. -1.
         11    1    1    2    0    0  0.47362689939E+02  0.74617673817E+01  0.11549756820E+03  0.12505435070E+03  0.00000000000E+00 0.  1.
</event>
<event>
 7    1  0.2601031E-009  0.1065007E+03  0.7561462E-02  0.1267191E+00
          2   -1    0    0  501    0  0.00000000000E+00  0.00000000000E+00  0.17858721060E+03  0.17858721060E+03  0.00000000000E+00 0. -1.
         -2   -1    0    0    0  501 -0.00000000000E+00 -0.00000000000E+00 -0.78484987170E+02  0.78484987170E+02  0.00000000000E+00 0.  1.
         25    2    1    2    0    0 -0.37929039481E+02 -0.33984029140E+02  0.33879176073E+02  0.13923951998E+03  0.12508524726E+03 0.  0.
          5    1    3    3  502    0 -0.74915270232E+02  0.73250639387E+01  0.36109059972E+02  0.83590016675E+02  0.41800000000E+01 0. -1.
         -5    1    3    3    0  502  0.36986230751E+02 -0.41309093079E+02 -0.22298838993E+01  0.55649503308E+02  0.41800000000E+01 0. -1.
        -11    1    1    2    0    0  0.55757042036E+02  0.31408744837E+02  0.74326772946E+02  0.98080712504E+02  0.00000000000E+00 0. -1.
         11    1    1    2    0    0 -0.17828002555E+02  0.25752843037E+01 -0.81037255853E+01  0.19751965287E+02  0.00000000000E+00 0.  1.
</event>
<event>
 7    1  0.2601031E-009  0.9822346E+02  0.7561462E-02  0.1284077E+00
         -1   -1    0    0    0  501 -0.00000000000E+00  0.00000000000E+00  0.61114265213E+02  0.61114265213E+02  0.00000000000E+00 0.  1.
          1   -1    0    0  501    0  0.00000000000E+00 -0.00000000000E+00 -0.50984117983E+03  0.50984117983E+03  0.00000000000E+00 0. -1.
         25    2    1    2    0    0 -0.51769156027E+02  0.56360369952E+02 -0.42504502996E+03  0.44963138939E+03  0.12509425250E+03 0.  0.
          5    1    3    3  502    0  0.65119058282E+01 -0.67559247238E+01  0.47480537048E+01  0.11316529962E+02  0.41800000000E+01 0. -1.
         -5    1    3    3    0  502 -0.58281061856E+02  0.63116294676E+02 -0.42979308367E+03  0.43831485943E+03  0.41800000000E+01 0. -1.
        -11    1    1    2    0    0  0.96013163637E+01 -0.57187711278E+02 -0.45621380790E+02  0.73782992501E+02  0.00000000000E+00 0. -1.
         11    1    1    2    0    0  0.42167839664E+02  0.82734132602E+00  0.21939496133E+02  0.47541063158E+02  0.00000000000E+00 0.  1.
</event>
<event>
 7    1  0.2601031E-009  0.1237466E+03  0.7561462E-02  0.1237041E+00
          2   -1    0    0  501    0  0.00000000000E+00  0.00000000000E+00  0.37674058277E+03  0.37674058277E+03  0.00000000000E+00 0.  1.
         -2   -1    0    0    0  501 -0.00000000000E+00 -0.00000000000E+00 -0.64756965350E+02  0.64756965350E+02  0.00000000000E+00 0. -1.
         25    2    1    2    0    0 -0.67706025642E+02 -0.55971279485E+02  0.69871650320E+02  0.16806867072E+03  0.12509252785E+03 0.  0.
          5    1    3    3  502    0 -0.10055512585E+03 -0.58984817508E+02  0.67403053822E+02  0.13472633780E+03  0.41800000000E+01 0. -1.
         -5    1    3    3    0  502  0.32849100212E+02  0.30135380236E+01  0.24685964981E+01  0.33342332924E+02  0.41800000000E+01 0. -1.
        -11    1    1    2    0    0 -0.13590757281E+01  0.19383654759E+02  0.44363215967E+00  0.19436305414E+02  0.00000000000E+00 0. -1.
         11    1    1    2    0    0  0.69065101370E+02  0.36587624726E+02  0.24166833494E+03  0.25399257198E+03  0.00000000000E+00 0.  1.
</event>
<event>
 7    1  0.2952276E-009  0.1288627E+03  0.7561462E-02  0.1229153E+00
         -2   -1    0    0    0  501 -0.00000000000E+00  0.00000000000E+00  0.30454605101E+02  0.30454605101E+02  0.00000000000E+00 0.  1.
          2   -1    0    0  501    0  0.00000000000E+00 -0.00000000000E+00 -0.60825380486E+03  0.60825380486E+03  0.00000000000E+00 0. -1.
         25    2    1    2    0    0 -0.29458300832E+02 -0.73995821103E+02 -0.26954180708E+03  0.30764015218E+03  0.12508598820E+03 0.  0.
          5    1    3    3  502    0 -0.68184300351E+02 -0.11476894459E+02 -0.89962680256E+02  0.11354106816E+03  0.41800000000E+01 0.  1.
         -5    1    3    3    0  502  0.38725999519E+02 -0.62518926644E+02 -0.17957912682E+03  0.19409908402E+03  0.41800000000E+01 0.  1.
        -11    1    1    2    0    0 -0.58987090299E+01  0.78882439021E+02 -0.15884055199E+03  0.17744732996E+03  0.00000000000E+00 0.  1.
         11    1    1    2    0    0  0.35357009862E+02 -0.48866179181E+01 -0.14941684070E+03  0.15362092782E+03  0.00000000000E+00 0. -1.
</event>
<event>
 7    1  0.2601031E-009  0.9509393E+02  0.7561462E-02  0.1290965E+00
         -1   -1    0    0    0  501 -0.00000000000E+00  0.00000000000E+00  0.14475321072E+03  0.14475321072E+03  0.00000000000E+00 0.  1.
          1   -1    0    0  501    0  0.00000000000E+00 -0.00000000000E+00 -0.11369502159E+03  0.11369502159E+03  0.00000000000E+00 0. -1.
         25    2    1    2    0    0 -0.41194057573E+02  0.20649798407E+02 -0.60374457459E+01  0.13343996899E+03  0.12508561077E+03 0.  0.
          5    1    3    3  502    0 -0.96392677449E+01 -0.18293793415E+02  0.52311420936E+02  0.56405101901E+02  0.41800000000E+01 0. -1.
         -5    1    3    3    0  502 -0.31554789828E+02  0.38943591822E+02 -0.58348866682E+02  0.77034867094E+02  0.41800000000E+01 0. -1.
        -11    1    1    2    0    0  0.20510732815E+02 -0.65912555326E+02  0.15438967110E+02  0.70735541389E+02  0.00000000000E+00 0. -1.
         11    1    1    2    0    0  0.20683324758E+02  0.45262756919E+02  0.21656667759E+02  0.54272721927E+02  0.00000000000E+00 0.  1.
</event>
<event>
 7    1  0.2601031E-009  0.1206585E+03  0.7561462E-02  0.1242015E+00
         -1   -1    0    0    0  501 -0.00000000000E+00  0.00000000000E+00  0.92850533772E+03  0.92850533772E+03  0.00000000000E+00 0.  1.
          1   -1    0    0  501    0  0.00000000000E+00 -0.00000000000E+00 -0.18819377124E+02  0.18819377124E+02  0.00000000000E+00 0. -1.
         25    2    1    2    0    0 -0.46483357686E+01  0.61760121164E+02  0.64488833610E+03  0.65982112105E+03  0.12508807360E+03 0.  0.
          5    1    3    3  502    0 -0.17213788686E+02  0.95374779663E+02  0.54575976721E+03  0.55431386327E+03  0.41800000000E+01 0.  1.
         -5    1    3    3    0  502  0.12565452917E+02 -0.33614658499E+02  0.99128568892E+02  0.10550725778E+03  0.41800000000E+01 0.  1.
        -11    1    1    2    0    0  0.34643422590E+02  0.49912496581E+01  0.12370817495E+03  0.12856434907E+03  0.00000000000E+00 0.  1.
         11    1    1    2    0    0 -0.29995086822E+02 -0.66751370822E+02  0.14108944955E+03  0.15893924473E+03  0.00000000000E+00 0. -1.
</event>
<event>
 7    1  0.2601031E-009  0.1739246E+03  0.7561462E-02  0.1173816E+00
          2   -1    0    0  501    0  0.00000000000E+00  0.00000000000E+00  0.11050799359E+03  0.11050799359E+03  0.00000000000E+00 0. -1.
         -2   -1    0    0    0  501 -0.00000000000E+00 -0.00000000000E+00 -0.29581804563E+03  0.29581804563E+03  0.00000000000E+00 0.  1.
         25    2    1    2    0    0  0.13743976508E+03 -0.40776965346E+02 -0.11131298110E+03  0.22043004542E+03  0.12508547172E+03 0.  0.
          5    1    3    3  502    0  0.15657641685E+03 -0.31671040449E+02 -0.71359508539E+02  0.17501108815E+03  0.41800000000E+01 0. -1.
         -5    1    3    3    0  502 -0.19136651774E+02 -0.91059248968E+01 -0.39953472562E+02  0.45418957266E+02  0.41800000000E+01 0. -1.
        -11    1    1    2    0    0 -0.29384034105E+02 -0.26156599141E+02 -0.10695110276E+01  0.39353945072E+02  0.00000000000E+00 0. -1.
         11    1    1    2    0    0 -0.10805573098E+03  0.66933564487E+02 -0.72927559904E+02  0.14654204873E+03  0.00000000000E+00 0.  1.
</event>
<event>
 7    1  0.2601031E-009  0.1445836E+03  0.7561462E-02  0.1207291E+00
          1   -1    0    0  501    0  0.00000000000E+00  0.00000000000E+00  0.39151482309E+03  0.39151482309E+03  0.00000000000E+00 0. -1.
         -1   -1    0    0    0  501 -0.00000000000E+00 -0.00000000000E+00 -0.61462012505E+02  0.61462012505E+02  0.00000000000E+00 0.  1.
         25    2    1    2    0    0 -0.24918200980E+02  0.93480144906E+02  0.23164798043E+03  0.28047411730E+03  0.12508193077E+03 0.  0.
          5    1    3    3  502    0  0.38420131770E+00  0.11655288813E+03  0.20858853743E+03  0.23897986043E+03  0.41800000000E+01 0.  1.
         -5    1    3    3    0  502 -0.25302402298E+02 -0.23072743222E+02  0.23059443000E+02  0.41494256871E+02  0.41800000000E+01 0.  1.
        -11    1    1    2    0    0 -0.35154199208E+02 -0.12709476551E+02  0.45170946011E+02  0.58632438800E+02  0.00000000000E+00 0.  1.
         11    1    1    2    0    0  0.60072400188E+02 -0.80770668355E+02  0.53233884136E+02  0.11387027949E+03  0.00000000000E+00 0. -1.
</event>
<event>
 7    1  0.2601031E-009  0.1901244E+03  0.7561462E-02  0.1158349E+00
          2   -1    0    0  501    0  0.00000000000E+00  0.00000000000E+00  0.33745690119E+03  0.33745690119E+03  0.00000000000E+00 0. -1.
         -2   -1    0    0    0  501 -0.00000000000E+00 -0.00000000000E+00 -0.18758776935E+03  0.18758776935E+03  0.00000000000E+00 0.  1.
         25    2    1    2    0    0 -0.27573477493E+02 -0.17047315671E+03 -0.76373645253E+02  0.22649823728E+03  0.12508846462E+03 0.  0.
          5    1    3    3  502    0 -0.33512577806E+02 -0.18332204322E+03 -0.89469645946E+02  0.20676642461E+03  0.41800000000E+01 0.  1.
         -5    1    3    3    0  502  0.59391003131E+01  0.12848886508E+02  0.13096000693E+02  0.19731812668E+02  0.41800000000E+01 0.  1.
        -11    1    1    2    0    0  0.24515230233E+02  0.30751776660E+02  0.91809227111E+01  0.40385116354E+02  0.00000000000E+00 0. -1.
         11    1    1    2    0    0  0.30582472593E+01  0.13972138005E+03  0.21706185438E+03  0.25816131691E+03  0.00000000000E+00 0.  1.
</event>
<event>
 7    1  0.2601031E-009  0.1058467E+03  0.7561462E-02  0.1268460E+00
          2   -1    0    0  501    0  0.00000000000E+00  0.00000000000E+00  0.25347099640E+02  0.25347099640E+02  0.00000000000E+00 0. -1.
         -2   -1    0    0    0  501 -0.00000000000E+00 -0.00000000000E+00 -0.47730843552E+03  0.47730843552E+03  0.00000000000E+00 0.  1.
         25    2    1    2    0    0  0.19837760390E+02  0.89870668956E+01 -0.26146613487E+03  0.29066616231E+03  0.12509186272E+03 0.  0.
          5    1    3    3  502    0 -0.48967230281E+01 -0.53776856869E+02 -0.76456836740E+02  0.93696576861E+02  0.41800000000E+01 0. -1.
         -5    1    3    3    0  502  0.24734483418E+02  0.62763923765E+02 -0.18500929813E+03  0.19696958545E+03  0.41800000000E+01 0. -1.
        -11    1    1    2    0    0 -0.39538052783E+02  0.27716290031E+02 -0.12875024673E+03  0.13750664124E+03  0.00000000000E+00 0. -1.
         11    1    1    2    0    0  0.19700292393E+02 -0.36703356927E+02 -0.61744954274E+02  0.74482731612E+02  0.00000000000E+00 0.  1.
</event>
<event>
 7    1  0.2601031E-009  0.2352322E+03  0.7561462E-02  0.1123010E+00
          3   -1    0    0  501    0  0.00000000000E+00  0.00000000000E+00  0.92834884048E+02  0.92834884048E+02  0.00000000000E+00 0. -1.
         -3   -1    0    0    0  501 -0.00000000000E+00 -0.00000000000E+00 -0.66209303385E+03  0.66209303385E+03  0.00000000000E+00 0.  1.
         25    2    1    2    0    0 -0.51507045762E+02  0.21637678493E+03 -0.30657942782E+03  0.39888550914E+03  0.12508722963E+03 0.  0.
          5    1    3    3  502    0 -0.72617940956E+02  0.18362563608E+03 -0.18305027991E+03  0.26928909550E+03  0.41800000000E+01 0.  1.
         -5    1    3    3    0  502  0.21110895194E+02  0.32751148848E+02 -0.12352914790E+03  0.12959641364E+03  0.41800000000E+01 0.  1.
        -11    1    1    2    0    0  0.62668257695E+02 -0.10836465314E+03 -0.98894092763E+02  0.15953134537E+03  0.00000000000E+00 0. -1.
         11    1    1    2    0    0 -0.11161211932E+02 -0.10801213179E+03 -0.16378462922E+03  0.19651106339E+03  0.00000000000E+00 0.  1.
</event>
<event>
 7    1  0.2601031E-009  0.9105995E+02  0.7561462E-02  0.1300305E+00
          4   -1    0    0  501    0  0.00000000000E+00  0.00000000000E+00  0.27808647128E+03  0.27808647128E+03  0.00000000000E+00 0. -1.
         -4   -1    0    0    0  501 -0.00000000000E+00 -0.00000000000E+00 -0.54697419530E+02  0.54697419530E+02  0.00000000000E+00 0.  1.
         25    2    1    2    0    0 -0.54480336459E+02 -0.14708880280E+02  0.13573830323E+03  0.19301578329E+03  0.12508296213E+03 0.  0.
          5    1    3    3  502    0  0.23837698864E+02  0.26719639596E+02  0.70704589086E+01  0.36737430727E+02  0.41800000000E+01 0.  1.
         -5    1    3    3    0  502 -0.78318035323E+02 -0.41428519876E+02  0.12866784433E+03  0.15627835256E+03  0.41800000000E+01 0.  1.
        -11    1    1    2    0    0  0.13020931406E+02  0.82402359697E+01 -0.19407104859E+02  0.24780675183E+02  0.00000000000E+00 0.  1.
         11    1    1    2    0    0  0.41459405053E+02  0.64686443103E+01  0.10705785337E+03  0.11498743234E+03  0.00000000000E+00 0. -1.
</event>
<event>
 7    1  0.3185397E-009  0.9705019E+02  0.7561462E-02  0.1286624E+00
          2   -1    0    0  501    0  0.00000000000E+00  0.00000000000E+00  0.38474687908E+03  0.38474687908E+03  0.00000000000E+00 0. -1.
         -2   -1    0    0    0  501 -0.00000000000E+00 -0.00000000000E+00 -0.46797468062E+02  0.46797468062E+02  0.00000000000E+00 0.  1.
         25    2    1    2    0    0  0.38791574176E+02  0.38703472202E+02  0.27390226547E+03  0.30605954476E+03  0.12508896403E+03 0.  0.
          5    1    3    3  502    0  0.65964380792E+02  0.51134599286E+02  0.25950439071E+03  0.27262803960E+03  0.41800000000E+01 0.  1.
         -5    1    3    3    0  502 -0.27172806616E+02 -0.12431127083E+02  0.14397874759E+02  0.33431505164E+02  0.41800000000E+01 0.  1.
        -11    1    1    2    0    0  0.60438077378E+01 -0.34838640757E+02 -0.11813772353E+02  0.37280339577E+02  0.00000000000E+00 0.  1.
         11    1    1    2    0    0 -0.44835381914E+02 -0.38648314451E+01  0.75860917902E+02  0.88204462803E+02  0.00000000000E+00 0. -1.
</event>
<event>
 7    1  0.2601031E-009  0.1473702E+03  0.7561462E-02  0.1203742E+00
         -2   -1    0    0    0  501 -0.00000000000E+00  0.00000000000E+00  0.13931130917E+03  0.13931130917E+03  0.00000000000E+00 0.  1.
          2   -1    0    0  501    0  0.00000000000E+00 -0.00000000000E+00 -0.20435589846E+03  0.20435589846E+03  0.00000000000E+00 0. -1.
         25    2    1    2    0    0 -0.58584338350E+02  0.10221251072E+03 -0.87573306077E+02  0.19286303320E+03  0.12509014186E+03 0.  0.
          5    1    3    3  502    0  0.38466824114E+02  0.26688739835E+02 -0.37039244050E+02  0.59844493407E+02  0.41800000000E+01 0.  1.
         -5    1    3    3    0  502 -0.97051162464E+02  0.75523770883E+02 -0.50534062028E+02  0.13301853979E+03  0.41800000000E+01 0.  1.
        -11    1    1    2    0    0  0.35591030595E+02 -0.23406729989E+02  0.48643310417E+02  0.64658859531E+02  0.00000000000E+00 0.  1.
         11    1    1    2    0    0  0.22993307755E+02 -0.78805780729E+02 -0.26114593633E+02  0.86145314895E+02  0.00000000000E+00 0. -1.
</event>
<event>
 7    1  0.2601031E-009  0.3369749E+03  0.7561462E-02  0.1068092E+00
          2   -1    0    0  501    0  0.00000000000E+00  0.00000000000E+00  0.51505583656E+03  0.51505583656E+03  0.00000000000E+00 0. -1.
         -2   -1    0    0    0  501 -0.00000000000E+00 -0.00000000000E+00 -0.24155514304E+03  0.24155514304E+03  0.00000000000E+00 0.  1.
         25    2    1    2    0    0  0.25971615994E+03  0.18848179670E+03  0.24417697520E+03  0.42219539791E+03  0.12509471364E+03 0.  0.
          5    1    3    3  502    0  0.84143948374E+02  0.13220614327E+03  0.14115622730E+03  0.21095312577E+03  0.41800000000E+01 0. -1.
         -5    1    3    3    0  502  0.17557221156E+03  0.56275653431E+02  0.10302074790E+03  0.21124227215E+03  0.41800000000E+01 0. -1.
        -11    1    1    2    0    0 -0.17222105043E+03 -0.71003920098E+02  0.24164793411E+02  0.18784457437E+03  0.00000000000E+00 0.  1.
         11    1    1    2    0    0 -0.87495109514E+02 -0.11747787660E+03  0.51589249152E+01  0.14657100732E+03  0.00000000000E+00 0. -1.
</event>
<event>
 7    1  0.2882726E-009  0.1163679E+03  0.7561462E-02  0.1249212E+00
         -2   -1    0    0    0  501 -0.00000000000E+00  0.00000000000E+00  0.33034781070E+02  0.33034781070E+02  0.00000000000E+00 0.  1.
          2   -1    0    0  501    0  0.00000000000E+00 -0.00000000000E+00 -0.73739732231E+03  0.73739732231E+03  0.00000000000E+00 0. -1.
         25    2    1    2    0    0 -0.53746194826E+02 -0.74343139581E+02 -0.22079121182E+03  0.26982944046E+03  0.12507442529E+03 0.  0.
          5    1    3    3  502    0  0.75491423104E+01 -0.17805395060E+02  0.11571514206E+02  0.22921474296E+02  0.41800000000E+01 0. -1.
         -5    1    3    3    0  502 -0.61295337136E+02 -0.56537744521E+02 -0.23236272603E+03  0.24690796617E+03  0.41800000000E+01 0. -1.
        -11    1    1    2    0    0 -0.10516318283E+02  0.63403119387E+02 -0.24332500198E+03  0.25166963481E+03  0.00000000000E+00 0.  1.
         11    1    1    2    0    0  0.64262513109E+02  0.10940020194E+02 -0.24024632744E+03  0.24893302811E+03  0.00000000000E+00 0. -1.
</event>
<event>
 7    1  0.2601031E-009  0.1482452E+03  0.7561462E-02  0.1202646E+00
         -1   -1    0    0    0  501 -0.00000000000E+00  0.00000000000E+00  0.61558355957E+02  0.61558355957E+02  0.00000000000E+00 0.  1.
          1   -1    0    0  501    0  0.00000000000E+00 -0.00000000000E+00 -0.50752653934E+03  0.50752653934E+03  0.00000000000E+00 0. -1.
         25    2    1    2    0    0  0.23486470866E+02  0.11525886898E+03 -0.11677916040E+03  0.20765355387E+03  0.12508559045E+03 0.  0.
          5    1    3    3  502    0 -0.29786218988E+02  0.93982477685E+01 -0.75967738185E+02  0.82244243249E+02  0.41800000000E+01 0.  1.
         -5    1    3    3    0  502  0.53272689854E+02  0.10586062121E+03 -0.40811422215E+02  0.12540931062E+03  0.41800000000E+01 0.  1.
        -11    1    1    2    0    0 -0.49283232919E+02 -0.30873994466E+02 -0.97749669860E+02  0.11374110312E+03  0.00000000000E+00 0.  1.
         11    1    1    2    0    0  0.25796762053E+02 -0.84384874512E+02 -0.23143935313E+03  0.24769023831E+03  0.00000000000E+00 0. -1.
</event>
<event>
 7    1  0.2601031E-009  0.9633583E+02  0.7561462E-02  0.1288195E+00
         -4   -1    0    0    0  501 -0.00000000000E+00  0.00000000000E+00  0.12031771242E+03  0.12031771242E+03  0.00000000000E+00 0.  1.
          4   -1    0    0  501    0  0.00000000000E+00 -0.00000000000E+00 -0.11883189706E+03  0.11883189706E+03  0.00000000000E+00 0. -1.
         25    2    1    2    0    0  0.19466381434E+02 -0.45561979220E+02 -0.11500364200E+02  0.13503453433E+03  0.12508890090E+03 0.  0.
          5    1    3    3  502    0 -0.17456598806E+02 -0.60601332099E+02 -0.49130126682E+02  0.80053082651E+02  0.41800000000E+01 0.  1.
         -5    1    3    3    0  502  0.36922980240E+02  0.15039352879E+02  0.37629762482E+02  0.54981451684E+02  0.41800000000E+01 0.  1.
        -11    1    1    2    0    0 -0.40401542329E+02  0.53456605468E+02  0.32458227676E+02  0.74454213008E+02  0.00000000000E+00 0.  1.
         11    1    1    2    0    0  0.20935160895E+02 -0.78946262476E+01 -0.19472048112E+02  0.29660862142E+02  0.00000000000E+00 0. -1.
</event>
<event>
 7    1  0.2601031E-009  0.2104090E+03  0.7561462E-02  0.1141242E+00
         -2   -1    0    0    0  501 -0.00000000000E+00  0.00000000000E+00  0.29601039005E+02  0.29601039005E+02  0.00000000000E+00 0. -1.
          2   -1    0    0  501    0  0.00000000000E+00 -0.00000000000E+00 -0.18253260084E+04  0.18253260084E+04  0.00000000000E+00 0.  1.
         25    2    1    2    0    0 -0.15202644328E+03  0.12168286659E+03 -0.11906479074E+04  0.12129334074E+04  0.12508497938E+03 0.  0.
          5    1    3    3  502    0 -0.21863724000E+02 -0.17139826498E+02 -0.34432846712E+03  0.34547266426E+03  0.41800000000E+01 0. -1.
         -5    1    3    3    0  502 -0.13016271928E+03  0.13882269309E+03 -0.84631944026E+03  0.86746074318E+03  0.41800000000E+01 0. -1.
        -11    1    1    2    0    0  0.46064775473E+02 -0.71693317241E+02 -0.36550095210E+03  0.37530366540E+03  0.00000000000E+00 0.  1.
         11    1    1    2    0    0  0.10596166781E+03 -0.49989549354E+02 -0.23957610990E+03  0.26668997455E+03  0.00000000000E+00 0. -1.
</event>
<event>
 7    1  0.2857633E-009  0.1609876E+03  0.7561462E-02  0.1187586E+00
          1   -1    0    0  501    0  0.00000000000E+00  0.00000000000E+00  0.28794333983E+03  0.28794333983E+03  0.00000000000E+00 0. -1.
         -1   -1    0    0    0  501 -0.00000000000E+00 -0.00000000000E+00 -0.12584408958E+03  0.12584408958E+03  0.00000000000E+00 0.  1.
         25    2    1    2    0    0  0.97282717691E+02  0.67379381553E+02  0.19522792473E+03  0.26031666938E+03  0.12508763944E+03 0.  0.
          5    1    3    3  502    0 -0.87625575603E+01 -0.27876759222E+02  0.36290254472E+02  0.46779814978E+02  0.41800000000E+01 0.  1.
         -5    1    3    3    0  502  0.10604527525E+03  0.95256140775E+02  0.15893767026E+03  0.21353685440E+03  0.41800000000E+01 0.  1.
        -11    1    1    2    0    0 -0.56016485185E+02  0.14758179121E+02 -0.12300242551E+02  0.59219476782E+02  0.00000000000E+00 0.  1.
         11    1    1    2    0    0 -0.41266232506E+02 -0.82137560674E+02 -0.20828431932E+02  0.94251283257E+02  0.00000000000E+00 0. -1.
</event>
<event>
 7    1  0.2601031E-009  0.9397664E+02  0.7561462E-02  0.1293498E+00
          2   -1    0    0  501    0  0.00000000000E+00  0.00000000000E+00  0.32677111361E+03  0.32677111361E+03  0.00000000000E+00 0. -1.
         -2   -1    0    0    0  501 -0.00000000000E+00 -0.00000000000E+00 -0.88629157821E+02  0.88629157821E+02  0.00000000000E+00 0.  1.
         25    2    1    2    0    0 -0.65703593857E+02  0.92883950596E+01  0.25843771147E+03  0.29468764735E+03  0.12509005661E+03 0.  0.
          5    1    3    3  502    0 -0.16311107208E+02 -0.44799688934E+02  0.34391015919E+02  0.58934529122E+02  0.41800000000E+01 0.  1.
         -5    1    3    3    0  502 -0.49392486650E+02  0.54088083993E+02  0.22404669555E+03  0.23575311823E+03  0.41800000000E+01 0.  1.
        -11    1    1    2    0    0  0.38521693564E+02 -0.19435147256E+01  0.39135995580E+02  0.54948378271E+02  0.00000000000E+00 0. -1.
         11    1    1    2    0    0  0.27181900293E+02 -0.73448803340E+01 -0.59431751254E+02  0.65764245816E+02  0.00000000000E+00 0.  1.
</event>
<event>
 7    1  0.2601031E-009  0.1106365E+03  0.7561462E-02  0.1259396E+00
         -1   -1    0    0    0  501 -0.00000000000E+00  0.00000000000E+00  0.10649985320E+04  0.10649985320E+04  0.00000000000E+00 0.  1.
          1   -1    0    0  501    0  0.00000000000E+00 -0.00000000000E+00 -0.13923535683E+02  0.13923535683E+02  0.00000000000E+00 0. -1.
         25    2    1    2    0    0  0.23492386883E+01  0.38924896870E+02  0.77113844758E+03  0.78219038754E+03  0.12508649206E+03 0.  0.
          5    1    3    3  502    0 -0.21167835307E+02  0.80331152931E+02  0.47988692861E+03  0.48704220355E+03  0.41800000000E+01 0. -1.
         -5    1    3    3    0  502  0.23517073995E+02 -0.41406256061E+02  0.29125151897E+03  0.29514818399E+03  0.41800000000E+01 0. -1.
        -11    1    1    2    0    0 -0.14420781263E+02  0.23030254426E+02  0.14799850103E+03  0.15047228269E+03  0.00000000000E+00 0.  1.
         11    1    1    2    0    0  0.12071542575E+02 -0.61955151296E+02  0.13193804771E+03  0.14625939746E+03  0.00000000000E+00 0. -1.
</event>
<event>
 7    1  0.2601031E-009  0.1043441E+03  0.7561462E-02  0.1271417E+00
         -1   -1    0    0    0  501 -0.00000000000E+00  0.00000000000E+00  0.17775457318E+03  0.17775457318E+03  0.00000000000E+00 0.  1.
          1   -1    0    0  501    0  0.00000000000E+00 -0.00000000000E+00 -0.10328356013E+03  0.10328356013E+03  0.00000000000E+00 0. -1.
         25    2    1    2    0    0  0.15737621177E+02 -0.63044525890E+02 -0.77633679672E+01  0.14117548795E+03  0.12509182048E+03 0.  0.
          5    1    3    3  502    0  0.42337195923E+02  0.19951772216E+02 -0.23460068864E+02  0.52520078107E+02  0.41800000000E+01 0.  1.
         -5    1    3    3    0  502 -0.26599574746E+02 -0.82996298106E+02  0.15696700897E+02  0.88655409846E+02  0.41800000000E+01 0.  1.
        -11    1    1    2    0    0  0.81139651632E+01  0.41554782673E+02 -0.88772611678E+01  0.43260168279E+02  0.00000000000E+00 0. -1.
         11    1    1    2    0    0 -0.23851586340E+02  0.21489743217E+02  0.91111642185E+02  0.96602477070E+02  0.00000000000E+00 0.  1.
</event>
<event>
 7    1  0.2601031E-009  0.1365870E+03  0.7561462E-02  0.1217997E+00
         -2   -1    0    0    0  501 -0.00000000000E+00  0.00000000000E+00  0.10830534563E+03  0.10830534563E+03  0.00000000000E+00 0.  1.
          2   -1    0    0  501    0  0.00000000000E+00 -0.00000000000E+00 -0.34326660819E+03  0.34326660819E+03  0.00000000000E+00 0. -1.
         25    2    1    2    0    0 -0.10975498182E+03  0.17631480463E+02  0.10579560830E+02  0.16767884426E+03  0.12508893863E+03 0.  0.
          5    1    3    3  502    0  0.34664081300E+01 -0.20097350835E+02  0.39643781585E+02  0.44777464357E+02  0.41800000000E+01 0. -1.
         -5    1    3    3    0  502 -0.11322138995E+03  0.37728831298E+02 -0.29064220754E+02  0.12290137990E+03  0.41800000000E+01 0. -1.
        -11    1    1    2    0    0  0.12039824845E+03 -0.12266437055E+02 -0.17759452874E+03  0.21490933052E+03  0.00000000000E+00 0. -1.
         11    1    1    2    0    0 -0.10643266626E+02 -0.53650434083E+01 -0.67946294642E+02  0.68983779041E+02  0.00000000000E+00 0.  1.
</event>
<event>
 7    1  0.2601031E-009  0.1145112E+03  0.7561462E-02  0.1252437E+00
         -2   -1    0    0    0  501 -0.00000000000E+00  0.00000000000E+00  0.18275210087E+03  0.18275210087E+03  0.00000000000E+00 0.  1.
          2   -1    0    0  501    0  0.00000000000E+00 -0.00000000000E+00 -0.92007012213E+02  0.92007012213E+02  0.00000000000E+00 0. -1.
         25    2    1    2    0    0 -0.63403538518E+02 -0.29252643859E+02  0.67442734568E+02  0.15833904550E+03  0.12508798909E+03 0.  0.
          5    1    3    3  502    0 -0.85953920310E+02 -0.49312832093E+02  0.77907364740E+02  0.12612240763E+03  0.41800000000E+01 0.  1.
         -5    1    3    3    0  502  0.22550381792E+02  0.20060188234E+02 -0.10464630172E+02  0.32216637869E+02  0.41800000000E+01 0.  1.
        -11    1    1    2    0    0  0.61338290121E+02  0.49621276464E+02  0.41396331124E+02  0.89097211760E+02  0.00000000000E+00 0.  1.
         11    1    1    2    0    0  0.20652483967E+01 -0.20368632605E+02 -0.18093977038E+02  0.27322855821E+02  0.00000000000E+00 0. -1.
</event>
<event>
 7    1  0.2601031E-009  0.1151713E+03  0.7561462E-02  0.1251282E+00
          2   -1    0    0  501    0  0.00000000000E+00  0.00000000000E+00  0.11462910972E+04  0.11462910972E+04  0.00000000000E+00 0. -1.
         -2   -1    0    0    0  501 -0.00000000000E+00 -0.00000000000E+00 -0.18419604455E+02  0.18419604455E+02  0.00000000000E+00 0.  1.
         25    2    1    2    0    0  0.86719120045E+02  0.27661725459E+02  0.68791271375E+03  0.70509351688E+03  0.12509032328E+03 0.  0.
          5    1    3    3  502    0  0.34541100885E+02  0.37897892935E+02  0.81766702376E+02  0.96605403351E+02  0.41800000000E+01 0. -1.
         -5    1    3    3    0  502  0.52178019160E+02 -0.10236167476E+02  0.60614601137E+03  0.60848811353E+03  0.41800000000E+01 0. -1.
        -11    1    1    2    0    0 -0.10155504059E+03 -0.36935208497E+02  0.41686839272E+03  0.43064706286E+03  0.00000000000E+00 0. -1.
         11    1    1    2    0    0  0.14835920541E+02  0.92734830381E+01  0.23090386314E+02  0.28970121955E+02  0.00000000000E+00 0.  1.
</event>
<event>
 7    1  0.2601031E-009  0.2355201E+03  0.7561462E-02  0.1122814E+00
          2   -1    0    0  501    0  0.00000000000E+00  0.00000000000E+00  0.24489357186E+03  0.24489357186E+03  0.00000000000E+00 0.  1.
         -2   -1    0    0    0  501 -0.00000000000E+00 -0.00000000000E+00 -0.23021601138E+03  0.23021601138E+03  0.00000000000E+00 0. -1.
         25    2    1    2    0    0 -0.14704040305E+03  0.15277656101E+03 -0.20320756472E+02  0.24702333049E+03  0.12508411145E+03 0.  0.
          5    1    3    3  502    0 -0.15828789861E+03  0.90278246753E+02 -0.99331563287E+01  0.18254139442E+03  0.41800000000E+01 0.  1.
         -5    1    3    3    0  502  0.11247495561E+02  0.62498314259E+02 -0.10387600143E+02  0.64481936063E+02  0.41800000000E+01 0.  1.
        -11    1    1    2    0    0  0.13494177686E+03 -0.16132080959E+03  0.35362643929E+02  0.21327025891E+03  0.00000000000E+00 0. -1.
         11    1    1    2    0    0  0.12098626191E+02  0.85442485761E+01 -0.36432698198E+00  0.14815993844E+02  0.00000000000E+00 0.  1.
</event>
<event>
 7    1  0.2601031E-009  0.1635545E+03  0.7561462E-02  0.1184741E+00
         -1   -1    0    0    0  501 -0.00000000000E+00  0.00000000000E+00  0.37055156079E+02  0.37055156079E+02  0.00000000000E+00 0.  1.
          1   -1    0    0  501    0  0.00000000000E+00 -0.00000000000E+00 -0.13516197555E+04  0.13516197555E+04  0.00000000000E+00 0. -1.
         25    2    1    2    0    0 -0.93019515699E+02  0.12120873611E+03 -0.10655393127E+04  0.10836810707E+04  0.12508576252E+03 0.  0.
          5    1    3    3  502    0 -0.66957887291E+02  0.61288268665E+02 -0.25880158953E+03  0.27429062268E+03  0.41800000000E+01 0.  1.
         -5    1    3    3    0  502 -0.26061628409E+02  0.59920467444E+02 -0.80673772322E+03  0.80939044803E+03  0.41800000000E+01 0.  1.
        -11    1    1    2    0    0  0.10438194769E+03 -0.90965090203E+02 -0.16760240035E+03  0.21739549959E+03  0.00000000000E+00 0.  1.
         11    1    1    2    0    0 -0.11362431989E+02 -0.30243645906E+02 -0.81422886319E+02  0.87598341279E+02  0.00000000000E+00 0. -1.
</event>
<event>
 7    1  0.2601031E-009  0.1623199E+03  0.7561462E-02  0.1186102E+00
          2   -1    0    0  501    0  0.00000000000E+00  0.00000000000E+00  0.15492145311E+03  0.15492145311E+03  0.00000000000E+00 0. -1.
         -2   -1    0    0    0  501 -0.00000000000E+00 -0.00000000000E+00 -0.30044271918E+03  0.30044271918E+03  0.00000000000E+00 0.  1.
         25    2    1    2    0    0 -0.11548687563E+03 -0.58457006129E+02  0.64733858047E+02  0.19129292426E+03  0.12509224790E+03 0.  0.
          5    1    3    3  502    0  0.18603471338E+02 -0.17802568357E+02  0.41766654752E+02  0.49243745137E+02  0.41800000000E+01 0.  1.
         -5    1    3    3    0  502 -0.13409034697E+03 -0.40654437772E+02  0.22967203295E+02  0.14204917912E+03  0.41800000000E+01 0.  1.
        -11    1    1    2    0    0  0.52543215125E+02  0.76580184880E+02 -0.10581898282E+03  0.14079407409E+03  0.00000000000E+00 0. -1.
         11    1    1    2    0    0  0.62943660510E+02 -0.18123178750E+02 -0.10443614129E+03  0.12327717394E+03  0.00000000000E+00 0.  1.
</event>
<event>
 7    1  0.2601031E-009  0.1533266E+03  0.7561462E-02  0.1196444E+00
         -2   -1    0    0    0  501 -0.00000000000E+00  0.00000000000E+00  0.47303009099E+02  0.47303009099E+02  0.00000000000E+00 0.  1.
          2   -1    0    0  501    0  0.00000000000E+00 -0.00000000000E+00 -0.56783331010E+03  0.56783331010E+03  0.00000000000E+00 0. -1.
         25    2    1    2    0    0 -0.48000835568E+02 -0.11124385101E+03 -0.32122748488E+03  0.36539533371E+03  0.12508948099E+03 0.  0.
          5    1    3    3  502    0 -0.81529279239E+02 -0.58296968786E+02 -0.25547791355E+03  0.27446674963E+03  0.41800000000E+01 0.  1.
         -5    1    3    3    0  502  0.33528443671E+02 -0.52946882228E+02 -0.65749571335E+02  0.90928584083E+02  0.41800000000E+01 0.  1.
        -11    1    1    2    0    0  0.69250764206E+02  0.88973490352E+02 -0.11991896031E+03  0.16459801752E+03  0.00000000000E+00 0.  1.
         11    1    1    2    0    0 -0.21249928638E+02  0.22270360662E+02 -0.79383855806E+02  0.85142967965E+02  0.00000000000E+00 0. -1.
</event>
<event>
 7    1  0.2601031E-009  0.9536713E+02  0.7561462E-02  0.1290351E+00
         -1   -1    0    0    0  501 -0.00000000000E+00  0.00000000000E+00  0.88074084095E+02  0.88074084095E+02  0.00000000000E+00 0.  1.
          1   -1    0    0  501    0  0.00000000000E+00 -0.00000000000E+00 -0.16855194645E+03  0.16855194645E+03  0.00000000000E+00 0. -1.
         25    2    1    2    0    0  0.11140784608E+02 -0.51161787207E+02 -0.26921189980E+02  0.13825440571E+03  0.12509150521E+03 0.  0.
          5    1    3    3  502    0  0.14197396101E+02  0.25807732614E+02 -0.49607327708E+02  0.57844312435E+02  0.41800000000E+01 0. -1.
         -5    1    3    3    0  502 -0.30566114928E+01 -0.76969519820E+02  0.22686137728E+02  0.80410093273E+02  0.41800000000E+01 0. -1.
        -11    1    1    2    0    0  0.11318944866E+02 -0.12184338233E+02  0.14977976103E+02  0.22381161257E+02  0.00000000000E+00 0.  1.
         11    1    1    2    0    0 -0.22459729474E+02  0.63346125440E+02 -0.68534648481E+02  0.95990463582E+02  0.00000000000E+00 0. -1.
</event>
<event>
 7    1  0.2601031E-009  0.1036370E+03  0.7561462E-02  0.1272828E+00
         -1   -1    0    0    0  501 -0.00000000000E+00  0.00000000000E+00  0.13086735836E+03  0.13086735836E+03  0.00000000000E+00 0.  1.
          1   -1    0    0  501    0  0.00000000000E+00 -0.00000000000E+00 -0.10524279419E+03  0.10524279419E+03  0.00000000000E+00 0. -1.
         25    2    1    2    0    0 -0.10376963107E+02  0.33689193006E+02 -0.14579603920E+02  0.13077589357E+03  0.12508847428E+03 0.  0.
          5    1    3    3  502    0 -0.63916121275E+02  0.32284416787E+02 -0.25178936633E+02  0.76019769640E+02  0.41800000000E+01 0. -1.
         -5    1    3    3    0  502  0.53539158168E+02  0.14047762190E+01  0.10599332713E+02  0.54756123927E+02  0.41800000000E+01 0. -1.
        -11    1    1    2    0    0 -0.66091549817E+01  0.22329689802E+02  0.40589632574E+02  0.46795451154E+02  0.00000000000E+00 0.  1.
         11    1    1    2    0    0  0.16986118089E+02 -0.56018882808E+02 -0.38546448923E+00  0.58538807825E+02  0.00000000000E+00 0. -1.
</event>
<event>
 7    1  0.2601031E-009  0.8214195E+02  0.7561462E-02  0.1323080E+00
         -1   -1    0    0    0  501 -0.00000000000E+00  0.00000000000E+00  0.68458623522E+02  0.68458623522E+02  0.00000000000E+00 0.  1.
          1   -1    0    0  501    0  0.00000000000E+00 -0.00000000000E+00 -0.21378621021E+03  0.21378621021E+03  0.00000000000E+00 0. -1.
         25    2    1    2    0    0  0.37285928629E+01 -0.16308576516E+01 -0.19952436192E+02  0.12673602033E+03  0.12508939618E+03 0.  0.
          5    1    3    3  502    0  0.55419812956E+02  0.20342884527E+02 -0.34578998833E+02  0.68544643695E+02  0.41800000000E+01 0. -1.
         -5    1    3    3    0  502 -0.51691220093E+02 -0.21973742178E+02  0.14626562641E+02  0.58191376635E+02  0.41800000000E+01 0. -1.
        -11    1    1    2    0    0  0.22314152457E+02 -0.23289984627E+01  0.45907358274E+01  0.22900229019E+02  0.00000000000E+00 0.  1.
         11    1    1    2    0    0 -0.26042745319E+02  0.39598561143E+01 -0.12996588632E+03  0.13260858438E+03  0.00000000000E+00 0. -1.
</event>
<event>
 7    1  0.2601031E-009  0.9017181E+02  0.7561462E-02  0.1302436E+00
         -1   -1    0    0    0  501 -0.00000000000E+00  0.00000000000E+00  0.21532933826E+03  0.21532933826E+03  0.00000000000E+00 0.  1.
          1   -1    0    0  501    0  0.00000000000E+00 -0.00000000000E+00 -0.72964161850E+02  0.72964161850E+02  0.00000000000E+00 0. -1.
         25    2    1    2    0    0  0.43087246211E+02 -0.45177489510E+02  0.86882074062E+02  0.16459945134E+03  0.12508784211E+03 0.  0.
          5    1    3    3  502    0  0.13202909736E+02 -0.71579304458E+02  0.98784431631E+02  0.12277520102E+03  0.41800000000E+01 0. -1.
         -5    1    3    3    0  502  0.29884336475E+02  0.26401814949E+02 -0.11902357569E+02  0.41824250320E+02  0.41800000000E+01 0. -1.
        -11    1    1    2    0    0  0.53044967134E+00  0.13316246475E+02  0.67127811081E+02  0.68437904830E+02  0.00000000000E+00 0.  1.
         11    1    1    2    0    0 -0.43617695882E+02  0.31861243035E+02 -0.11644708733E+02  0.55256143941E+02  0.00000000000E+00 0. -1.
</event>
<event>
 7    1  0.2601031E-009  0.8480811E+02  0.7561462E-02  0.1315935E+00
          3   -1    0    0  501    0  0.00000000000E+00  0.00000000000E+00  0.18367871139E+03  0.18367871139E+03  0.00000000000E+00 0. -1.
         -3   -1    0    0    0  501 -0.00000000000E+00 -0.00000000000E+00 -0.81646241630E+02  0.81646241630E+02  0.00000000000E+00 0.  1.
         25    2    1    2    0    0 -0.19099244733E+01 -0.31226986084E+02  0.83103037169E+01  0.12921149626E+03  0.12509107541E+03 0.  0.
          5    1    3    3  502    0 -0.46139773966E+02 -0.84235533727E+01 -0.38455025459E+02  0.60795529245E+02  0.41800000000E+01 0.  1.
         -5    1    3    3    0  502  0.44229849493E+02 -0.22803432711E+02  0.46765329176E+02  0.68415967014E+02  0.41800000000E+01 0.  1.
        -11    1    1    2    0    0  0.24495818226E+02  0.41175176095E+02  0.99792880927E+02  0.11069805473E+03  0.00000000000E+00 0. -1.
         11    1    1    2    0    0 -0.22585893753E+02 -0.99481900108E+01 -0.60707148873E+01  0.25415402030E+02  0.00000000000E+00 0.  1.
</event>
<event>
 7    1  0.2601031E-009  0.1313524E+03  0.7561462E-02  0.1225463E+00
          2   -1    0    0  501    0  0.00000000000E+00  0.00000000000E+00  0.35859844430E+03  0.35859844430E+03  0.00000000000E+00 0.  1.
         -2   -1    0    0    0  501 -0.00000000000E+00 -0.00000000000E+00 -0.64768380793E+02  0.64768380793E+02  0.00000000000E+00 0. -1.
         25    2    1    2    0    0 -0.68781674401E+02  0.64450972381E+02  0.22686882443E+03  0.27568531387E+03  0.12509229477E+03 0.  0.
          5    1    3    3  502    0  0.29327767641E+02  0.43999640541E+02  0.53163716572E+02  0.75099530507E+02  0.41800000000E+01 0.  1.
         -5    1    3    3    0  502 -0.98109442042E+02  0.20451331840E+02  0.17370510786E+03  0.20058578336E+03  0.41800000000E+01 0.  1.
        -11    1    1    2    0    0 -0.64477774521E+01 -0.22107937217E+02  0.56138571465E+02  0.60678446982E+02  0.00000000000E+00 0.  1.
         11    1    1    2    0    0  0.75229451853E+02 -0.42343035164E+02  0.10822667613E+02  0.87003064241E+02  0.00000000000E+00 0. -1.
</event>
<event>
 7    1  0.2601031E-009  0.3652862E+03  0.7561462E-02  0.1056510E+00
         -1   -1    0    0    0  501 -0.00000000000E+00  0.00000000000E+00  0.13888039393E+04  0.13888039393E+04  0.00000000000E+00 0.  1.
          1   -1    0    0  501    0  0.00000000000E+00 -0.00000000000E+00 -0.10980334599E+03  0.10980334599E+03  0.00000000000E+00 0. -1.
         25    2    1    2    0    0  0.27873219387E+03 -0.21661835373E+03  0.89552081490E+03  0.97068085363E+03  0.12509453473E+03 0.  0.
          5    1    3    3  502    0  0.39482688407E+02 -0.95954833430E+02  0.20077353620E+03  0.22603915144E+03  0.41800000000E+01 0. -1.
         -5    1    3    3    0  502  0.23924950546E+03 -0.12066352030E+03  0.69474727869E+03  0.74464170219E+03  0.41800000000E+01 0. -1.
        -11    1    1    2    0    0 -0.20207058032E+03  0.11860483620E+03  0.28683816044E+03  0.37037245697E+03  0.00000000000E+00 0.  1.
         11    1    1    2    0    0 -0.76661613545E+02  0.98013517527E+02  0.96641617936E+02  0.15755397465E+03  0.00000000000E+00 0. -1.
</event>
<event>
 7    1  0.2601031E-009  0.1144782E+03  0.7561462E-02  0.1252495E+00
          1   -1    0    0  501    0  0.00000000000E+00  0.00000000000E+00  0.27196139220E+02  0.27196139220E+02  0.00000000000E+00 0. -1.
         -1   -1    0    0    0  501 -0.00000000000E+00 -0.00000000000E+00 -0.60231843464E+03  0.60231843464E+03  0.00000000000E+00 0.  1.
         25    2    1    2    0    0 -0.67324262070E+02  0.11413484237E+02 -0.34432288074E+03  0.37264827181E+03  0.12508263027E+03 0.  0.
          5    1    3    3  502    0 -0.27679283291E+02 -0.41461551428E+02 -0.49122784681E+02  0.70112219656E+02  0.41800000000E+01 0.  1.
         -5    1    3    3    0  502 -0.39644978779E+02  0.52875035666E+02 -0.29520009605E+03  0.30253605215E+03  0.41800000000E+01 0.  1.
        -11    1    1    2    0    0  0.86622511427E+02  0.58468258165E+01 -0.18049606724E+03  0.20029097620E+03  0.00000000000E+00 0. -1.
         11    1    1    2    0    0 -0.19298249357E+02 -0.17260310054E+02 -0.50303347446E+02  0.56575325856E+02  0.00000000000E+00 0.  1.
</event>
<event>
 7    1  0.2601031E-009  0.1119728E+03  0.7561462E-02  0.1256960E+00
         -1   -1    0    0    0  501 -0.00000000000E+00  0.00000000000E+00  0.11024204601E+04  0.11024204601E+04  0.00000000000E+00 0.  1.
          1   -1    0    0  501    0  0.00000000000E+00 -0.00000000000E+00 -0.32081779339E+02  0.32081779339E+02  0.00000000000E+00 0. -1.
         25    2    1    2    0    0  0.50053441090E+02  0.24997350487E+02  0.98767226412E+03  0.99713311112E+03  0.12509086892E+03 0.  0.
          5    1    3    3  502    0  0.85650569557E+02 -0.93795101733E+01  0.56375910763E+03  0.57032078615E+03  0.41800000000E+01 0.  1.
         -5    1    3    3    0  502 -0.35597128467E+02  0.34376860660E+02  0.42391315649E+03  0.42681232497E+03  0.41800000000E+01 0.  1.
        -11    1    1    2    0    0 -0.21739277729E+02 -0.47247055062E+02  0.56056131586E+01  0.52309686551E+02  0.00000000000E+00 0. -1.
         11    1    1    2    0    0 -0.28314163361E+02  0.22249704575E+02  0.77060803506E+02  0.85059441789E+02  0.00000000000E+00 0.  1.
</event>
<event>
 7    1  0.2601031E-009  0.1200380E+03  0.7561462E-02  0.1243034E+00
         -2   -1    0    0    0  501 -0.00000000000E+00  0.00000000000E+00  0.41267216785E+02  0.41267216785E+02  0.00000000000E+00 0.  1.
          2   -1    0    0  501    0  0.00000000000E+00 -0.00000000000E+00 -0.50069655391E+03  0.50069655391E+03  0.00000000000E+00 0. -1.
         25    2    1    2    0    0 -0.42852155032E+02 -0.44065786608E+02 -0.38368256379E+03  0.40821261451E+03  0.12508848129E+03 0.  0.
          5    1    3    3  502    0 -0.32621748747E+02 -0.83552242039E+02 -0.18882174799E+03  0.20908438621E+03  0.41800000000E+01 0. -1.
         -5    1    3    3    0  502 -0.10230406285E+02  0.39486455431E+02 -0.19486081580E+03  0.19912822831E+03  0.41800000000E+01 0. -1.
        -11    1    1    2    0    0  0.42160439762E+02  0.70872366858E+02 -0.64410083869E+02  0.10463772727E+03  0.00000000000E+00 0. -1.
         11    1    1    2    0    0  0.69171526962E+00 -0.26806580250E+02 -0.11336689467E+02  0.29113428908E+02  0.00000000000E+00 0.  1.
</event>
<event>
 7    1  0.2601031E-009  0.1035287E+03  0.7561462E-02  0.1273046E+00
         -1   -1    0    0    0  501 -0.00000000000E+00  0.00000000000E+00  0.14679424264E+03  0.14679424264E+03  0.00000000000E+00 0.  1.
          1   -1    0    0  501    0  0.00000000000E+00 -0.00000000000E+00 -0.10068818831E+03  0.10068818831E+03  0.00000000000E+00 0. -1.
         25    2    1    2    0    0  0.17509308201E+02 -0.25820671706E+02  0.72405722915E+02  0.14786169057E+03  0.12508879992E+03 0.  0.
          5    1    3    3  502    0 -0.25660479252E+01 -0.71577762504E+02  0.18194205699E+02  0.74016634671E+02  0.41800000000E+01 0.  1.
         -5    1    3    3    0  502  0.20075356126E+02  0.45757090797E+02  0.54211517216E+02  0.73845055899E+02  0.41800000000E+01 0.  1.
        -11    1    1    2    0    0  0.12270584952E+02 -0.24098621326E+02  0.12440209509E+02  0.29766921532E+02  0.00000000000E+00 0.  1.
         11    1    1    2    0    0 -0.29779893153E+02  0.49919293032E+02 -0.38739878099E+02  0.69853818852E+02  0.00000000000E+00 0. -1.
</event>
<event>
 7    1  0.2601031E-009  0.9399984E+02  0.7561462E-02  0.1293445E+00
         -2   -1    0    0    0  501 -0.00000000000E+00  0.00000000000E+00  0.90074045106E+01  0.90074045106E+01  0.00000000000E+00 0.  1.
          2   -1    0    0  501    0  0.00000000000E+00 -0.00000000000E+00 -0.15250605190E+04  0.15250605190E+04  0.00000000000E+00 0. -1.
         25    2    1    2    0    0  0.28700536258E+02 -0.18412257145E+02 -0.92939803332E+03  0.93840040872E+03  0.12510751677E+03 0.  0.
          5    1    3    3  502    0 -0.22806531279E+02 -0.23393577109E+02 -0.69217643954E+02  0.76654758192E+02  0.41800000000E+01 0.  1.
         -5    1    3    3    0  502  0.51507067537E+02  0.49813199638E+01 -0.86018038937E+03  0.86174565053E+03  0.41800000000E+01 0.  1.
        -11    1    1    2    0    0 -0.64392601418E+02  0.35705731704E+01 -0.37800991879E+03  0.38347184357E+03  0.00000000000E+00 0.  1.
         11    1    1    2    0    0  0.35692065161E+02  0.14841683975E+02 -0.20864516237E+03  0.21219567120E+03  0.00000000000E+00 0. -1.
</event>
<event>
 7    1  0.2601031E-009  0.1908733E+03  0.7561462E-02  0.1157676E+00
         -3   -1    0    0    0  501 -0.00000000000E+00  0.00000000000E+00  0.10981908823E+03  0.10981908823E+03  0.00000000000E+00 0.  1.
          3   -1    0    0  501    0  0.00000000000E+00 -0.00000000000E+00 -0.59575634534E+03  0.59575634534E+03  0.00000000000E+00 0. -1.
         25    2    1    2    0    0 -0.53325744748E+02 -0.15628984835E+03 -0.26584743521E+02  0.20886486473E+03  0.12509049276E+03 0.  0.
          5    1    3    3  502    0 -0.90946873965E+02 -0.13029067312E+03 -0.74682774783E+01  0.15912335138E+03  0.41800000000E+01 0. -1.
         -5    1    3    3    0  502  0.37621129217E+02 -0.25999175231E+02 -0.19116466042E+02  0.49741513349E+02  0.41800000000E+01 0. -1.
        -11    1    1    2    0    0 -0.13357791346E+02  0.46894097892E+02 -0.60021991655E+02  0.77331277560E+02  0.00000000000E+00 0.  1.
         11    1    1    2    0    0  0.66683536094E+02  0.10939575046E+03 -0.39933052193E+03  0.41937929128E+03  0.00000000000E+00 0. -1.
</event>
<event>
 7    1  0.2601031E-009  0.9646104E+02  0.7561462E-02  0.1287919E+00
         -2   -1    0    0    0  501 -0.00000000000E+00  0.00000000000E+00  0.44519646995E+02  0.44519646995E+02  0.00000000000E+00 0. -1.
          2   -1    0    0  501    0  0.00000000000E+00 -0.00000000000E+00 -0.39676921521E+03  0.39676921521E+03  0.00000000000E+00 0.  1.
         25    2    1    2    0    0  0.65191762235E+02  0.14407659688E+02 -0.13232021107E+03  0.19394385260E+03  0.12509209881E+03 0.  0.
          5    1    3    3  502    0 -0.10837903597E+02 -0.10026014598E+02  0.18014110407E+02  0.23663509817E+02  0.41800000000E+01 0. -1.
         -5    1    3    3    0  502  0.76029665832E+02  0.24433674286E+02 -0.15033432147E+03  0.17028034278E+03  0.41800000000E+01 0. -1.
        -11    1    1    2    0    0  0.15540222979E+02 -0.50306699592E+01 -0.42758729013E+01  0.16884586449E+02  0.00000000000E+00 0. -1.
         11    1    1    2    0    0 -0.80731985214E+02 -0.93769897284E+01 -0.21565348425E+03  0.23046042316E+03  0.00000000000E+00 0.  1.
</event>
<event>
 7    1  0.2601031E-009  0.6868119E+02  0.7561462E-02  0.1364636E+00
         -1   -1    0    0    0  501 -0.00000000000E+00  0.00000000000E+00  0.18104243261E+02  0.18104243261E+02  0.00000000000E+00 0.  1.
          1   -1    0    0  501    0  0.00000000000E+00 -0.00000000000E+00 -0.91523850844E+03  0.91523850844E+03  0.00000000000E+00 0. -1.
         25    2    1    2    0    0 -0.14018671662E+01  0.29422593471E+02 -0.72640722841E+03  0.73768729174E+03  0.12508966649E+03 0.  0.
          5    1    3    3  502    0 -0.23887962779E+01  0.34734688024E+02 -0.72939061242E+03  0.73023307429E+03  0.41800000000E+01 0.  1.
         -5    1    3    3    0  502  0.98692911166E+00 -0.53120945532E+01  0.29833840075E+01  0.74542174472E+01  0.41800000000E+01 0.  1.
        -11    1    1    2    0    0  0.33274672522E+02 -0.48126048051E+02 -0.10904082440E+03  0.12374660286E+03  0.00000000000E+00 0. -1.
         11    1    1    2    0    0 -0.31872805355E+02  0.18703454580E+02 -0.61686212364E+02  0.71908857106E+02  0.00000000000E+00 0.  1.
</event>
<event>
 7    1  0.2601031E-009  0.1155713E+03  0.7561462E-02  0.1250587E+00
          1   -1    0    0  501    0  0.00000000000E+00  0.00000000000E+00  0.18649662607E+03  0.18649662607E+03  0.00000000000E+00 0. -1.
         -1   -1    0    0    0  501 -0.00000000000E+00 -0.00000000000E+00 -0.25616782699E+03  0.25616782699E+03  0.00000000000E+00 0.  1.
         25    2    1    2    0    0 -0.83469526160E+02  0.30827181217E+02 -0.20515075189E+03  0.25622556965E+03  0.12508890696E+03 0.  0.
          5    1    3    3  502    0 -0.12134746107E+01 -0.33582013669E+02 -0.10814498896E+02  0.35547854353E+02  0.41800000000E+01 0.  1.
         -5    1    3    3    0  502 -0.82256051549E+02  0.64409194886E+02 -0.19433625299E+03  0.22067771530E+03  0.41800000000E+01 0.  1.
        -11    1    1    2    0    0  0.45891213971E+02 -0.30575292643E+02  0.10763991344E+02  0.56184655820E+02  0.00000000000E+00 0.  1.
         11    1    1    2    0    0  0.37578312189E+02 -0.25188857370E+00  0.12471555962E+03  0.13025422759E+03  0.00000000000E+00 0. -1.
</event>
<event>
 7    1  0.2601031E-009  0.1176560E+03  0.7561462E-02  0.1247015E+00
          1   -1    0    0  501    0  0.00000000000E+00  0.00000000000E+00  0.37000259893E+02  0.37000259893E+02  0.00000000000E+00 0. -1.
         -1   -1    0    0    0  501 -0.00000000000E+00 -0.00000000000E+00 -0.46165503863E+03  0.46165503863E+03  0.00000000000E+00 0.  1.
         25    2    1    2    0    0  0.66157409782E+01  0.63273278796E+02 -0.16914031251E+03  0.21977979940E+03  0.12508972409E+03 0.  0.
          5    1    3    3  502    0  0.64804767550E+02  0.42937303078E+02 -0.10513612431E+03  0.13082181365E+03  0.41800000000E+01 0. -1.
         -5    1    3    3    0  502 -0.58189026572E+02  0.20335975719E+02 -0.64004188197E+02  0.88957985749E+02  0.41800000000E+01 0. -1.
        -11    1    1    2    0    0 -0.31026832512E+02 -0.36354634982E+01 -0.26491939348E+02  0.40959782483E+02  0.00000000000E+00 0. -1.
         11    1    1    2    0    0  0.24411091534E+02 -0.59637815298E+02 -0.22902252688E+03  0.23791571664E+03  0.00000000000E+00 0.  1.
</event>
<event>
 7    1  0.2601031E-009  0.1355761E+03  0.7561462E-02  0.1219409E+00
         -2   -1    0    0    0  501 -0.00000000000E+00  0.00000000000E+00  0.30388301546E+02  0.30388301546E+02  0.00000000000E+00 0. -1.
          2   -1    0    0  501    0  0.00000000000E+00 -0.00000000000E+00 -0.62031649760E+03  0.62031649760E+03  0.00000000000E+00 0.  1.
         25    2    1    2    0    0  0.72200836337E+02 -0.40425012938E+02 -0.33031698516E+03  0.36276918812E+03  0.12508009722E+03 0.  0.
          5    1    3    3  502    0  0.89682713335E+01 -0.75457470169E+02 -0.19443759876E+03  0.20880065111E+03  0.41800000000E+01 0.  1.
         -5    1    3    3    0  502  0.63232565004E+02  0.35032457232E+02 -0.13587938640E+03  0.15396853700E+03  0.41800000000E+01 0.  1.
        -11    1    1    2    0    0  0.16098555514E+02 -0.11883253691E+02 -0.26276285603E+02  0.33027539918E+02  0.00000000000E+00 0.  1.
         11    1    1    2    0    0 -0.88299391851E+02  0.52308266629E+02 -0.23333492528E+03  0.25490807111E+03  0.00000000000E+00 0. -1.
</event>
<event>
 7    1  0.2601031E-009  0.1269706E+03  0.7561462E-02  0.1232021E+00
         -2   -1    0    0    0  501 -0.00000000000E+00  0.00000000000E+00  0.73690393650E+02  0.73690393650E+02  0.00000000000E+00 0.  1.
          2   -1    0    0  501    0  0.00000000000E+00 -0.00000000000E+00 -0.26441773707E+03  0.26441773707E+03  0.00000000000E+00 0. -1.
         25    2    1    2    0    0 -0.45339328207E+01  0.84569877187E+02 -0.14712181862E+03  0.21086802811E+03  0.12509146690E+03 0.  0.
          5    1    3    3  502    0 -0.27976031636E+02  0.11066586126E+03 -0.12429102244E+03  0.16880557412E+03  0.41800000000E+01 0. -1.
         -5    1    3    3    0  502  0.23442098816E+02 -0.26095984075E+02 -0.22830796182E+02  0.42062453994E+02  0.41800000000E+01 0. -1.
        -11    1    1    2    0    0  0.32845627397E+02 -0.43503632600E+02  0.84305168041E+01  0.55158633976E+02  0.00000000000E+00 0.  1.
         11    1    1    2    0    0 -0.28311694576E+02 -0.41066244587E+02 -0.52036041608E+02  0.72081468634E+02  0.00000000000E+00 0. -1.
</event>
<event>
 7    1  0.2601031E-009  0.1055126E+03  0.7561462E-02  0.1269113E+00
          3   -1    0    0  501    0  0.00000000000E+00  0.00000000000E+00  0.66663930559E+02  0.66663930559E+02  0.00000000000E+00 0. -1.
         -3   -1    0    0    0  501 -0.00000000000E+00 -0.00000000000E+00 -0.18312035638E+03  0.18312035638E+03  0.00000000000E+00 0.  1.
         25    2    1    2    0    0  0.17954421874E+02 -0.12243033565E+01 -0.80112001299E+02  0.14962908850E+03  0.12508825360E+03 0.  0.
          5    1    3    3  502    0 -0.45364835806E+02 -0.23432750435E+02 -0.94513079553E+01  0.52094738148E+02  0.41800000000E+01 0. -1.
         -5    1    3    3    0  502  0.63319257680E+02  0.22208447079E+02 -0.70660693344E+02  0.97534350352E+02  0.41800000000E+01 0. -1.
        -11    1    1    2    0    0  0.58992508695E+00 -0.43834378655E+02 -0.10841472983E+02  0.45159033428E+02  0.00000000000E+00 0.  1.
         11    1    1    2    0    0 -0.18544346961E+02  0.45058682012E+02 -0.25502951542E+02  0.54996165014E+02  0.00000000000E+00 0. -1.
</event>
<event>
 7    1  0.2601031E-009  0.1292137E+03  0.7561462E-02  0.1228627E+00
         -2   -1    0    0    0  501 -0.00000000000E+00  0.00000000000E+00  0.17350707572E+03  0.17350707572E+03  0.00000000000E+00 0.  1.
          2   -1    0    0  501    0  0.00000000000E+00 -0.00000000000E+00 -0.13246469542E+03  0.13246469542E+03  0.00000000000E+00 0. -1.
         25    2    1    2    0    0 -0.89540819255E+02 -0.41764869426E+02  0.58143982243E+02  0.16967846710E+03  0.12509275316E+03 0.  0.
          5    1    3    3  502    0 -0.28681851607E+02 -0.80227360163E+02  0.18138785479E+02  0.87209895476E+02  0.41800000000E+01 0. -1.
         -5    1    3    3    0  502 -0.60858967647E+02  0.38462490737E+02  0.40005196764E+02  0.82468571619E+02  0.41800000000E+01 0. -1.
        -11    1    1    2    0    0  0.45854425137E+02  0.98332314252E+01  0.37029521245E+02  0.59753712759E+02  0.00000000000E+00 0.  1.
         11    1    1    2    0    0  0.43686394118E+02  0.31931638001E+02 -0.54131123183E+02  0.76539591281E+02  0.00000000000E+00 0. -1.
</event>
<event>
 7    1  0.2601031E-009  0.2198857E+03  0.7561462E-02  0.1133968E+00
          3   -1    0    0  501    0  0.00000000000E+00  0.00000000000E+00  0.36946790142E+03  0.36946790142E+03  0.00000000000E+00 0. -1.
         -3   -1    0    0    0  501 -0.00000000000E+00 -0.00000000000E+00 -0.19340283284E+03  0.19340283284E+03  0.00000000000E+00 0.  1.
         25    2    1    2    0    0 -0.20882821824E+03 -0.29516084851E+02  0.21969381906E+03  0.32923177699E+03  0.12509102626E+03 0.  0.
          5    1    3    3  502    0 -0.13247691812E+03  0.21840800813E+02  0.18953159634E+03  0.23230766846E+03  0.41800000000E+01 0. -1.
         -5    1    3    3    0  502 -0.76351300121E+02 -0.51356885664E+02  0.30162222721E+02  0.96924108532E+02  0.41800000000E+01 0. -1.
        -11    1    1    2    0    0  0.14790693926E+03  0.35522831793E+02 -0.69427637266E+02  0.16720804728E+03  0.00000000000E+00 0.  1.
         11    1    1    2    0    0  0.60921278980E+02 -0.60067469429E+01  0.25798886783E+02  0.66430909979E+02  0.00000000000E+00 0. -1.
</event>
<event>
 7    1  0.2601031E-009  0.9180192E+02  0.7561462E-02  0.1298546E+00
          2   -1    0    0  501    0  0.00000000000E+00  0.00000000000E+00  0.32838153893E+02  0.32838153893E+02  0.00000000000E+00 0. -1.
         -2   -1    0    0    0  501 -0.00000000000E+00 -0.00000000000E+00 -0.55294909947E+03  0.55294909947E+03  0.00000000000E+00 0.  1.
         25    2    1    2    0    0  0.13569324955E+02  0.55082670674E+02 -0.38115335576E+03  0.40514844968E+03  0.12509659661E+03 0.  0.
          5    1    3    3  502    0  0.23358225722E+02  0.70258965212E+02 -0.10596627978E+03  0.12933775068E+03  0.41800000000E+01 0.  1.
         -5    1    3    3    0  502 -0.97889007667E+01 -0.15176294538E+02 -0.27518707598E+03  0.27581069899E+03  0.41800000000E+01 0.  1.
        -11    1    1    2    0    0 -0.42658633890E+02 -0.27057616451E+02 -0.12971152315E+03  0.13920112389E+03  0.00000000000E+00 0.  1.
         11    1    1    2    0    0  0.29089308935E+02 -0.28025054223E+02 -0.92460666717E+01  0.41437679802E+02  0.00000000000E+00 0. -1.
</event>
<event>
 7    1  0.2601031E-009  0.1014979E+03  0.7561462E-02  0.1277177E+00
          2   -1    0    0  501    0  0.00000000000E+00  0.00000000000E+00  0.64221893850E+03  0.64221893850E+03  0.00000000000E+00 0. -1.
         -2   -1    0    0    0  501 -0.00000000000E+00 -0.00000000000E+00 -0.23946938782E+02  0.23946938782E+02  0.00000000000E+00 0.  1.
         25    2    1    2    0    0  0.18814192603E+02 -0.55123217043E+02  0.39405389988E+03  0.41751469174E+03  0.12508996325E+03 0.  0.
          5    1    3    3  502    0  0.45071136581E+02 -0.60275165435E+02  0.11725499988E+03  0.13939408280E+03  0.41800000000E+01 0.  1.
         -5    1    3    3    0  502 -0.26256943977E+02  0.51519483918E+01  0.27679890000E+03  0.27812060895E+03  0.41800000000E+01 0.  1.
        -11    1    1    2    0    0 -0.21700896173E+02 -0.17485429827E+02  0.28421446938E+02  0.39805122748E+02  0.00000000000E+00 0.  1.
         11    1    1    2    0    0  0.28867035694E+01  0.72608646871E+02  0.19579665290E+03  0.20884606279E+03  0.00000000000E+00 0. -1.
</event>
<event>
 7    1  0.2601031E-009  0.1151179E+03  0.7561462E-02  0.1251375E+00
          1   -1    0    0  501    0  0.00000000000E+00  0.00000000000E+00  0.69709961562E+03  0.69709961562E+03  0.00000000000E+00 0. -1.
         -1   -1    0    0    0  501 -0.00000000000E+00 -0.00000000000E+00 -0.40976594643E+02  0.40976594643E+02  0.00000000000E+00 0.  1.
         25    2    1    2    0    0  0.11480251137E+02 -0.83257781568E+02  0.55675102454E+03  0.57678612968E+03  0.12508749620E+03 0.  0.
          5    1    3    3  502    0  0.44317029496E+02 -0.99265055867E+02  0.34126034115E+03  0.35818102024E+03  0.41800000000E+01 0. -1.
         -5    1    3    3    0  502 -0.32836778359E+02  0.16007274300E+02  0.21549068339E+03  0.21860510944E+03  0.41800000000E+01 0. -1.
        -11    1    1    2    0    0 -0.54075957164E+01  0.68590079340E+02  0.11813617877E+03  0.13671136679E+03  0.00000000000E+00 0. -1.
         11    1    1    2    0    0 -0.60726554204E+01  0.14667702228E+02 -0.18764182341E+02  0.24578713787E+02  0.00000000000E+00 0.  1.
</event>
<event>
 7    1  0.2601031E-009  0.7938816E+02  0.7561462E-02  0.1330797E+00
          1   -1    0    0  501    0  0.00000000000E+00  0.00000000000E+00  0.22974282882E+03  0.22974282882E+03  0.00000000000E+00 0. -1.
         -1   -1    0    0    0  501 -0.00000000000E+00 -0.00000000000E+00 -0.56200721768E+02  0.56200721768E+02  0.00000000000E+00 0.  1.
         25    2    1    2    0    0 -0.30225931041E+02  0.63315339294E+01  0.11975404747E+03  0.17590293845E+03  0.12508843528E+03 0.  0.
          5    1    3    3  502    0  0.18972355416E+02 -0.32588013631E+01 -0.19576226666E+02  0.27771768162E+02  0.41800000000E+01 0.  1.
         -5    1    3    3    0  502 -0.49198286457E+02  0.95903352925E+01  0.13933027413E+03  0.14813117029E+03  0.41800000000E+01 0.  1.
        -11    1    1    2    0    0  0.19196993882E+02  0.38280411850E+02  0.51606612209E+01  0.43134057655E+02  0.00000000000E+00 0.  1.
         11    1    1    2    0    0  0.11028937158E+02 -0.44611945779E+02  0.48627398366E+02  0.66906554484E+02  0.00000000000E+00 0. -1.
</event>
<event>
 7    1  0.2601031E-009  0.1288400E+03  0.7561462E-02  0.1229187E+00
         -2   -1    0    0    0  501 -0.00000000000E+00  0.00000000000E+00  0.12668209083E+03  0.12668209083E+03  0.00000000000E+00 0.  1.
          2   -1    0    0  501    0  0.00000000000E+00 -0.00000000000E+00 -0.20858040921E+03  0.20858040921E+03  0.00000000000E+00 0. -1.
         25    2    1    2    0    0 -0.78279338506E+01  0.11086161169E+03 -0.91546421237E+02  0.19073317626E+03  0.12508726470E+03 0.  0.
          5    1    3    3  502    0  0.39501639673E+02  0.59220040503E+02 -0.96951236973E+02  0.12035118398E+03  0.41800000000E+01 0.  1.
         -5    1    3    3    0  502 -0.47329573523E+02  0.51641571188E+02  0.54048157355E+01  0.70381992284E+02  0.41800000000E+01 0.  1.
        -11    1    1    2    0    0  0.16982122048E+02 -0.10217917345E+03  0.40484711763E+02  0.11121145554E+03  0.00000000000E+00 0.  1.
         11    1    1    2    0    0 -0.91541881979E+01 -0.86824382416E+01 -0.30836608905E+02  0.33317868241E+02  0.00000000000E+00 0. -1.
</event>
<event>
 7    1  0.2601031E-009  0.9639095E+02  0.7561462E-02  0.1288074E+00
          1   -1    0    0  501    0  0.00000000000E+00  0.00000000000E+00  0.70965244412E+02  0.70965244412E+02  0.00000000000E+00 0. -1.
         -1   -1    0    0    0  501 -0.00000000000E+00 -0.00000000000E+00 -0.19944121132E+03  0.19944121132E+03  0.00000000000E+00 0.  1.
         25    2    1    2    0    0  0.13251515438E+01  0.49948423252E+02 -0.75326851828E+02  0.15433126990E+03  0.12508958889E+03 0.  0.
          5    1    3    3  502    0  0.25459767024E+02 -0.31046745375E+02  0.99276425637E+00  0.40380169838E+02  0.41800000000E+01 0.  1.
         -5    1    3    3    0  502 -0.24134615480E+02  0.80995168627E+02 -0.76319616084E+02  0.11395110006E+03  0.41800000000E+01 0.  1.
        -11    1    1    2    0    0 -0.18724534625E+02 -0.46821450906E+01 -0.63602191270E+02  0.66466302845E+02  0.00000000000E+00 0.  1.
         11    1    1    2    0    0  0.17399383081E+02 -0.45266278161E+02  0.10453076186E+02  0.49608882994E+02  0.00000000000E+00 0. -1.
</event>
<event>
 7    1  0.2601031E-009  0.2345089E+03  0.7561462E-02  0.1123506E+00
          3   -1    0    0  501    0  0.00000000000E+00  0.00000000000E+00  0.11434927852E+03  0.11434927852E+03  0.00000000000E+00 0. -1.
         -3   -1    0    0    0  501 -0.00000000000E+00 -0.00000000000E+00 -0.50132093588E+03  0.50132093588E+03  0.00000000000E+00 0.  1.
         25    2    1    2    0    0  0.14168277126E+03 -0.15286688107E+03 -0.25796783737E+03  0.35445372477E+03  0.12509095445E+03 0.  0.
          5    1    3    3  502    0  0.11204023389E+03 -0.17360521818E+03 -0.21852245933E+03  0.30076788961E+03  0.41800000000E+01 0. -1.
         -5    1    3    3    0  502  0.29642537367E+02  0.20738337110E+02 -0.39445378044E+02  0.53685835159E+02  0.41800000000E+01 0. -1.
        -11    1    1    2    0    0 -0.13757730585E+03  0.16400465246E+03 -0.12772767457E+03  0.24927775666E+03  0.00000000000E+00 0.  1.
         11    1    1    2    0    0 -0.41054654094E+01 -0.11137771392E+02 -0.12761454090E+01  0.11938732969E+02  0.00000000000E+00 0. -1.
</event>
<event>
 7    1  0.2601031E-009  0.1476200E+03  0.7561462E-02  0.1203428E+00
          1   -1    0    0  501    0  0.00000000000E+00  0.00000000000E+00  0.31828427592E+03  0.31828427592E+03  0.00000000000E+00 0. -1.
         -1   -1    0    0    0  501 -0.00000000000E+00 -0.00000000000E+00 -0.70022453323E+02  0.70022453323E+02  0.00000000000E+00 0.  1.
         25    2    1    2    0    0  0.41493668003E+01 -0.10072249289E+03  0.16289688750E+03  0.22879143554E+03  0.12509151531E+03 0.  0.
          5    1    3    3  502    0 -0.15453222801E+02  0.26959785548E+02  0.34208318482E+02  0.46403810027E+02  0.41800000000E+01 0.  1.
         -5    1    3    3    0  502  0.19602589601E+02 -0.12768227843E+03  0.12868856902E+03  0.18238762552E+03  0.41800000000E+01 0.  1.
        -11    1    1    2    0    0 -0.40230221557E+02  0.87334624947E+02  0.63869642146E+02  0.11543456427E+03  0.00000000000E+00 0.  1.
         11    1    1    2    0    0  0.36080854756E+02  0.13387867940E+02  0.21495292956E+02  0.44080729431E+02  0.00000000000E+00 0. -1.
</event>
<event>
 7    1  0.2601031E-009  0.5678110E+03  0.7561462E-02  0.9974534E-01
          1   -1    0    0  501    0  0.00000000000E+00  0.00000000000E+00  0.18249126077E+04  0.18249126077E+04  0.00000000000E+00 0. -1.
         -1   -1    0    0    0  501 -0.00000000000E+00 -0.00000000000E+00 -0.18384924108E+03  0.18384924108E+03  0.00000000000E+00 0.  1.
         25    2    1    2    0    0  0.44896221370E+03  0.33800546429E+03  0.70008728438E+03  0.90641018639E+03  0.12506980863E+03 0.  0.
          5    1    3    3  502    0  0.33535922772E+03  0.24588486149E+03  0.42373290713E+03  0.59371055719E+03  0.41800000000E+01 0. -1.
         -5    1    3    3    0  502  0.11360298598E+03  0.92120602793E+02  0.27635437724E+03  0.31269962920E+03  0.41800000000E+01 0. -1.
        -11    1    1    2    0    0 -0.22024931245E+03 -0.23661776047E+03  0.55901622034E+03  0.64575293945E+03  0.00000000000E+00 0.  1.
         11    1    1    2    0    0 -0.22871290125E+03 -0.10138770381E+03  0.38195986188E+03  0.45659872291E+03  0.00000000000E+00 0. -1.
</event>
<event>
 7    1  0.2601031E-009  0.9364480E+02  0.7561462E-02  0.1294258E+00
         -1   -1    0    0    0  501 -0.00000000000E+00  0.00000000000E+00  0.21462723136E+02  0.21462723136E+02  0.00000000000E+00 0.  1.
          1   -1    0    0  501    0  0.00000000000E+00 -0.00000000000E+00 -0.62722447387E+03  0.62722447387E+03  0.00000000000E+00 0. -1.
         25    2    1    2    0    0 -0.23133966492E+02  0.55376615597E+01 -0.25318570553E+03  0.28340141116E+03  0.12509001662E+03 0.  0.
          5    1    3    3  502    0 -0.30002598381E+01 -0.43723378684E+02 -0.21049454593E+03  0.21504920755E+03  0.41800000000E+01 0. -1.
         -5    1    3    3    0  502 -0.20133706654E+02  0.49261040243E+02 -0.42691159606E+02  0.68352203608E+02  0.41800000000E+01 0. -1.
        -11    1    1    2    0    0  0.45890750928E+02  0.24640196987E+02 -0.26221521801E+03  0.26733858847E+03  0.00000000000E+00 0. -1.
         11    1    1    2    0    0 -0.22756784435E+02 -0.30177858547E+02 -0.90360827191E+02  0.97947197382E+02  0.00000000000E+00 0.  1.
</event>
<event>
 7    1  0.2601031E-009  0.1026301E+03  0.7561462E-02  0.1274861E+00
          2   -1    0    0  501    0  0.00000000000E+00  0.00000000000E+00  0.55084865893E+03  0.55084865893E+03  0.00000000000E+00 0. -1.
         -2   -1    0    0    0  501 -0.00000000000E+00 -0.00000000000E+00 -0.28465393934E+02  0.28465393934E+02  0.00000000000E+00 0.  1.
         25    2    1    2    0    0 -0.51219867979E+02 -0.35145547552E+02  0.27688051140E+03  0.31011178403E+03  0.12509123314E+03 0.  0.
          5    1    3    3  502    0  0.26811491357E+02 -0.14526428056E+01  0.83622684286E+01  0.28431781042E+02  0.41800000000E+01 0. -1.
         -5    1    3    3    0  502 -0.78031359337E+02 -0.33692904747E+02  0.26851824298E+03  0.28168000298E+03  0.41800000000E+01 0. -1.
        -11    1    1    2    0    0 -0.78492717605E+01  0.32956915894E+02  0.16984853564E+03  0.17319438337E+03  0.00000000000E+00 0. -1.
         11    1    1    2    0    0  0.59069139740E+02  0.21886316580E+01  0.75654217956E+02  0.96007885471E+02  0.00000000000E+00 0.  1.
</event>
<event>
 7    1  0.2601031E-009  0.1240771E+03  0.7561462E-02  0.1236519E+00
         -2   -1    0    0    0  501 -0.00000000000E+00  0.00000000000E+00  0.77263722085E+02  0.77263722085E+02  0.00000000000E+00 0.  1.
          2   -1    0    0  501    0  0.00000000000E+00 -0.00000000000E+00 -0.26452556322E+03  0.26452556322E+03  0.00000000000E+00 0. -1.
         25    2    1    2    0    0  0.42904876581E+02 -0.65354661036E+02 -0.42654561388E+02  0.15355632227E+03  0.12509225535E+03 0.  0.
          5    1    3    3  502    0 -0.42092744522E+02 -0.32582041994E+02 -0.12599977535E+01  0.53408319542E+02  0.41800000000E+01 0. -1.
         -5    1    3    3    0  502  0.84997621103E+02 -0.32772619042E+02 -0.41394563634E+02  0.10014800273E+03  0.41800000000E+01 0. -1.
        -11    1    1    2    0    0 -0.61299522813E+02  0.44431190279E+02 -0.52826038195E+02  0.92316588315E+02  0.00000000000E+00 0. -1.
         11    1    1    2    0    0  0.18394646232E+02  0.20923470757E+02 -0.91781241558E+02  0.95916374725E+02  0.00000000000E+00 0.  1.
</event>
<event>
 7    1  0.2601031E-009  0.7767452E+02  0.7561462E-02  0.1335783E+00
          1   -1    0    0  501    0  0.00000000000E+00  0.00000000000E+00  0.62190389686E+02  0.62190389686E+02  0.00000000000E+00 0. -1.
         -1   -1    0    0    0  501 -0.00000000000E+00 -0.00000000000E+00 -0.22764617885E+03  0.22764617885E+03  0.00000000000E+00 0.  1.
         25    2    1    2    0    0  0.25254932093E+02 -0.36581120872E+02 -0.90665783814E+02  0.16075899715E+03  0.12508869177E+03 0.  0.
          5    1    3    3  502    0  0.49514677300E+01  0.18950440458E+02  0.24253354404E+02  0.31453677465E+02  0.41800000000E+01 0.  1.
         -5    1    3    3    0  502  0.20303464363E+02 -0.55531561330E+02 -0.11491913822E+03  0.12930531968E+03  0.41800000000E+01 0.  1.
        -11    1    1    2    0    0  0.20498656688E+02  0.74700373288E+01  0.13359551998E+02  0.25582689720E+02  0.00000000000E+00 0. -1.
         11    1    1    2    0    0 -0.45753588782E+02  0.29111083543E+02 -0.88149557348E+02  0.10349488167E+03  0.00000000000E+00 0.  1.
</event>
<event>
 7    1  0.2601031E-009  0.1886890E+03  0.7561462E-02  0.1159649E+00
         -2   -1    0    0    0  501 -0.00000000000E+00  0.00000000000E+00  0.45731104049E+02  0.45731104049E+02  0.00000000000E+00 0.  1.
          2   -1    0    0  501    0  0.00000000000E+00 -0.00000000000E+00 -0.10242341398E+04  0.10242341398E+04  0.00000000000E+00 0. -1.
         25    2    1    2    0    0  0.23422938902E-02  0.16894396006E+03 -0.70706115629E+03  0.73764842624E+03  0.12509060856E+03 0.  0.
          5    1    3    3  502    0  0.41358909432E+02  0.65212939011E+02 -0.46045149691E+03  0.46690078198E+03  0.41800000000E+01 0. -1.
         -5    1    3    3    0  502 -0.41356567138E+02  0.10373102105E+03 -0.24660965938E+03  0.27074764426E+03  0.41800000000E+01 0. -1.
        -11    1    1    2    0    0 -0.36651005036E+02 -0.40044758402E+02 -0.10870250084E+03  0.12150354947E+03  0.00000000000E+00 0. -1.
         11    1    1    2    0    0  0.36648662742E+02 -0.12889920165E+03 -0.16273937860E+03  0.21081326812E+03  0.00000000000E+00 0.  1.
</event>
<event>
 7    1  0.2601031E-009  0.1035128E+03  0.7561462E-02  0.1273078E+00
          2   -1    0    0  501    0  0.00000000000E+00  0.00000000000E+00  0.43208681649E+02  0.43208681649E+02  0.00000000000E+00 0.  1.
         -2   -1    0    0    0  501 -0.00000000000E+00 -0.00000000000E+00 -0.57924147122E+03  0.57924147122E+03  0.00000000000E+00 0. -1.
         25    2    1    2    0    0  0.50177450453E+02 -0.36741741515E+02 -0.47938167255E+03  0.49932061265E+03  0.12508618683E+03 0.  0.
          5    1    3    3  502    0 -0.11679539699E+02 -0.60031345768E+02 -0.13013327258E+03  0.14384823654E+03  0.41800000000E+01 0.  1.
         -5    1    3    3    0  502  0.61856990152E+02  0.23289604253E+02 -0.34924839997E+03  0.35547237611E+03  0.41800000000E+01 0.  1.
        -11    1    1    2    0    0 -0.39580491332E+02 -0.17051190346E+01  0.13984767637E+02  0.42013050959E+02  0.00000000000E+00 0.  1.
         11    1    1    2    0    0 -0.10596959120E+02  0.38446860550E+02 -0.70635884659E+02  0.81116489263E+02  0.00000000000E+00 0. -1.
</event>
<event>
 7    1  0.2601031E-009  0.1122473E+03  0.7561462E-02  0.1256464E+00
          2   -1    0    0  501    0  0.00000000000E+00  0.00000000000E+00  0.10579693401E+03  0.10579693401E+03  0.00000000000E+00 0. -1.
         -2   -1    0    0    0  501 -0.00000000000E+00 -0.00000000000E+00 -0.16618715465E+03  0.16618715465E+03  0.00000000000E+00 0.  1.
         25    2    1    2    0    0 -0.53777894928E+02 -0.53469042700E+02 -0.30242664235E+02  0.14937771272E+03  0.12509229315E+03 0.  0.
          5    1    3    3  502    0 -0.54547656831E+02 -0.17618805842E+01 -0.66465086219E+02  0.86102445814E+02  0.41800000000E+01 0. -1.
         -5    1    3    3    0  502  0.76976190341E+00 -0.51707162115E+02  0.36222421984E+02  0.63275266904E+02  0.41800000000E+01 0. -1.
        -11    1    1    2    0    0  0.19062759887E+02 -0.25369842198E+02 -0.15159899038E+02  0.35168739621E+02  0.00000000000E+00 0.  1.
         11    1    1    2    0    0  0.34715135040E+02  0.78838884898E+02 -0.14987657363E+02  0.87437636324E+02  0.00000000000E+00 0. -1.
</event>
<event>
 7    1  0.2601031E-009  0.3290292E+03  0.7561462E-02  0.1071567E+00
         -2   -1    0    0    0  501 -0.00000000000E+00  0.00000000000E+00  0.15613002495E+04  0.15613002495E+04  0.00000000000E+00 0. -1.
          2   -1    0    0  501    0  0.00000000000E+00 -0.00000000000E+00 -0.85075552013E+02  0.85075552013E+02  0.00000000000E+00 0.  1.
         25    2    1    2    0    0  0.32049154945E+03  0.16227671609E+02  0.44665882611E+03  0.56402784271E+03  0.12508049338E+03 0.  0.
          5    1    3    3  502    0  0.13932923957E+03 -0.16346253106E+02  0.10276104606E+03  0.17394580184E+03  0.41800000000E+01 0. -1.
         -5    1    3    3    0  502  0.18116230987E+03  0.32573924716E+02  0.34389778004E+03  0.39008204087E+03  0.41800000000E+01 0. -1.
        -11    1    1    2    0    0 -0.23392748303E+03 -0.52489467089E+02  0.75935374716E+03  0.79630102650E+03  0.00000000000E+00 0. -1.
         11    1    1    2    0    0 -0.86564066418E+02  0.36261795480E+02  0.27021212426E+03  0.28604693234E+03  0.00000000000E+00 0.  1.
</event>
<event>
 7    1  0.2601031E-009  0.1498259E+03  0.7561462E-02  0.1200687E+00
         -2   -1    0    0    0  501 -0.00000000000E+00  0.00000000000E+00  0.45707321581E+03  0.45707321581E+03  0.00000000000E+00 0.  1.
          2   -1    0    0  501    0  0.00000000000E+00 -0.00000000000E+00 -0.62262836642E+02  0.62262836642E+02  0.00000000000E+00 0. -1.
         25    2    1    2    0    0  0.42695472288E+02  0.11729651013E+03  0.21428461277E+03  0.27775279097E+03  0.12508933998E+03 0.  0.
          5    1    3    3  502    0  0.47249606060E+01 -0.80820512617E+01  0.10941353866E+03  0.10989285531E+03  0.41800000000E+01 0.  1.
         -5    1    3    3    0  502  0.37970511682E+02  0.12537856139E+03  0.10487107410E+03  0.16785993566E+03  0.41800000000E+01 0.  1.
        -11    1    1    2    0    0  0.20937527580E+02  0.40369939368E+01  0.39960826982E+02  0.45293984968E+02  0.00000000000E+00 0.  1.
         11    1    1    2    0    0 -0.63632999868E+02 -0.12133350407E+03  0.14056493942E+03  0.19628927652E+03  0.00000000000E+00 0. -1.
</event>
<event>
 7    1  0.2601031E-009  0.9211103E+02  0.7561462E-02  0.1297819E+00
         -2   -1    0    0    0  501 -0.00000000000E+00  0.00000000000E+00  0.94978301748E+02  0.94978301748E+02  0.00000000000E+00 0.  1.
          2   -1    0    0  501    0  0.00000000000E+00 -0.00000000000E+00 -0.14895615635E+03  0.14895615635E+03  0.00000000000E+00 0. -1.
         25    2    1    2    0    0  0.17092275391E+02  0.47446762842E+02 -0.38467998516E+02  0.14025017731E+03  0.12508790566E+03 0.  0.
          5    1    3    3  502    0 -0.21510747323E+02  0.53214951300E+02 -0.69483067529E+02  0.90221462887E+02  0.41800000000E+01 0. -1.
         -5    1    3    3    0  502  0.38603022715E+02 -0.57681884584E+01  0.31015069013E+02  0.50028714422E+02  0.41800000000E+01 0. -1.
        -11    1    1    2    0    0 -0.19138515316E+02  0.15382793962E+02  0.19836312811E+02  0.31565684288E+02  0.00000000000E+00 0.  1.
         11    1    1    2    0    0  0.20462399249E+01 -0.62829556804E+02 -0.35346168902E+02  0.72118596506E+02  0.00000000000E+00 0. -1.
</event>
<event>
 7    1  0.2601031E-009  0.1080156E+03  0.7561462E-02  0.1264289E+00
          4   -1    0    0  501    0  0.00000000000E+00  0.00000000000E+00  0.37723290621E+02  0.37723290621E+02  0.00000000000E+00 0. -1.
         -4   -1    0    0    0  501 -0.00000000000E+00 -0.00000000000E+00 -0.42383952770E+03  0.42383952770E+03  0.00000000000E+00 0.  1.
         25    2    1    2    0    0 -0.55585282209E+02 -0.63219296737E+01 -0.14916033258E+03  0.20254347076E+03  0.12508142283E+03 0.  0.
          5    1    3    3  502    0 -0.17642740683E+02  0.47379138645E+02 -0.14712992570E+02  0.52820390267E+02  0.41800000000E+01 0. -1.
         -5    1    3    3    0  502 -0.37942541527E+02 -0.53701068319E+02 -0.13444734001E+03  0.14972308049E+03  0.41800000000E+01 0. -1.
        -11    1    1    2    0    0  0.70399541784E+02 -0.16406157621E+02 -0.13073338585E+03  0.14938699966E+03  0.00000000000E+00 0. -1.
         11    1    1    2    0    0 -0.14814259575E+02  0.22728087294E+02 -0.10622251865E+03  0.10963234791E+03  0.00000000000E+00 0.  1.
</event>
<event>
 7    1  0.2601031E-009  0.1251875E+03  0.7561462E-02  0.1234777E+00
          3   -1    0    0  501    0  0.00000000000E+00  0.00000000000E+00  0.13532661209E+03  0.13532661209E+03  0.00000000000E+00 0. -1.
         -3   -1    0    0    0  501 -0.00000000000E+00 -0.00000000000E+00 -0.17874891199E+03  0.17874891199E+03  0.00000000000E+00 0.  1.
         25    2    1    2    0    0 -0.55868436447E+02 -0.87382074401E+02  0.15453864767E+02  0.16322594368E+03  0.12508787965E+03 0.  0.
          5    1    3    3  502    0 -0.25227901787E+02  0.94640898369E+01 -0.39240123920E+02  0.47783634754E+02  0.41800000000E+01 0. -1.
         -5    1    3    3    0  502 -0.30640534660E+02 -0.96846164238E+02  0.54693988687E+02  0.11544230893E+03  0.41800000000E+01 0. -1.
        -11    1    1    2    0    0  0.70042133542E+02  0.70131708884E+02 -0.13179315606E+02  0.99990256635E+02  0.00000000000E+00 0. -1.
         11    1    1    2    0    0 -0.14173697095E+02  0.17250365517E+02 -0.45696849063E+02  0.50859323767E+02  0.00000000000E+00 0.  1.
</event>
<event>
 7    1  0.2601031E-009  0.1714920E+03  0.7561462E-02  0.1176301E+00
         -4   -1    0    0    0  501 -0.00000000000E+00  0.00000000000E+00  0.56037926633E+03  0.56037926633E+03  0.00000000000E+00 0.  1.
          4   -1    0    0  501    0  0.00000000000E+00 -0.00000000000E+00 -0.64155837015E+02  0.64155837015E+02  0.00000000000E+00 0. -1.
         25    2    1    2    0    0  0.10130138711E+03 -0.11373343247E+03  0.21412252115E+03  0.29102054227E+03  0.12508891743E+03 0.  0.
          5    1    3    3  502    0  0.12528888901E+03 -0.79541223537E+02  0.13141692405E+03  0.19827252023E+03  0.41800000000E+01 0. -1.
         -5    1    3    3    0  502 -0.23987501904E+02 -0.34192208929E+02  0.82705597106E+02  0.92748022036E+02  0.41800000000E+01 0. -1.
        -11    1    1    2    0    0 -0.61288766647E+02  0.62483871773E+02  0.24147215989E+03  0.25684499441E+03  0.00000000000E+00 0.  1.
         11    1    1    2    0    0 -0.40012620463E+02  0.51249560692E+02  0.40628748266E+02  0.76669566668E+02  0.00000000000E+00 0. -1.
</event>
<event>
 7    1  0.2601031E-009  0.1015634E+03  0.7561462E-02  0.1277042E+00
          1   -1    0    0  501    0  0.00000000000E+00  0.00000000000E+00  0.89274883173E+02  0.89274883173E+02  0.00000000000E+00 0.  1.
         -1   -1    0    0    0  501 -0.00000000000E+00 -0.00000000000E+00 -0.14461083728E+03  0.14461083728E+03  0.00000000000E+00 0. -1.
         25    2    1    2    0    0  0.22327196227E+02 -0.25196545573E+02 -0.26993739537E+02  0.13232924889E+03  0.12509595732E+03 0.  0.
          5    1    3    3  502    0  0.67417563097E+02 -0.11402863129E+02  0.13753218688E+02  0.69869711076E+02  0.41800000000E+01 0. -1.
         -5    1    3    3    0  502 -0.45090366870E+02 -0.13793682444E+02 -0.40746958225E+02  0.62459537818E+02  0.41800000000E+01 0. -1.
        -11    1    1    2    0    0 -0.43583574818E+02  0.41742840211E+02  0.27585735777E+01  0.60411939474E+02  0.00000000000E+00 0.  1.
         11    1    1    2    0    0  0.21256378591E+02 -0.16546294638E+02 -0.31100788146E+02  0.41144532083E+02  0.00000000000E+00 0. -1.
</event>
<event>
 7    1  0.2601031E-009  0.7955232E+02  0.7561462E-02  0.1330327E+00
          1   -1    0    0  501    0  0.00000000000E+00  0.00000000000E+00  0.52839688445E+03  0.52839688445E+03  0.00000000000E+00 0. -1.
         -1   -1    0    0    0  501 -0.00000000000E+00 -0.00000000000E+00 -0.26198649694E+02  0.26198649694E+02  0.00000000000E+00 0.  1.
         25    2    1    2    0    0  0.54532678214E+01 -0.20789805841E+02  0.39792595583E+03  0.41767690688E+03  0.12508788135E+03 0.  0.
          5    1    3    3  502    0  0.45256269264E+02  0.70902794470E+01  0.33458622994E+03  0.33773335583E+03  0.41800000000E+01 0. -1.
         -5    1    3    3    0  502 -0.39803001443E+02 -0.27880085288E+02  0.63339725889E+02  0.79943551055E+02  0.41800000000E+01 0. -1.
        -11    1    1    2    0    0  0.21306013772E+02 -0.10001193777E+02 -0.14678691344E+01  0.23582297165E+02  0.00000000000E+00 0.  1.
         11    1    1    2    0    0 -0.26759281593E+02  0.30790999618E+02  0.10574014806E+03  0.11333633010E+03  0.00000000000E+00 0. -1.
</event>
<event>
 7    1  0.2601031E-009  0.8708849E+02  0.7561462E-02  0.1310060E+00
          2   -1    0    0  501    0  0.00000000000E+00  0.00000000000E+00  0.57333327742E+02  0.57333327742E+02  0.00000000000E+00 0. -1.
         -2   -1    0    0    0  501 -0.00000000000E+00 -0.00000000000E+00 -0.26683313917E+03  0.26683313917E+03  0.00000000000E+00 0.  1.
         25    2    1    2    0    0 -0.21916685347E+02 -0.32402993573E+02 -0.18005672829E+03  0.22270888398E+03  0.12509407065E+03 0.  0.
          5    1    3    3  502    0  0.23879730301E+02 -0.27157443294E+02  0.40497048901E+00  0.36406107271E+02  0.41800000000E+01 0. -1.
         -5    1    3    3    0  502 -0.45796415649E+02 -0.52455502785E+01 -0.18046169878E+03  0.18630277671E+03  0.41800000000E+01 0. -1.
        -11    1    1    2    0    0  0.41839342101E+02 -0.11402281819E+02  0.29219200272E+01  0.43463550186E+02  0.00000000000E+00 0. -1.
         11    1    1    2    0    0 -0.19922656753E+02  0.43805275392E+02 -0.32365003169E+02  0.57994032748E+02  0.00000000000E+00 0.  1.
</event>
<event>
 7    1  0.2601031E-009  0.1118814E+03  0.7561462E-02  0.1257125E+00
          1   -1    0    0  501    0  0.00000000000E+00  0.00000000000E+00  0.13153129132E+03  0.13153129132E+03  0.00000000000E+00 0. -1.
         -1   -1    0    0    0  501 -0.00000000000E+00 -0.00000000000E+00 -0.15213055858E+03  0.15213055858E+03  0.00000000000E+00 0.  1.
         25    2    1    2    0    0 -0.51511196402E+02 -0.15997484443E+02 -0.84039169856E+02  0.16006049862E+03  0.12508980089E+03 0.  0.
          5    1    3    3  502    0 -0.20578768154E+01  0.51644736450E+02 -0.25696508036E+02  0.57872243651E+02  0.41800000000E+01 0.  1.
         -5    1    3    3    0  502 -0.49453319586E+02 -0.67642220894E+02 -0.58342661820E+02  0.10218825497E+03  0.41800000000E+01 0.  1.
        -11    1    1    2    0    0  0.29139414196E+02  0.43625340924E+02  0.69973463317E+02  0.87456054101E+02  0.00000000000E+00 0. -1.
         11    1    1    2    0    0  0.22371782206E+02 -0.27627856481E+02 -0.65335607165E+01  0.36145297183E+02  0.00000000000E+00 0.  1.
</event>
<event>
 7    1  0.2601031E-009  0.1072843E+03  0.7561462E-02  0.1265683E+00
          2   -1    0    0  501    0  0.00000000000E+00  0.00000000000E+00  0.16678498556E+03  0.16678498556E+03  0.00000000000E+00 0. -1.
         -2   -1    0    0    0  501 -0.00000000000E+00 -0.00000000000E+00 -0.75080736925E+02  0.75080736925E+02  0.00000000000E+00 0.  1.
         25    2    1    2    0    0  0.95993247637E+01 -0.25424376063E+02  0.44792772271E+02  0.13561536182E+03  0.12508632212E+03 0.  0.
          5    1    3    3  502    0  0.56657749821E+02 -0.42139253069E+02  0.47866452883E+02  0.85407768825E+02  0.41800000000E+01 0.  1.
         -5    1    3    3    0  502 -0.47058425058E+02  0.16714877006E+02 -0.30736806126E+01  0.50207592999E+02  0.41800000000E+01 0.  1.
        -11    1    1    2    0    0 -0.15771927067E+02 -0.32153559461E+02  0.86481325520E+01  0.36842845520E+02  0.00000000000E+00 0. -1.
         11    1    1    2    0    0  0.61726023029E+01  0.57577935524E+02  0.38263343814E+02  0.69407515142E+02  0.00000000000E+00 0.  1.
</event>
<event>
 7    1  0.2601031E-009  0.8804449E+02  0.7561462E-02  0.1307658E+00
          1   -1    0    0  501    0  0.00000000000E+00  0.00000000000E+00  0.59522757998E+02  0.59522757998E+02  0.00000000000E+00 0. -1.
         -1   -1    0    0    0  501 -0.00000000000E+00 -0.00000000000E+00 -0.22038492434E+03  0.22038492434E+03  0.00000000000E+00 0.  1.
         25    2    1    2    0    0 -0.20327021603E+02 -0.20830327619E+02 -0.63349294333E+02  0.14320554419E+03  0.12509038508E+03 0.  0.
          5    1    3    3  502    0  0.36080131666E+02 -0.37608755712E+02 -0.65937135703E+02  0.84150892283E+02  0.41800000000E+01 0. -1.
         -5    1    3    3    0  502 -0.56407153269E+02  0.16778428092E+02  0.25878413704E+01  0.59054651909E+02  0.41800000000E+01 0. -1.
        -11    1    1    2    0    0 -0.16046414644E+02 -0.84288288430E+01 -0.86978702873E+02  0.88847213418E+02  0.00000000000E+00 0.  1.
         11    1    1    2    0    0  0.36373436246E+02  0.29259156462E+02 -0.10534169134E+02  0.47854924727E+02  0.00000000000E+00 0. -1.
</event>
<event>
 7    1  0.2601031E-009  0.8913355E+02  0.7561462E-02  0.1304964E+00
          2   -1    0    0  501    0  0.00000000000E+00  0.00000000000E+00  0.91318813325E+03  0.91318813325E+03  0.00000000000E+00 0. -1.
         -2   -1    0    0    0  501 -0.00000000000E+00 -0.00000000000E+00 -0.16582521509E+02  0.16582521509E+02  0.00000000000E+00 0.  1.
         25    2    1    2    0    0 -0.16301366681E+02  0.31697582772E+02  0.67716428499E+03  0.68954269753E+03  0.12508873469E+03 0.  0.
          5    1    3    3  502    0  0.20148008244E+02  0.51843394987E+02  0.13929732085E+03  0.15004964457E+03  0.41800000000E+01 0. -1.
         -5    1    3    3    0  502 -0.36449374925E+02 -0.20145812214E+02  0.53786696414E+03  0.53949305296E+03  0.41800000000E+01 0. -1.
        -11    1    1    2    0    0  0.44114866086E+02 -0.28768946484E+02  0.19828454994E+03  0.20515978270E+03  0.00000000000E+00 0. -1.
         11    1    1    2    0    0 -0.27813499405E+02 -0.29286362888E+01  0.21156776808E+02  0.35068174526E+02  0.00000000000E+00 0.  1.
</event>
<event>
 7    1  0.2601031E-009  0.5287424E+03  0.7561462E-02  0.1006538E+00
         -2   -1    0    0    0  501 -0.00000000000E+00  0.00000000000E+00  0.30875869640E+03  0.30875869640E+03  0.00000000000E+00 0.  1.
          2   -1    0    0  501    0  0.00000000000E+00 -0.00000000000E+00 -0.94111361552E+03  0.94111361552E+03  0.00000000000E+00 0. -1.
         25    2    1    2    0    0 -0.98540796218E+02 -0.51230089769E+03 -0.22494412085E+03  0.58173029425E+03  0.12509108462E+03 0.  0.
          5    1    3    3  502    0 -0.32486713025E+02 -0.37385209953E+03 -0.11348435716E+03  0.39206753317E+03  0.41800000000E+01 0.  1.
         -5    1    3    3    0  502 -0.66054083193E+02 -0.13844879815E+03 -0.11145976369E+03  0.18966276108E+03  0.41800000000E+01 0.  1.
        -11    1    1    2    0    0  0.48958779109E+02  0.42914715418E+03 -0.34673616278E+03  0.55388645819E+03  0.00000000000E+00 0.  1.
         11    1    1    2    0    0  0.49582017109E+02  0.83153743508E+02 -0.60674635495E+02  0.11425555948E+03  0.00000000000E+00 0. -1.
</event>
<event>
 7    1  0.2601031E-009  0.2968187E+03  0.7561462E-02  0.1086842E+00
          2   -1    0    0  501    0  0.00000000000E+00  0.00000000000E+00  0.54563650658E+03  0.54563650658E+03  0.00000000000E+00 0. -1.
         -2   -1    0    0    0  501 -0.00000000000E+00 -0.00000000000E+00 -0.17487091941E+03  0.17487091941E+03  0.00000000000E+00 0.  1.
         25    2    1    2    0    0 -0.25959534232E+03  0.12400144158E+03  0.22174852302E+03  0.38416918629E+03  0.12508979559E+03 0.  0.
          5    1    3    3  502    0 -0.23753308505E+03  0.12795067035E+03  0.23498064365E+03  0.35780821096E+03  0.41800000000E+01 0.  1.
         -5    1    3    3    0  502 -0.22062257272E+02 -0.39492287654E+01 -0.13232120637E+02  0.26360975330E+02  0.41800000000E+01 0.  1.
        -11    1    1    2    0    0  0.15386112323E+03 -0.24475004010E+02  0.87003804270E+02  0.17844308062E+03  0.00000000000E+00 0.  1.
         11    1    1    2    0    0  0.10573421909E+03 -0.99526437570E+02  0.62013259882E+02  0.15789515909E+03  0.00000000000E+00 0. -1.
</event>
<event>
 7    1  0.2601031E-009  0.1405176E+03  0.7561462E-02  0.1212634E+00
         -2   -1    0    0    0  501 -0.00000000000E+00  0.00000000000E+00  0.13616141661E+03  0.13616141661E+03  0.00000000000E+00 0. -1.
          2   -1    0    0  501    0  0.00000000000E+00 -0.00000000000E+00 -0.17407193597E+03  0.17407193597E+03  0.00000000000E+00 0.  1.
         25    2    1    2    0    0 -0.78617428918E+02 -0.46145095532E+02 -0.78560789982E+02  0.17357797746E+03  0.12508975404E+03 0.  0.
          5    1    3    3  502    0 -0.25007624949E+02 -0.84486156437E+02 -0.52000031427E+02  0.10239515420E+03  0.41800000000E+01 0. -1.
         -5    1    3    3    0  502 -0.53609803970E+02  0.38341060904E+02 -0.26560758555E+02  0.71182823265E+02  0.41800000000E+01 0. -1.
        -11    1    1    2    0    0  0.55926691257E+02 -0.17994039869E+02  0.28367010356E+01  0.58818595177E+02  0.00000000000E+00 0.  1.
         11    1    1    2    0    0  0.22690737661E+02  0.64139135402E+02  0.37813569590E+02  0.77836779936E+02  0.00000000000E+00 0. -1.
</event>
<event>
 7    1  0.2601031E-009  0.8144701E+02  0.7561462E-02  0.1324994E+00
         -1   -1    0    0    0  501 -0.00000000000E+00  0.00000000000E+00  0.84369340787E+02  0.84369340787E+02  0.00000000000E+00 0.  1.
          1   -1    0    0  501    0  0.00000000000E+00 -0.00000000000E+00 -0.14152904942E+03  0.14152904942E+03  0.00000000000E+00 0. -1.
         25    2    1    2    0    0  0.17847247688E+02 -0.25691506487E+02 -0.34888911189E+02  0.13357930298E+03  0.12509043251E+03 0.  0.
          5    1    3    3  502    0  0.66473990905E+02 -0.18789433243E+02 -0.45938710847E+02  0.83064263210E+02  0.41800000000E+01 0.  1.
         -5    1    3    3    0  502 -0.48626743217E+02 -0.69020732441E+01  0.11049799658E+02  0.50515039774E+02  0.41800000000E+01 0.  1.
        -11    1    1    2    0    0 -0.23314392307E+02  0.61588519763E+01 -0.51427931480E+02  0.56800743680E+02  0.00000000000E+00 0. -1.
         11    1    1    2    0    0  0.54671446190E+01  0.19532654511E+02  0.29157134038E+02  0.35518343540E+02  0.00000000000E+00 0.  1.
</event>
<event>
 7    1  0.2601031E-009  0.1323280E+03  0.7561462E-02  0.1224042E+00
         -1   -1    0    0    0  501 -0.00000000000E+00  0.00000000000E+00  0.78071725056E+02  0.78071725056E+02  0.00000000000E+00 0.  1.
          1   -1    0    0  501    0  0.00000000000E+00 -0.00000000000E+00 -0.34176319229E+03  0.34176319229E+03  0.00000000000E+00 0. -1.
         25    2    1    2    0    0 -0.38531513977E+02 -0.10514927619E+03 -0.77962338757E+02  0.18511242116E+03  0.12508970522E+03 0.  0.
          5    1    3    3  502    0  0.19723230898E+02 -0.74578254508E+02  0.70036816227E+01  0.77572197589E+02  0.41800000000E+01 0.  1.
         -5    1    3    3    0  502 -0.58254744875E+02 -0.30571021679E+02 -0.84966020380E+02  0.10754022357E+03  0.41800000000E+01 0.  1.
        -11    1    1    2    0    0  0.13172172945E+02  0.91952670949E+02 -0.72203082559E+02  0.11765239040E+03  0.00000000000E+00 0.  1.
         11    1    1    2    0    0  0.25359341032E+02  0.13196605238E+02 -0.11352604592E+03  0.11707010579E+03  0.00000000000E+00 0. -1.
</event>
<event>
 7    1  0.2601031E-009  0.1064826E+03  0.7561462E-02  0.1267226E+00
         -2   -1    0    0    0  501 -0.00000000000E+00  0.00000000000E+00  0.22160871218E+02  0.22160871218E+02  0.00000000000E+00 0.  1.
          2   -1    0    0  501    0  0.00000000000E+00 -0.00000000000E+00 -0.59912418120E+03  0.59912418120E+03  0.00000000000E+00 0. -1.
         25    2    1    2    0    0 -0.42073514401E+01 -0.38240448472E+02 -0.36031724055E+03  0.38334856548E+03  0.12509026788E+03 0.  0.
          5    1    3    3  502    0  0.66044964772E+01 -0.79698209790E+02 -0.16582003127E+03  0.18414445196E+03  0.41800000000E+01 0.  1.
         -5    1    3    3    0  502 -0.10811847917E+02  0.41457761318E+02 -0.19449720927E+03  0.19920411352E+03  0.41800000000E+01 0.  1.
        -11    1    1    2    0    0  0.15840597631E+02  0.61673293965E+02 -0.19086575832E+03  0.20120700142E+03  0.00000000000E+00 0.  1.
         11    1    1    2    0    0 -0.11633246191E+02 -0.23432845493E+02 -0.25780311122E+02  0.36729485518E+02  0.00000000000E+00 0. -1.
</event>
<event>
 7    1  0.2601031E-009  0.1086685E+03  0.7561462E-02  0.1263056E+00
         -1   -1    0    0    0  501 -0.00000000000E+00  0.00000000000E+00  0.92690320064E+02  0.92690320064E+02  0.00000000000E+00 0.  1.
          1   -1    0    0  501    0  0.00000000000E+00 -0.00000000000E+00 -0.15238484403E+03  0.15238484403E+03  0.00000000000E+00 0. -1.
         25    2    1    2    0    0 -0.39730206307E+02 -0.79203819552E+01 -0.39477224420E+01  0.13154570165E+03  0.12508982919E+03 0.  0.
          5    1    3    3  502    0 -0.78948748947E+02  0.20525257018E+02  0.60361841513E+01  0.81902985629E+02  0.41800000000E+01 0.  1.
         -5    1    3    3    0  502  0.39218542639E+02 -0.28445638973E+02 -0.99839065933E+01  0.49642716024E+02  0.41800000000E+01 0.  1.
        -11    1    1    2    0    0 -0.20521489446E+02 -0.11749817565E+02 -0.42712872715E+02  0.48821913496E+02  0.00000000000E+00 0. -1.
         11    1    1    2    0    0  0.60251695753E+02  0.19670199521E+02 -0.13033928811E+02  0.64707548946E+02  0.00000000000E+00 0.  1.
</event>
<event>
 7    1  0.2601031E-009  0.1918205E+03  0.7561462E-02  0.1156829E+00
         -1   -1    0    0    0  501 -0.00000000000E+00  0.00000000000E+00  0.73683339642E+03  0.73683339642E+03  0.00000000000E+00 0.  1.
          1   -1    0    0  501    0  0.00000000000E+00 -0.00000000000E+00 -0.53890943248E+02  0.53890943248E+02  0.00000000000E+00 0. -1.
         25    2    1    2    0    0 -0.84383545492E+02 -0.13991909458E+03  0.33140321406E+03  0.39009462056E+03  0.12509111449E+03 0.  0.
          5    1    3    3  502    0 -0.54878254085E+02  0.62840472900E+01  0.10912961330E+03  0.12238405501E+03  0.41800000000E+01 0.  1.
         -5    1    3    3    0  502 -0.29505291407E+02 -0.14620314187E+03  0.22227360076E+03  0.26771056555E+03  0.41800000000E+01 0.  1.
        -11    1    1    2    0    0  0.97347274632E+02  0.11293168386E+03  0.33439608176E+03  0.36612948064E+03  0.00000000000E+00 0.  1.
         11    1    1    2    0    0 -0.12963729140E+02  0.26987410713E+02  0.17143157354E+02  0.34500238467E+02  0.00000000000E+00 0. -1.
</event>
<event>
 7    1  0.2601031E-009  0.3354364E+03  0.7561462E-02  0.1068756E+00
          2   -1    0    0  501    0  0.00000000000E+00  0.00000000000E+00  0.50486245700E+03  0.50486245700E+03  0.00000000000E+00 0. -1.
         -2   -1    0    0    0  501 -0.00000000000E+00 -0.00000000000E+00 -0.27369361521E+03  0.27369361521E+03  0.00000000000E+00 0.  1.
         25    2    1    2    0    0  0.36987840248E+01 -0.31891033120E+03  0.28014574230E+03  0.44254541636E+03  0.12508928116E+03 0.  0.
          5    1    3    3  502    0  0.47416076777E+02 -0.46720249279E+02  0.60307638018E+02  0.89919684346E+02  0.41800000000E+01 0.  1.
         -5    1    3    3    0  502 -0.43717292752E+02 -0.27219008192E+03  0.21983810428E+03  0.35262573201E+03  0.41800000000E+01 0.  1.
        -11    1    1    2    0    0 -0.40764295034E+02  0.19048583563E+03 -0.35343533894E+01  0.19483088302E+03  0.00000000000E+00 0. -1.
         11    1    1    2    0    0  0.37065511009E+02  0.12842449557E+03 -0.45442547120E+02  0.14117977283E+03  0.00000000000E+00 0.  1.
</event>
<event>
 7    1  0.2601031E-009  0.4595532E+02  0.7561462E-02  0.1468464E+00
         -1   -1    0    0    0  501 -0.00000000000E+00  0.00000000000E+00  0.55304589732E+02  0.55304589732E+02  0.00000000000E+00 0.  1.
          1   -1    0    0  501    0  0.00000000000E+00 -0.00000000000E+00 -0.21761585709E+03  0.21761585709E+03  0.00000000000E+00 0. -1.
         25    2    1    2    0    0 -0.47837627935E+01  0.81063587998E+01 -0.76712775271E+02  0.14703847943E+03  0.12508743783E+03 0.  0.
          5    1    3    3  502    0 -0.29691319961E+01  0.85925841461E+01  0.34402827427E+02  0.35828413056E+02  0.41800000000E+01 0. -1.
         -5    1    3    3    0  502 -0.18146307974E+01 -0.48622534630E+00 -0.11111560270E+03  0.11121006637E+03  0.41800000000E+01 0. -1.
        -11    1    1    2    0    0 -0.18258059271E+01  0.34327649966E+02 -0.73693092120E+02  0.81316621583E+02  0.00000000000E+00 0. -1.
         11    1    1    2    0    0  0.66095687206E+01 -0.42434008766E+02 -0.11905399966E+02  0.44565345807E+02  0.00000000000E+00 0.  1.
</event>
<event>
 7    1  0.2601031E-009  0.1516826E+03  0.7561462E-02  0.1198420E+00
         -2   -1    0    0    0  501 -0.00000000000E+00  0.00000000000E+00  0.45939899331E+02  0.45939899331E+02  0.00000000000E+00 0.  1.
          2   -1    0    0  501    0  0.00000000000E+00 -0.00000000000E+00 -0.65175968364E+03  0.65175968364E+03  0.00000000000E+00 0. -1.
         25    2    1    2    0    0  0.42245411364E+02  0.98224350645E+02 -0.48160747473E+03  0.50894625391E+03  0.12509129390E+03 0.  0.
          5    1    3    3  502    0 -0.10512442163E+01  0.11550049070E+03 -0.37759888682E+03  0.39489221339E+03  0.41800000000E+01 0.  1.
         -5    1    3    3    0  502  0.43296655581E+02 -0.17276140057E+02 -0.10400858791E+03  0.11405404052E+03  0.41800000000E+01 0.  1.
        -11    1    1    2    0    0 -0.70485488485E+02 -0.55251065242E+02 -0.90141867241E+02  0.12706864494E+03  0.00000000000E+00 0.  1.
         11    1    1    2    0    0  0.28240077121E+02 -0.42973285403E+02 -0.34070442336E+02  0.61684684120E+02  0.00000000000E+00 0. -1.
</event>
<event>
 7    1  0.2601031E-009  0.7931627E+02  0.7561462E-02  0.1331003E+00
         -1   -1    0    0    0  501 -0.00000000000E+00  0.00000000000E+00  0.61482622468E+02  0.61482622468E+02  0.00000000000E+00 0.  1.
          1   -1    0    0  501    0  0.00000000000E+00 -0.00000000000E+00 -0.25374049312E+03  0.25374049312E+03  0.00000000000E+00 0. -1.
         25    2    1    2    0    0  0.50828558836E+02  0.32050707423E+02 -0.12694697367E+03  0.18807892204E+03  0.12508939424E+03 0.  0.
          5    1    3    3  502    0  0.79167091634E+01  0.25036029246E+02 -0.13998900182E+03  0.14249164914E+03  0.41800000000E+01 0. -1.
         -5    1    3    3    0  502  0.42911849672E+02  0.70146781775E+01  0.13042028146E+02  0.45587272899E+02  0.41800000000E+01 0. -1.
        -11    1    1    2    0    0 -0.30961322146E+02  0.17084648160E+02 -0.65167919953E+02  0.74144092569E+02  0.00000000000E+00 0. -1.
         11    1    1    2    0    0 -0.19867236690E+02 -0.49135355583E+02 -0.14297703060E+00  0.53000100985E+02  0.00000000000E+00 0.  1.
</event>
<event>
 7    1  0.3471405E-009  0.1086455E+03  0.7561462E-02  0.1263099E+00
         -1   -1    0    0    0  501 -0.00000000000E+00  0.00000000000E+00  0.74799633667E+02  0.74799633667E+02  0.00000000000E+00 0.  1.
          1   -1    0    0  501    0  0.00000000000E+00 -0.00000000000E+00 -0.25656603392E+03  0.25656603392E+03  0.00000000000E+00 0. -1.
         25    2    1    2    0    0 -0.18585220411E+02 -0.61822063490E+02 -0.16734172305E+03  0.21867126342E+03  0.12508593534E+03 0.  0.
          5    1    3    3  502    0  0.53012278840E+02 -0.20989202397E+02 -0.55513918202E+02  0.79687614089E+02  0.41800000000E+01 0.  1.
         -5    1    3    3    0  502 -0.71597499251E+02 -0.40832861093E+02 -0.11182780485E+03  0.13898364933E+03  0.41800000000E+01 0.  1.
        -11    1    1    2    0    0 -0.26793686975E+01  0.55279867348E+02 -0.47431887993E+02  0.72889140133E+02  0.00000000000E+00 0. -1.
         11    1    1    2    0    0  0.21264589108E+02  0.65421961416E+01  0.33007210793E+02  0.39805264032E+02  0.00000000000E+00 0.  1.
</event>
<event>
 7    1  0.2601031E-009  0.8057412E+02  0.7561462E-02  0.1327430E+00
         -2   -1    0    0    0  501 -0.00000000000E+00  0.00000000000E+00  0.11148776949E+03  0.11148776949E+03  0.00000000000E+00 0. -1.
          2   -1    0    0  501    0  0.00000000000E+00 -0.00000000000E+00 -0.13081678534E+03  0.13081678534E+03  0.00000000000E+00 0.  1.
         25    2    1    2    0    0  0.19232221934E+02 -0.13607369532E+02 -0.52414011182E+02  0.13765992708E+03  0.12509191856E+03 0.  0.
          5    1    3    3  502    0  0.45643732936E+02 -0.51602383304E+02 -0.19241248191E+01  0.69045861392E+02  0.41800000000E+01 0.  1.
         -5    1    3    3    0  502 -0.26411511002E+02  0.37995013772E+02 -0.50489886363E+02  0.68614065686E+02  0.41800000000E+01 0.  1.
        -11    1    1    2    0    0  0.12109424131E+02  0.54665951293E+01 -0.30511527373E+02  0.33278748741E+02  0.00000000000E+00 0.  1.
         11    1    1    2    0    0 -0.31341646065E+02  0.81407744032E+01  0.63596522712E+02  0.71365879011E+02  0.00000000000E+00 0. -1.
</event>
<event>
 7    1  0.2601031E-009  0.2248457E+03  0.7561462E-02  0.1130321E+00
          1   -1    0    0  501    0  0.00000000000E+00  0.00000000000E+00  0.10161474311E+04  0.10161474311E+04  0.00000000000E+00 0. -1.
         -1   -1    0    0    0  501 -0.00000000000E+00 -0.00000000000E+00 -0.16375190317E+03  0.16375190317E+03  0.00000000000E+00 0.  1.
         25    2    1    2    0    0 -0.12502960248E+03 -0.17431735370E+03 -0.45265807017E+02  0.25241961872E+03  0.12509088429E+03 0.  0.
          5    1    3    3  502    0 -0.64030231917E+02 -0.11372722530E+03 -0.86847281755E+02  0.15682370714E+03  0.41800000000E+01 0.  1.
         -5    1    3    3    0  502 -0.60999370562E+02 -0.60590128405E+02  0.41581474737E+02  0.95595911578E+02  0.41800000000E+01 0.  1.
        -11    1    1    2    0    0  0.11990000454E+03  0.93485866741E+02  0.56473776319E+03  0.58484558607E+03  0.00000000000E+00 0.  1.
         11    1    1    2    0    0  0.51295979349E+01  0.80831486961E+02  0.33292357171E+03  0.34263412944E+03  0.00000000000E+00 0. -1.
</event>
<event>
 7    1  0.2601031E-009  0.1106369E+03  0.7561462E-02  0.1259395E+00
         -2   -1    0    0    0  501 -0.00000000000E+00  0.00000000000E+00  0.54520844435E+03  0.54520844435E+03  0.00000000000E+00 0.  1.
          2   -1    0    0  501    0  0.00000000000E+00 -0.00000000000E+00 -0.24477923779E+02  0.24477923779E+02  0.00000000000E+00 0. -1.
         25    2    1    2    0    0  0.13116449074E+02 -0.36609824807E+02  0.31869270263E+03  0.34456526209E+03  0.12509140908E+03 0.  0.
          5    1    3    3  502    0  0.42526724699E+02  0.29229509666E+02  0.80929290278E+02  0.96072415260E+02  0.41800000000E+01 0. -1.
         -5    1    3    3    0  502 -0.29410275625E+02 -0.65839334473E+02  0.23776341235E+03  0.24849284683E+03  0.41800000000E+01 0. -1.
        -11    1    1    2    0    0 -0.34875525323E+02 -0.17449352050E+02  0.59609014946E+02  0.71232133314E+02  0.00000000000E+00 0. -1.
         11    1    1    2    0    0  0.21759076249E+02  0.54059176858E+02  0.14242880300E+03  0.15388897273E+03  0.00000000000E+00 0.  1.
</event>
<event>
 7    1  0.2601031E-009  0.1094991E+03  0.7561462E-02  0.1261500E+00
          1   -1    0    0  501    0  0.00000000000E+00  0.00000000000E+00  0.12800497512E+02  0.12800497512E+02  0.00000000000E+00 0. -1.
         -1   -1    0    0    0  501 -0.00000000000E+00 -0.00000000000E+00 -0.10437489812E+04  0.10437489812E+04  0.00000000000E+00 0.  1.
         25    2    1    2    0    0  0.29218272869E+02 -0.74710171349E+01 -0.72029675505E+03  0.73169964591E+03  0.12508969952E+03 0.  0.
          5    1    3    3  502    0 -0.25401857779E+02 -0.50594209727E+02 -0.39138780578E+03  0.39548314167E+03  0.41800000000E+01 0.  1.
         -5    1    3    3    0  502  0.54620130649E+02  0.43123192592E+02 -0.32890894927E+03  0.33621650424E+03  0.41800000000E+01 0.  1.
        -11    1    1    2    0    0 -0.53159764025E+02  0.28791262137E+02 -0.16540139278E+03  0.17610371382E+03  0.00000000000E+00 0.  1.
         11    1    1    2    0    0  0.23941491155E+02 -0.21320245002E+02 -0.14525033591E+03  0.14874611903E+03  0.00000000000E+00 0. -1.
</event>
<event>
 7    1  0.2601031E-009  0.8798433E+02  0.7561462E-02  0.1307808E+00
         -2   -1    0    0    0  501 -0.00000000000E+00  0.00000000000E+00  0.54860072515E+02  0.54860072515E+02  0.00000000000E+00 0.  1.
          2   -1    0    0  501    0  0.00000000000E+00 -0.00000000000E+00 -0.27281911472E+03  0.27281911472E+03  0.00000000000E+00 0. -1.
         25    2    1    2    0    0  0.15119799281E+02  0.37950961424E+02 -0.17422238673E+03  0.21833442821E+03  0.12509036214E+03 0.  0.
          5    1    3    3  502    0 -0.20406865141E+02  0.51254993094E+02 -0.17135035720E+03  0.18006091129E+03  0.41800000000E+01 0. -1.
         -5    1    3    3    0  502  0.35526664422E+02 -0.13304031670E+02 -0.28720295292E+01  0.38273516917E+02  0.41800000000E+01 0. -1.
        -11    1    1    2    0    0 -0.32098373440E+02  0.83452711369E+01 -0.49620381005E+02  0.59683593550E+02  0.00000000000E+00 0. -1.
         11    1    1    2    0    0  0.16978574160E+02 -0.46296232561E+02  0.58837255354E+01  0.49661165472E+02  0.00000000000E+00 0.  1.
</event>
<event>
 7    1  0.2601031E-009  0.1916195E+03  0.7561462E-02  0.1157009E+00
          1   -1    0    0  501    0  0.00000000000E+00  0.00000000000E+00  0.74362617169E+03  0.74362617169E+03  0.00000000000E+00 0.  1.
         -1   -1    0    0    0  501 -0.00000000000E+00 -0.00000000000E+00 -0.86547893002E+02  0.86547893002E+02  0.00000000000E+00 0. -1.
         25    2    1    2    0    0 -0.58906286885E+02 -0.15955252094E+03  0.59043026485E+03  0.62704386265E+03  0.12509656455E+03 0.  0.
          5    1    3    3  502    0 -0.92234303329E+02 -0.75802135721E+02  0.29964891428E+03  0.32258343838E+03  0.41800000000E+01 0. -1.
         -5    1    3    3    0  502  0.33328016444E+02 -0.83750385217E+02  0.29078135057E+03  0.30446042426E+03  0.41800000000E+01 0. -1.
        -11    1    1    2    0    0  0.37488664439E+02  0.53354092749E+02 -0.15673849012E+02  0.67065108047E+02  0.00000000000E+00 0.  1.
         11    1    1    2    0    0  0.21417622446E+02  0.10619842819E+03  0.82321862852E+02  0.13606509400E+03  0.00000000000E+00 0. -1.
</event>
<event>
 7    1  0.2601031E-009  0.1027277E+03  0.7561462E-02  0.1274662E+00
          1   -1    0    0  501    0  0.00000000000E+00  0.00000000000E+00  0.47337356018E+03  0.47337356018E+03  0.00000000000E+00 0. -1.
         -1   -1    0    0    0  501 -0.00000000000E+00 -0.00000000000E+00 -0.27444251745E+02  0.27444251745E+02  0.00000000000E+00 0.  1.
         25    2    1    2    0    0  0.15326673847E+02 -0.11508444822E+02  0.18918869888E+03  0.22761408626E+03  0.12509379380E+03 0.  0.
          5    1    3    3  502    0 -0.42175040664E+02 -0.31377326292E+02  0.13889659320E+03  0.14856987131E+03  0.41800000000E+01 0.  1.
         -5    1    3    3    0  502  0.57501714511E+02  0.19868881470E+02  0.50292105685E+02  0.79044214948E+02  0.41800000000E+01 0.  1.
        -11    1    1    2    0    0 -0.40544324482E+02 -0.24805279379E+02  0.15850233037E+03  0.16547547512E+03  0.00000000000E+00 0. -1.
         11    1    1    2    0    0  0.25217650635E+02  0.36313724201E+02  0.98238279188E+02  0.10772825055E+03  0.00000000000E+00 0.  1.
</event>
<event>
 7    1  0.2601031E-009  0.2831420E+03  0.7561462E-02  0.1093985E+00
          2   -1    0    0  501    0  0.00000000000E+00  0.00000000000E+00  0.96910698649E+03  0.96910698649E+03  0.00000000000E+00 0. -1.
         -2   -1    0    0    0  501 -0.00000000000E+00 -0.00000000000E+00 -0.15412147040E+03  0.15412147040E+03  0.00000000000E+00 0.  1.
         25    2    1    2    0    0 -0.23148724134E+03 -0.14263879833E+03  0.46569058855E+02  0.30289619286E+03  0.12508100062E+03 0.  0.
          5    1    3    3  502    0 -0.13794229464E+03 -0.14091257152E+03  0.64553479258E+02  0.20753084963E+03  0.41800000000E+01 0. -1.
         -5    1    3    3    0  502 -0.93544946706E+02 -0.17262268043E+01 -0.17984420403E+02  0.95365343235E+02  0.41800000000E+01 0. -1.
        -11    1    1    2    0    0  0.13049476312E+03  0.54753097103E+02  0.51033467190E+03  0.52959254356E+03  0.00000000000E+00 0. -1.
         11    1    1    2    0    0  0.10099247823E+03  0.87885701225E+02  0.25808178533E+03  0.29073972047E+03  0.00000000000E+00 0.  1.
</event>
<event>
 7    1  0.2601031E-009  0.1040247E+03  0.7561462E-02  0.1272053E+00
         -2   -1    0    0    0  501 -0.00000000000E+00  0.00000000000E+00  0.25472982238E+02  0.25472982238E+02  0.00000000000E+00 0.  1.
          2   -1    0    0  501    0  0.00000000000E+00 -0.00000000000E+00 -0.59018666007E+03  0.59018666007E+03  0.00000000000E+00 0. -1.
         25    2    1    2    0    0  0.52412002194E+02 -0.14448325280E+02 -0.26352189307E+03  0.29672835021E+03  0.12509258018E+03 0.  0.
          5    1    3    3  502    0 -0.30138778615E+02 -0.28349227009E+02 -0.38770244451E+02  0.56856212529E+02  0.41800000000E+01 0.  1.
         -5    1    3    3    0  502  0.82550780809E+02  0.13900901729E+02 -0.22475164862E+03  0.23987213768E+03  0.41800000000E+01 0.  1.
        -11    1    1    2    0    0 -0.16916756090E+02 -0.24612498021E+02 -0.28856996026E+02  0.41529241687E+02  0.00000000000E+00 0.  1.
         11    1    1    2    0    0 -0.35495246104E+02  0.39060823301E+02 -0.27233478874E+03  0.27740205041E+03  0.00000000000E+00 0. -1.
</event>
<event>
 7    1  0.2601031E-009  0.2022990E+03  0.7561462E-02  0.1147814E+00
         -2   -1    0    0    0  501 -0.00000000000E+00  0.00000000000E+00  0.10974577114E+03  0.10974577114E+03  0.00000000000E+00 0.  1.
          2   -1    0    0  501    0  0.00000000000E+00 -0.00000000000E+00 -0.42014321675E+03  0.42014321675E+03  0.00000000000E+00 0. -1.
         25    2    1    2    0    0  0.16724006313E+03  0.51775024751E+02 -0.21232297918E+03  0.30228997514E+03  0.12509312402E+03 0.  0.
          5    1    3    3  502    0  0.17472130054E+03  0.31997703492E+02 -0.13819723071E+03  0.22509405338E+03  0.41800000000E+01 0.  1.
         -5    1    3    3    0  502 -0.74812374137E+01  0.19777321259E+02 -0.74125748465E+02  0.77195921750E+02  0.41800000000E+01 0.  1.
        -11    1    1    2    0    0 -0.11266695677E+02 -0.48046310469E+02 -0.22330020995E+02  0.54166559969E+02  0.00000000000E+00 0.  1.
         11    1    1    2    0    0 -0.15597336745E+03 -0.37287142818E+01 -0.75744445443E+02  0.17343245279E+03  0.00000000000E+00 0. -1.
</event>
<event>
 7    1  0.2601031E-009  0.1445638E+03  0.7561462E-02  0.1207317E+00
         -2   -1    0    0    0  501 -0.00000000000E+00  0.00000000000E+00  0.11946812612E+02  0.11946812612E+02  0.00000000000E+00 0.  1.
          2   -1    0    0  501    0  0.00000000000E+00 -0.00000000000E+00 -0.22088043756E+04  0.22088043756E+04  0.00000000000E+00 0. -1.
         25    2    1    2    0    0  0.79094780010E+02 -0.63321668017E+02 -0.16378891930E+04  0.16457808599E+04  0.12509201505E+03 0.  0.
          5    1    3    3  502    0  0.11230167462E+03 -0.49915663933E+02 -0.11480517718E+04  0.11546183710E+04  0.41800000000E+01 0.  1.
         -5    1    3    3    0  502 -0.33206894614E+02 -0.13406004084E+02 -0.48983742122E+03  0.49116248881E+03  0.41800000000E+01 0.  1.
        -11    1    1    2    0    0  0.12345441830E+02  0.30586783087E+02 -0.85470596969E+02  0.91614323006E+02  0.00000000000E+00 0.  1.
         11    1    1    2    0    0 -0.91440221840E+02  0.32734884930E+02 -0.47349777299E+03  0.48335600533E+03  0.00000000000E+00 0. -1.
</event>
<event>
 7    1  0.2601031E-009  0.1065788E+03  0.7561462E-02  0.1267040E+00
          1   -1    0    0  501    0  0.00000000000E+00  0.00000000000E+00  0.17503827832E+03  0.17503827832E+03  0.00000000000E+00 0. -1.
         -1   -1    0    0    0  501 -0.00000000000E+00 -0.00000000000E+00 -0.94216677903E+02  0.94216677903E+02  0.00000000000E+00 0.  1.
         25    2    1    2    0    0 -0.10807529545E+02 -0.42905070539E+02  0.10211640741E+03  0.16742814763E+03  0.12508707441E+03 0.  0.
          5    1    3    3  502    0 -0.58042099989E+02 -0.25108990167E+02  0.12662591138E+02  0.64630955220E+02  0.41800000000E+01 0.  1.
         -5    1    3    3    0  502  0.47234570443E+02 -0.17796080372E+02  0.89453816272E+02  0.10279719241E+03  0.41800000000E+01 0.  1.
        -11    1    1    2    0    0  0.39586503840E+02 -0.82490292313E+01 -0.39798877956E+01  0.40632219683E+02  0.00000000000E+00 0. -1.
         11    1    1    2    0    0 -0.28778974294E+02  0.51154099770E+02 -0.17314919200E+02  0.61194588908E+02  0.00000000000E+00 0.  1.
</event>
<event>
 7    1  0.2601031E-009  0.1252072E+03  0.7561462E-02  0.1234746E+00
          2   -1    0    0  501    0  0.00000000000E+00  0.00000000000E+00  0.47416002506E+02  0.47416002506E+02  0.00000000000E+00 0. -1.
         -2   -1    0    0    0  501 -0.00000000000E+00 -0.00000000000E+00 -0.40909682596E+03  0.40909682596E+03  0.00000000000E+00 0.  1.
         25    2    1    2    0    0  0.23557629641E+02  0.64114241036E+02 -0.28675601909E+03  0.32022131436E+03  0.12508828030E+03 0.  0.
          5    1    3    3  502    0 -0.12976940384E+02  0.93746709829E+02 -0.17757308713E+03  0.20126231703E+03  0.41800000000E+01 0.  1.
         -5    1    3    3    0  502  0.36534570025E+02 -0.29632468792E+02 -0.10918293196E+03  0.11895899733E+03  0.41800000000E+01 0.  1.
        -11    1    1    2    0    0  0.31277530801E+02 -0.14377740025E+02 -0.44479716362E+02  0.56244542036E+02  0.00000000000E+00 0.  1.
         11    1    1    2    0    0 -0.54835160441E+02 -0.49736501011E+02 -0.30445087998E+02  0.80046972064E+02  0.00000000000E+00 0. -1.
</event>
<event>
 7    1  0.2601031E-009  0.1207183E+03  0.7561462E-02  0.1241917E+00
          1   -1    0    0  501    0  0.00000000000E+00  0.00000000000E+00  0.23336854088E+03  0.23336854088E+03  0.00000000000E+00 0. -1.
         -1   -1    0    0    0  501 -0.00000000000E+00 -0.00000000000E+00 -0.15217625422E+03  0.15217625422E+03  0.00000000000E+00 0.  1.
         25    2    1    2    0    0  0.31714133530E+02 -0.48041115404E+02  0.18794885193E+03  0.23299514168E+03  0.12509288576E+03 0.  0.
          5    1    3    3  502    0  0.77482085017E+02 -0.46359187291E+02  0.10872483169E+03  0.14139027255E+03  0.41800000000E+01 0.  1.
         -5    1    3    3    0  502 -0.45767951487E+02 -0.16819281129E+01  0.79224020236E+02  0.91604869127E+02  0.41800000000E+01 0.  1.
        -11    1    1    2    0    0  0.25747099762E+02 -0.57137246708E+01 -0.46438829079E+02  0.53405286648E+02  0.00000000000E+00 0.  1.
         11    1    1    2    0    0 -0.57461233292E+02  0.53754840075E+02 -0.60317736198E+02  0.99144366774E+02  0.00000000000E+00 0. -1.
</event>
<event>
 7    1  0.2601031E-009  0.1228945E+03  0.7561462E-02  0.1238397E+00
          2   -1    0    0  501    0  0.00000000000E+00  0.00000000000E+00  0.82841012812E+02  0.82841012812E+02  0.00000000000E+00 0. -1.
         -2   -1    0    0    0  501 -0.00000000000E+00 -0.00000000000E+00 -0.24735902484E+03  0.24735902484E+03  0.00000000000E+00 0.  1.
         25    2    1    2    0    0  0.51272703826E+02 -0.39578729558E+02 -0.16722258179E+03  0.21864646147E+03  0.12509003662E+03 0.  0.
          5    1    3    3  502    0  0.67357289216E+02 -0.75469978408E+02 -0.11712503863E+03  0.15481753494E+03  0.41800000000E+01 0. -1.
         -5    1    3    3    0  502 -0.16084585390E+02  0.35891248850E+02 -0.50097543157E+02  0.63828926526E+02  0.41800000000E+01 0. -1.
        -11    1    1    2    0    0  0.14595904553E+02  0.36207545475E+02  0.19291155320E+02  0.43545096769E+02  0.00000000000E+00 0.  1.
         11    1    1    2    0    0 -0.65868608378E+02  0.33711840835E+01 -0.16586585562E+02  0.68008479416E+02  0.00000000000E+00 0. -1.
</event>
<event>
 7    1  0.2601031E-009  0.1379461E+03  0.7561462E-02  0.1216120E+00
         -2   -1    0    0    0  501 -0.00000000000E+00  0.00000000000E+00  0.40756449583E+02  0.40756449583E+02  0.00000000000E+00 0.  1.
          2   -1    0    0  501    0  0.00000000000E+00 -0.00000000000E+00 -0.77864739345E+03  0.77864739345E+03  0.00000000000E+00 0. -1.
         25    2    1    2    0    0  0.77219427114E+02 -0.62705004364E+02 -0.62378554994E+03  0.64393361429E+03  0.12508928734E+03 0.  0.
          5    1    3    3  502    0  0.14582045825E+02 -0.87963780611E+02 -0.29289024764E+03  0.30619018979E+03  0.41800000000E+01 0.  1.
         -5    1    3    3    0  502  0.62637381289E+02  0.25258776247E+02 -0.33089530230E+03  0.33774342450E+03  0.41800000000E+01 0.  1.
        -11    1    1    2    0    0  0.78880321096E+01  0.24378902218E+02  0.29100104703E+01  0.25787983342E+02  0.00000000000E+00 0.  1.
         11    1    1    2    0    0 -0.85107459224E+02  0.38326102146E+02 -0.11701540440E+03  0.14968224540E+03  0.00000000000E+00 0. -1.
</event>
<event>
 7    1  0.2601031E-009  0.1820002E+03  0.7561462E-02  0.1165881E+00
         -1   -1    0    0    0  501 -0.00000000000E+00  0.00000000000E+00  0.43838537429E+02  0.43838537429E+02  0.00000000000E+00 0.  1.
          1   -1    0    0  501    0  0.00000000000E+00 -0.00000000000E+00 -0.88986578623E+03  0.88986578623E+03  0.00000000000E+00 0. -1.
         25    2    1    2    0    0 -0.15230833672E+03 -0.55129761012E+02 -0.37297561410E+03  0.42543771659E+03  0.12509725018E+03 0.  0.
          5    1    3    3  502    0  0.85994372751E+01  0.17988384764E+02 -0.85974745001E+02  0.88355313852E+02  0.41800000000E+01 0. -1.
         -5    1    3    3    0  502 -0.16090777399E+03 -0.73118145776E+02 -0.28700086910E+03  0.33708240274E+03  0.41800000000E+01 0. -1.
        -11    1    1    2    0    0  0.62124169322E+02  0.19775462412E+01 -0.29707750777E+03  0.30351008011E+03  0.00000000000E+00 0. -1.
         11    1    1    2    0    0  0.90184167397E+02  0.53152214771E+02 -0.17597412693E+03  0.20475652696E+03  0.00000000000E+00 0.  1.
</event>
<event>
 7    1  0.2601031E-009  0.1382189E+03  0.7561462E-02  0.1215746E+00
          4   -1    0    0  501    0  0.00000000000E+00  0.00000000000E+00  0.40398612813E+03  0.40398612813E+03  0.00000000000E+00 0.  1.
         -4   -1    0    0    0  501 -0.00000000000E+00 -0.00000000000E+00 -0.54295855046E+02  0.54295855046E+02  0.00000000000E+00 0. -1.
         25    2    1    2    0    0 -0.70197004077E+01  0.10163009863E+03  0.17680663919E+03  0.23934677104E+03  0.12509330919E+03 0.  0.
          5    1    3    3  502    0  0.42847621583E+02  0.72410520066E+02  0.15688118855E+03  0.17806847507E+03  0.41800000000E+01 0.  1.
         -5    1    3    3    0  502 -0.49867321991E+02  0.29219578560E+02  0.19925450641E+02  0.61278295970E+02  0.41800000000E+01 0.  1.
        -11    1    1    2    0    0 -0.40339407646E+02 -0.48016498421E+02  0.84530062447E+02  0.10525294954E+03  0.00000000000E+00 0.  1.
         11    1    1    2    0    0  0.47359108054E+02 -0.53613600205E+02  0.88353571450E+02  0.11368226260E+03  0.00000000000E+00 0. -1.
</event>
<event>
 7    1  0.2601031E-009  0.1587248E+03  0.7561462E-02  0.1190144E+00
          2   -1    0    0  501    0  0.00000000000E+00  0.00000000000E+00  0.62821102985E+03  0.62821102985E+03  0.00000000000E+00 0. -1.
         -2   -1    0    0    0  501 -0.00000000000E+00 -0.00000000000E+00 -0.44097813181E+02  0.44097813181E+02  0.00000000000E+00 0.  1.
         25    2    1    2    0    0 -0.33358418327E+02 -0.11182015031E+03  0.40298932032E+03  0.43779583807E+03  0.12509305915E+03 0.  0.
          5    1    3    3  502    0  0.14291027305E+02 -0.11916669916E+03  0.25026569625E+03  0.27758841252E+03  0.41800000000E+01 0. -1.
         -5    1    3    3    0  502 -0.47649445632E+02  0.73465488473E+01  0.15272362408E+03  0.16020742555E+03  0.41800000000E+01 0. -1.
        -11    1    1    2    0    0 -0.24329441323E+02  0.78849894113E+02  0.99768980553E+02  0.12947230205E+03  0.00000000000E+00 0.  1.
         11    1    1    2    0    0  0.57687859650E+02  0.32970256200E+02  0.81354915795E+02  0.10504070292E+03  0.00000000000E+00 0. -1.
</event>
<event>
 7    1  0.2601031E-009  0.1093737E+03  0.7561462E-02  0.1261734E+00
          1   -1    0    0  501    0  0.00000000000E+00  0.00000000000E+00  0.87881291145E+03  0.87881291145E+03  0.00000000000E+00 0. -1.
         -1   -1    0    0    0  501 -0.00000000000E+00 -0.00000000000E+00 -0.18898668852E+02  0.18898668852E+02  0.00000000000E+00 0.  1.
         25    2    1    2    0    0  0.12901175642E+02  0.53821659584E+02  0.63447485169E+03  0.64905339529E+03  0.12509500843E+03 0.  0.
          5    1    3    3  502    0  0.17128372272E+02 -0.39452052559E+02  0.21324119980E+03  0.21757556682E+03  0.41800000000E+01 0.  1.
         -5    1    3    3    0  502 -0.42271966299E+01  0.93273712143E+02  0.42123365190E+03  0.43147782847E+03  0.41800000000E+01 0.  1.
        -11    1    1    2    0    0 -0.19657112288E+02  0.70074690308E+01  0.73208455709E+01  0.22115638485E+02  0.00000000000E+00 0.  1.
         11    1    1    2    0    0  0.67559366456E+01 -0.60829128614E+02  0.21811854533E+03  0.22654254652E+03  0.00000000000E+00 0. -1.
</event>
<event>
 7    1  0.2601031E-009  0.1157585E+03  0.7561462E-02  0.1250263E+00
         -1   -1    0    0    0  501 -0.00000000000E+00  0.00000000000E+00  0.32105015246E+03  0.32105015246E+03  0.00000000000E+00 0.  1.
          1   -1    0    0  501    0  0.00000000000E+00 -0.00000000000E+00 -0.49693386357E+02  0.49693386357E+02  0.00000000000E+00 0. -1.
         25    2    1    2    0    0 -0.45978486076E+02 -0.33336030209E+02  0.10790493524E+03  0.17468990191E+03  0.12509106559E+03 0.  0.
          5    1    3    3  502    0 -0.86901421458E+01  0.39921768585E+02  0.76053001722E+02  0.86433776086E+02  0.41800000000E+01 0.  1.
         -5    1    3    3    0  502 -0.37288343931E+02 -0.73257798793E+02  0.31851933515E+02  0.88256125826E+02  0.41800000000E+01 0.  1.
        -11    1    1    2    0    0  0.57700361036E+02 -0.13998964573E+02  0.85089361076E+02  0.10375693732E+03  0.00000000000E+00 0. -1.
         11    1    1    2    0    0 -0.11721874960E+02  0.47334994782E+02  0.78362469791E+02  0.92296699590E+02  0.00000000000E+00 0.  1.
</event>
<event>
 7    1  0.2601031E-009  0.1356237E+03  0.7561462E-02  0.1219342E+00
         -2   -1    0    0    0  501 -0.00000000000E+00  0.00000000000E+00  0.45960613259E+02  0.45960613259E+02  0.00000000000E+00 0.  1.
          2   -1    0    0  501    0  0.00000000000E+00 -0.00000000000E+00 -0.61362283910E+03  0.61362283910E+03  0.00000000000E+00 0. -1.
         25    2    1    2    0    0 -0.69286614685E+01  0.12460406342E+03 -0.26618586466E+03  0.31949395465E+03  0.12508914237E+03 0.  0.
          5    1    3    3  502    0  0.15354669694E+02  0.19537707433E+02 -0.17991036777E+03  0.18166645459E+03  0.41800000000E+01 0.  1.
         -5    1    3    3    0  502 -0.22283331162E+02  0.10506635599E+03 -0.86275496898E+02  0.13782750006E+03  0.41800000000E+01 0.  1.
        -11    1    1    2    0    0  0.33543519783E+02 -0.77779360538E+02 -0.97656210812E+02  0.12927309138E+03  0.00000000000E+00 0.  1.
         11    1    1    2    0    0 -0.26614858315E+02 -0.46824702880E+02 -0.20382015037E+03  0.21081640633E+03  0.00000000000E+00 0. -1.
</event>
<event>
 7    1  0.2601031E-009  0.6635862E+02  0.7561462E-02  0.1372933E+00
          1   -1    0    0  501    0  0.00000000000E+00  0.00000000000E+00  0.15034619395E+03  0.15034619395E+03  0.00000000000E+00 0. -1.
         -1   -1    0    0    0  501 -0.00000000000E+00 -0.00000000000E+00 -0.10489058801E+03  0.10489058801E+03  0.00000000000E+00 0.  1.
         25    2    1    2    0    0 -0.46913622968E+02 -0.25201529568E+02 -0.86736915804E+01  0.13621415424E+03  0.12507221025E+03 0.  0.
          5    1    3    3  502    0 -0.45108853449E+02 -0.35917868408E+02 -0.60154989309E+02  0.83432589970E+02  0.41800000000E+01 0. -1.
         -5    1    3    3    0  502 -0.18047695197E+01  0.10716338840E+02  0.51481297728E+02  0.52781564271E+02  0.41800000000E+01 0. -1.
        -11    1    1    2    0    0  0.44562684070E+02  0.72414247285E+01 -0.14988957463E+02  0.47570367767E+02  0.00000000000E+00 0.  1.
         11    1    1    2    0    0  0.23509388980E+01  0.17960104840E+02  0.69118254983E+02  0.71452259946E+02  0.00000000000E+00 0. -1.
</event>
<event>
 7    1  0.2601031E-009  0.1065348E+03  0.7561462E-02  0.1267125E+00
         -2   -1    0    0    0  501 -0.00000000000E+00  0.00000000000E+00  0.29917025537E+02  0.29917025537E+02  0.00000000000E+00 0.  1.
          2   -1    0    0  501    0  0.00000000000E+00 -0.00000000000E+00 -0.50976810892E+03  0.50976810892E+03  0.00000000000E+00 0. -1.
         25    2    1    2    0    0 -0.11971742733E+01 -0.29822540979E+02 -0.38259891406E+03  0.40363483699E+03  0.12509330683E+03 0.  0.
          5    1    3    3  502    0  0.53651192831E+02  0.13821076303E+02 -0.12817161948E+03  0.13969577332E+03  0.41800000000E+01 0. -1.
         -5    1    3    3    0  502 -0.54848367105E+02 -0.43643617282E+02 -0.25442729458E+03  0.26393906367E+03  0.41800000000E+01 0. -1.
        -11    1    1    2    0    0 -0.11146791136E+02 -0.26964699061E+02 -0.60831850586E+02  0.67467473599E+02  0.00000000000E+00 0. -1.
         11    1    1    2    0    0  0.12343965409E+02  0.56787240040E+02 -0.36420318736E+02  0.68582823872E+02  0.00000000000E+00 0.  1.
</event>
<event>
 7    1  0.2601031E-009  0.1079159E+03  0.7561462E-02  0.1264479E+00
          2   -1    0    0  501    0  0.00000000000E+00  0.00000000000E+00  0.66531508452E+02  0.66531508452E+02  0.00000000000E+00 0. -1.
         -2   -1    0    0    0  501 -0.00000000000E+00 -0.00000000000E+00 -0.25071057137E+03  0.25071057137E+03  0.00000000000E+00 0.  1.
         25    2    1    2    0    0  0.26505798180E+02  0.50153904003E+02 -0.14712603051E+03  0.20128650441E+03  0.12510881896E+03 0.  0.
          5    1    3    3  502    0 -0.66482689683E+01  0.85533028051E+02 -0.11258656721E+03  0.14160969558E+03  0.41800000000E+01 0. -1.
         -5    1    3    3    0  502  0.33154067149E+02 -0.35379124048E+02 -0.34539463303E+02  0.59676808830E+02  0.41800000000E+01 0. -1.
        -11    1    1    2    0    0  0.17201886102E+02 -0.39061702233E+01 -0.48224054022E+02  0.51349025673E+02  0.00000000000E+00 0.  1.
         11    1    1    2    0    0 -0.43707684282E+02 -0.46247733779E+02  0.11171021612E+02  0.64606549737E+02  0.00000000000E+00 0. -1.
</event>
<event>
 7    1  0.2601031E-009  0.9957555E+02  0.7561462E-02  0.1281191E+00
          2   -1    0    0  501    0  0.00000000000E+00  0.00000000000E+00  0.13529506662E+03  0.13529506662E+03  0.00000000000E+00 0. -1.
         -2   -1    0    0    0  501 -0.00000000000E+00 -0.00000000000E+00 -0.86529791141E+02  0.86529791141E+02  0.00000000000E+00 0.  1.
         25    2    1    2    0    0 -0.44505406608E+01  0.86856692597E+01  0.22965722695E+02  0.12755539294E+03  0.12509078977E+03 0.  0.
          5    1    3    3  502    0 -0.43540479786E+02 -0.42232331088E+02  0.64631162881E+01  0.61143989412E+02  0.41800000000E+01 0.  1.
         -5    1    3    3    0  502  0.39089939125E+02  0.50918000347E+02  0.16502606407E+02  0.66411403527E+02  0.41800000000E+01 0.  1.
        -11    1    1    2    0    0  0.38876843031E+02 -0.73740412590E+01  0.40672045608E+02  0.56745050026E+02  0.00000000000E+00 0. -1.
         11    1    1    2    0    0 -0.34426302370E+02 -0.13116280007E+01 -0.14872492824E+02  0.37524414795E+02  0.00000000000E+00 0.  1.
</event>
<event>
 7    1  0.2601031E-009  0.1543372E+03  0.7561462E-02  0.1195242E+00
         -1   -1    0    0    0  501 -0.00000000000E+00  0.00000000000E+00  0.11002902585E+03  0.11002902585E+03  0.00000000000E+00 0.  1.
          1   -1    0    0  501    0  0.00000000000E+00 -0.00000000000E+00 -0.36243980806E+03  0.36243980806E+03  0.00000000000E+00 0. -1.
         25    2    1    2    0    0 -0.79347476801E+02  0.11041952752E+03 -0.25132315248E+03  0.31192183407E+03  0.12507361617E+03 0.  0.
          5    1    3    3  502    0 -0.28855793922E+02  0.29312429839E+01  0.46881088995E+01  0.29676586619E+02  0.41800000000E+01 0. -1.
         -5    1    3    3    0  502 -0.50491682878E+02  0.10748828453E+03 -0.25601126138E+03  0.28224524745E+03  0.41800000000E+01 0. -1.
        -11    1    1    2    0    0 -0.33752861655E+01 -0.67055997667E+02 -0.93948053776E+00  0.67147464609E+02  0.00000000000E+00 0. -1.
         11    1    1    2    0    0  0.82722762966E+02 -0.43363529849E+02 -0.14814918270E+00  0.93399535234E+02  0.00000000000E+00 0.  1.
</event>
<event>
 7    1  0.2601031E-009  0.9704689E+02  0.7561462E-02  0.1286631E+00
         -2   -1    0    0    0  501 -0.00000000000E+00  0.00000000000E+00  0.49599962745E+02  0.49599962745E+02  0.00000000000E+00 0. -1.
          2   -1    0    0  501    0  0.00000000000E+00 -0.00000000000E+00 -0.39329507489E+03  0.39329507489E+03  0.00000000000E+00 0.  1.
         25    2    1    2    0    0  0.81842512386E+02  0.14523056930E+02 -0.23692186793E+03  0.28051561830E+03  0.12509166474E+03 0.  0.
          5    1    3    3  502    0  0.32580660671E+02  0.69343048078E+01 -0.22706795240E+03  0.22953629656E+03  0.41800000000E+01 0. -1.
         -5    1    3    3    0  502  0.49261851716E+02  0.75887521219E+01 -0.98539155314E+01  0.50979321735E+02  0.41800000000E+01 0. -1.
        -11    1    1    2    0    0 -0.74381077907E+02  0.18501225526E+02 -0.37618035513E+02  0.85381243212E+02  0.00000000000E+00 0. -1.
         11    1    1    2    0    0 -0.74614344795E+01 -0.33024282456E+02 -0.69155208705E+02  0.76998176129E+02  0.00000000000E+00 0.  1.
</event>
<event>
 7    1  0.2601031E-009  0.2527212E+03  0.7561462E-02  0.1111597E+00
          2   -1    0    0  501    0  0.00000000000E+00  0.00000000000E+00  0.36591317005E+03  0.36591317005E+03  0.00000000000E+00 0. -1.
         -2   -1    0    0    0  501 -0.00000000000E+00 -0.00000000000E+00 -0.20890830887E+03  0.20890830887E+03  0.00000000000E+00 0.  1.
         25    2    1    2    0    0  0.79026258365E+02  0.23485348053E+03  0.22762413849E+02  0.27850875907E+03  0.12509074533E+03 0.  0.
          5    1    3    3  502    0  0.27397995195E+02  0.92729683333E+02 -0.51897256255E+02  0.10981913275E+03  0.41800000000E+01 0.  1.
         -5    1    3    3    0  502  0.51628263170E+02  0.14212379720E+03  0.74659670104E+02  0.16868962632E+03  0.41800000000E+01 0.  1.
        -11    1    1    2    0    0 -0.47762857015E+02 -0.47195776035E+02  0.66127941891E+02  0.94242434627E+02  0.00000000000E+00 0.  1.
         11    1    1    2    0    0 -0.31263401350E+02 -0.18765770449E+03  0.68114505435E+02  0.20207028523E+03  0.00000000000E+00 0. -1.
</event>
<event>
 7    1  0.2601031E-009  0.1311494E+03  0.7561462E-02  0.1225760E+00
          1   -1    0    0  501    0  0.00000000000E+00  0.00000000000E+00  0.31998895223E+02  0.31998895223E+02  0.00000000000E+00 0. -1.
         -1   -1    0    0    0  501 -0.00000000000E+00 -0.00000000000E+00 -0.82270638427E+03  0.82270638427E+03  0.00000000000E+00 0.  1.
         25    2    1    2    0    0  0.50517977969E+01 -0.80851973073E+02 -0.18883268295E+03  0.24055767848E+03  0.12509057643E+03 0.  0.
          5    1    3    3  502    0  0.52775514859E+02 -0.76612458535E+02 -0.15808545905E+03  0.18347536220E+03  0.41800000000E+01 0. -1.
         -5    1    3    3    0  502 -0.47723717062E+02 -0.42395145380E+01 -0.30747223898E+02  0.57082316274E+02  0.41800000000E+01 0. -1.
        -11    1    1    2    0    0  0.42205715260E+02  0.30837336195E+02 -0.22013015797E+03  0.22625107768E+03  0.00000000000E+00 0.  1.
         11    1    1    2    0    0 -0.47257513057E+02  0.50014636879E+02 -0.38174464813E+03  0.38789652333E+03  0.00000000000E+00 0. -1.
</event>
<event>
 7    1  0.2601031E-009  0.1154804E+03  0.7561462E-02  0.1250745E+00
         -2   -1    0    0    0  501 -0.00000000000E+00  0.00000000000E+00  0.99844963173E+02  0.99844963173E+02  0.00000000000E+00 0.  1.
          2   -1    0    0  501    0  0.00000000000E+00 -0.00000000000E+00 -0.16841580990E+03  0.16841580990E+03  0.00000000000E+00 0. -1.
         25    2    1    2    0    0  0.60578708848E+02 -0.29502999580E+02  0.10338040061E+02  0.14245526352E+03  0.12508565099E+03 0.  0.
          5    1    3    3  502    0 -0.16044681978E+02  0.35559836964E+02 -0.83838732367E+01  0.40121011393E+02  0.41800000000E+01 0. -1.
         -5    1    3    3    0  502  0.76623390826E+02 -0.65062836545E+02  0.18721913298E+02  0.10233425213E+03  0.41800000000E+01 0. -1.
        -11    1    1    2    0    0 -0.36575894688E+00  0.30887387461E+02 -0.64011501588E+01  0.31545827096E+02  0.00000000000E+00 0.  1.
         11    1    1    2    0    0 -0.60212949901E+02 -0.13843878811E+01 -0.72507736627E+02  0.94259682454E+02  0.00000000000E+00 0. -1.
</event>
<event>
 7    1  0.2601031E-009  0.9725421E+02  0.7561462E-02  0.1286178E+00
          1   -1    0    0  501    0  0.00000000000E+00  0.00000000000E+00  0.21202473575E+03  0.21202473575E+03  0.00000000000E+00 0. -1.
         -1   -1    0    0    0  501 -0.00000000000E+00 -0.00000000000E+00 -0.10875226592E+03  0.10875226592E+03  0.00000000000E+00 0.  1.
         25    2    1    2    0    0  0.21490220837E+02 -0.19705484786E+02 -0.52964650819E+02  0.13893503065E+03  0.12509017861E+03 0.  0.
          5    1    3    3  502    0  0.60190707277E+02 -0.79237729218E+01 -0.71796995749E+02  0.94116886999E+02  0.41800000000E+01 0.  1.
         -5    1    3    3    0  502 -0.38700486440E+02 -0.11781711864E+02  0.18832344930E+02  0.44818143655E+02  0.41800000000E+01 0.  1.
        -11    1    1    2    0    0 -0.52099847444E+02  0.30686637527E+02  0.98587894846E+02  0.11565308831E+03  0.00000000000E+00 0.  1.
         11    1    1    2    0    0  0.30609626607E+02 -0.10981152741E+02  0.57649225808E+02  0.66188882698E+02  0.00000000000E+00 0. -1.
</event>
<event>
 7    1  0.2601031E-009  0.1464949E+03  0.7561462E-02  0.1204847E+00
         -2   -1    0    0    0  501 -0.00000000000E+00  0.00000000000E+00  0.14515362692E+03  0.14515362692E+03  0.00000000000E+00 0.  1.
          2   -1    0    0  501    0  0.00000000000E+00 -0.00000000000E+00 -0.18149161564E+03  0.18149161564E+03  0.00000000000E+00 0. -1.
         25    2    1    2    0    0  0.34264528178E+02 -0.96972704063E+02 -0.71560795464E+02  0.17704576419E+03  0.12508593824E+03 0.  0.
          5    1    3    3  502    0  0.28600439328E+02 -0.12607453960E+03 -0.44787555087E+02  0.13688013791E+03  0.41800000000E+01 0. -1.
         -5    1    3    3    0  502  0.56640888504E+01  0.29101835534E+02 -0.26773240377E+02  0.40165626277E+02  0.41800000000E+01 0. -1.
        -11    1    1    2    0    0  0.20571275207E+02  0.69283728098E+02  0.48124069360E+02  0.86829363665E+02  0.00000000000E+00 0.  1.
         11    1    1    2    0    0 -0.54835803385E+02  0.27688975965E+02 -0.12901262619E+02  0.62770114705E+02  0.00000000000E+00 0. -1.
</event>
<event>
 7    1  0.2601031E-009  0.1022615E+03  0.7561462E-02  0.1275611E+00
          1   -1    0    0  501    0  0.00000000000E+00  0.00000000000E+00  0.11309736662E+03  0.11309736662E+03  0.00000000000E+00 0. -1.
         -1   -1    0    0    0  501 -0.00000000000E+00 -0.00000000000E+00 -0.14764078660E+03  0.14764078660E+03  0.00000000000E+00 0.  1.
         25    2    1    2    0    0 -0.37949700610E+02  0.67478331665E+01  0.37947210789E+02  0.13628172969E+03  0.12508799307E+03 0.  0.
          5    1    3    3  502    0 -0.57429945851E+02  0.49054912903E+02 -0.64970394105E+00  0.75647059927E+02  0.41800000000E+01 0.  1.
         -5    1    3    3    0  502  0.19480245241E+02 -0.42307079736E+02  0.38596914730E+02  0.60634669762E+02  0.41800000000E+01 0.  1.
        -11    1    1    2    0    0  0.25025631973E+02  0.32370962393E+02 -0.72510199733E+02  0.83257975757E+02  0.00000000000E+00 0.  1.
         11    1    1    2    0    0  0.12924068637E+02 -0.39118795560E+02  0.19568969096E-01  0.41198447776E+02  0.00000000000E+00 0. -1.
</event>
<event>
 7    1  0.2601031E-009  0.1234292E+03  0.7561462E-02  0.1237545E+00
          1   -1    0    0  501    0  0.00000000000E+00  0.00000000000E+00  0.47613693754E+03  0.47613693754E+03  0.00000000000E+00 0. -1.
         -1   -1    0    0    0  501 -0.00000000000E+00 -0.00000000000E+00 -0.35431529705E+02  0.35431529705E+02  0.00000000000E+00 0.  1.
         25    2    1    2    0    0  0.67522486128E+02  0.27098181540E+01  0.19738571087E+03  0.24325950953E+03  0.12508973129E+03 0.  0.
          5    1    3    3  502    0  0.98445737461E+02 -0.12186053756E+02  0.10449237568E+03  0.14413948836E+03  0.41800000000E+01 0.  1.
         -5    1    3    3    0  502 -0.30923251333E+02  0.14895871910E+02  0.92893335193E+02  0.99120021168E+02  0.41800000000E+01 0.  1.
        -11    1    1    2    0    0  0.19115107301E+02 -0.16519857904E+02  0.58591312016E+02  0.63806229132E+02  0.00000000000E+00 0.  1.
         11    1    1    2    0    0 -0.86637593429E+02  0.13810039750E+02  0.18472838495E+03  0.20450272859E+03  0.00000000000E+00 0. -1.
</event>
<event>
 7    1  0.2601031E-009  0.1032614E+03  0.7561462E-02  0.1273583E+00
         -1   -1    0    0    0  501 -0.00000000000E+00  0.00000000000E+00  0.79969428637E+02  0.79969428637E+02  0.00000000000E+00 0.  1.
          1   -1    0    0  501    0  0.00000000000E+00 -0.00000000000E+00 -0.14504914198E+03  0.14504914198E+03  0.00000000000E+00 0. -1.
         25    2    1    2    0    0 -0.93589921006E+01 -0.18135583428E+01 -0.32492814516E+02  0.12959176770E+03  0.12508942215E+03 0.  0.
          5    1    3    3  502    0 -0.66203796024E+02  0.67302123240E+00 -0.57655256928E+01  0.66589107608E+02  0.41800000000E+01 0. -1.
         -5    1    3    3    0  502  0.56844803923E+02 -0.24865795752E+01 -0.26727288823E+02  0.63002660094E+02  0.41800000000E+01 0. -1.
        -11    1    1    2    0    0 -0.19830624647E+02 -0.32505906223E+02 -0.32975248396E+02  0.50371168540E+02  0.00000000000E+00 0.  1.
         11    1    1    2    0    0  0.29189616748E+02  0.34319464566E+02  0.38834956494E+00  0.45055634380E+02  0.00000000000E+00 0. -1.
</event>
<event>
 7    1  0.2601031E-009  0.1030600E+03  0.7561462E-02  0.1273990E+00
         -1   -1    0    0    0  501 -0.00000000000E+00  0.00000000000E+00  0.43241546251E+02  0.43241546251E+02  0.00000000000E+00 0.  1.
          1   -1    0    0  501    0  0.00000000000E+00 -0.00000000000E+00 -0.40478044797E+03  0.40478044797E+03  0.00000000000E+00 0. -1.
         25    2    1    2    0    0  0.53907030148E+02  0.24921240201E+02 -0.27561668502E+03  0.30844701054E+03  0.12509182681E+03 0.  0.
          5    1    3    3  502    0  0.31067236767E+02 -0.50565905102E+02 -0.11928118141E+03  0.13329499840E+03  0.41800000000E+01 0.  1.
         -5    1    3    3    0  502  0.22839793381E+02  0.75487145302E+02 -0.15633550361E+03  0.17515201214E+03  0.41800000000E+01 0.  1.
        -11    1    1    2    0    0 -0.20487806149E+02  0.67847797822E+01 -0.90727024981E+02  0.93258653751E+02  0.00000000000E+00 0. -1.
         11    1    1    2    0    0 -0.33419223999E+02 -0.31706019983E+02  0.48048082830E+01  0.46316329933E+02  0.00000000000E+00 0.  1.
</event>
<event>
 7    1  0.2601031E-009  0.1242042E+03  0.7561462E-02  0.1236318E+00
          1   -1    0    0  501    0  0.00000000000E+00  0.00000000000E+00  0.36646123235E+03  0.36646123235E+03  0.00000000000E+00 0. -1.
         -1   -1    0    0    0  501 -0.00000000000E+00 -0.00000000000E+00 -0.52758794424E+02  0.52758794424E+02  0.00000000000E+00 0.  1.
         25    2    1    2    0    0 -0.59619342612E+02  0.42963099737E+02  0.22084815070E+03  0.26424729600E+03  0.12510968716E+03 0.  0.
          5    1    3    3  502    0 -0.64797159710E+02 -0.25083506966E+02  0.15218702961E+03  0.16735058592E+03  0.41800000000E+01 0.  1.
         -5    1    3    3    0  502  0.51778170978E+01  0.68046606703E+02  0.68661121093E+02  0.96896710075E+02  0.41800000000E+01 0.  1.
        -11    1    1    2    0    0  0.13259876213E+02  0.24918628777E+02 -0.33586158670E+01  0.28426091498E+02  0.00000000000E+00 0.  1.
         11    1    1    2    0    0  0.46359466399E+02 -0.67881728514E+02  0.96212903095E+02  0.12654663928E+03  0.00000000000E+00 0. -1.
</event>
<event>
 7    1  0.2601031E-009  0.1493404E+03  0.7561462E-02  0.1201286E+00
         -2   -1    0    0    0  501 -0.00000000000E+00  0.00000000000E+00  0.24386521762E+02  0.24386521762E+02  0.00000000000E+00 0. -1.
          2   -1    0    0  501    0  0.00000000000E+00 -0.00000000000E+00 -0.18655331597E+04  0.18655331597E+04  0.00000000000E+00 0.  1.
         25    2    1    2    0    0 -0.10005225663E+03  0.78098239758E+02 -0.15331124992E+04  0.15434349769E+04  0.12509118144E+03 0.  0.
          5    1    3    3  502    0  0.78572559059E+01 -0.10218040845E+02 -0.21601794513E+02  0.25500093240E+02  0.41800000000E+01 0.  1.
         -5    1    3    3    0  502 -0.10790951253E+03  0.88316280603E+02 -0.15115107047E+04  0.15179348837E+04  0.41800000000E+01 0.  1.
        -11    1    1    2    0    0  0.75933822963E+02 -0.14098373691E+02 -0.23050731592E+03  0.24310148560E+03  0.00000000000E+00 0.  1.
         11    1    1    2    0    0  0.24118433665E+02 -0.63999866067E+02 -0.77526822779E+02  0.10338321890E+03  0.00000000000E+00 0. -1.
</event>
<event>
 7    1  0.3950192E-009  0.1322226E+03  0.7561462E-02  0.1224195E+00
          1   -1    0    0  501    0  0.00000000000E+00  0.00000000000E+00  0.12462327370E+04  0.12462327370E+04  0.00000000000E+00 0. -1.
         -1   -1    0    0    0  501 -0.00000000000E+00 -0.00000000000E+00 -0.19156239725E+02  0.19156239725E+02  0.00000000000E+00 0.  1.
         25    2    1    2    0    0  0.85653617076E+02 -0.90807763787E+01  0.93550893224E+03  0.94775719864E+03  0.12509093750E+03 0.  0.
          5    1    3    3  502    0  0.69038830504E+02 -0.58453487384E+02  0.73467171924E+03  0.74023184055E+03  0.41800000000E+01 0.  1.
         -5    1    3    3    0  502  0.16614786572E+02  0.49372711006E+02  0.20083721300E+03  0.20752535809E+03  0.41800000000E+01 0.  1.
        -11    1    1    2    0    0 -0.18523160421E+02  0.42703079114E+02  0.73482047520E+02  0.86984318964E+02  0.00000000000E+00 0.  1.
         11    1    1    2    0    0 -0.67130456655E+02 -0.33622302736E+02  0.21808551750E+03  0.23064745912E+03  0.00000000000E+00 0. -1.
</event>
<event>
 7    1  0.2601031E-009  0.1288046E+03  0.7561462E-02  0.1229240E+00
          2   -1    0    0  501    0  0.00000000000E+00  0.00000000000E+00  0.56035147127E+03  0.56035147127E+03  0.00000000000E+00 0. -1.
         -2   -1    0    0    0  501 -0.00000000000E+00 -0.00000000000E+00 -0.46208206760E+02  0.46208206760E+02  0.00000000000E+00 0.  1.
         25    2    1    2    0    0  0.10282355612E+03 -0.11417679811E+02  0.37445537303E+03  0.40812973530E+03  0.12509998938E+03 0.  0.
          5    1    3    3  502    0  0.46685696540E+02 -0.34253332715E+02  0.45905944304E+02  0.74011304447E+02  0.41800000000E+01 0.  1.
         -5    1    3    3    0  502  0.56137859576E+02  0.22835652904E+02  0.32854942872E+03  0.33411843085E+03  0.41800000000E+01 0.  1.
        -11    1    1    2    0    0 -0.70975996575E+02  0.51441654804E+02  0.10424465291E+03  0.13620126137E+03  0.00000000000E+00 0.  1.
         11    1    1    2    0    0 -0.31847559541E+02 -0.40023974993E+02  0.35443238568E+02  0.62228681355E+02  0.00000000000E+00 0. -1.
</event>
<event>
 7    1  0.2601031E-009  0.1050796E+03  0.7561462E-02  0.1269963E+00
         -3   -1    0    0    0  501 -0.00000000000E+00  0.00000000000E+00  0.59013054684E+02  0.59013054684E+02  0.00000000000E+00 0.  1.
          3   -1    0    0  501    0  0.00000000000E+00 -0.00000000000E+00 -0.21286710954E+03  0.21286710954E+03  0.00000000000E+00 0. -1.
         25    2    1    2    0    0 -0.43357703241E+01  0.27801991954E+02 -0.78871111858E+02  0.15053015962E+03  0.12508767729E+03 0.  0.
          5    1    3    3  502    0  0.20242551018E+02 -0.41757670145E+02 -0.64004948835E+01  0.47030868825E+02  0.41800000000E+01 0. -1.
         -5    1    3    3    0  502 -0.24578321342E+02  0.69559662099E+02 -0.72470616975E+02  0.10349929080E+03  0.41800000000E+01 0. -1.
        -11    1    1    2    0    0 -0.18893964555E+01  0.30741602659E+02 -0.46930702042E+02  0.56134719623E+02  0.00000000000E+00 0. -1.
         11    1    1    2    0    0  0.62251667796E+01 -0.58543594613E+02 -0.28052240951E+02  0.65215284972E+02  0.00000000000E+00 0.  1.
</event>
<event>
 7    1  0.2601031E-009  0.1022845E+03  0.7561462E-02  0.1275564E+00
          1   -1    0    0  501    0  0.00000000000E+00  0.00000000000E+00  0.20569649718E+03  0.20569649718E+03  0.00000000000E+00 0. -1.
         -1   -1    0    0    0  501 -0.00000000000E+00 -0.00000000000E+00 -0.59314999738E+02  0.59314999738E+02  0.00000000000E+00 0.  1.
         25    2    1    2    0    0 -0.52181921142E+01  0.17812948287E+02  0.98556223415E+02  0.16031487804E+03  0.12507198044E+03 0.  0.
          5    1    3    3  502    0  0.33998443036E+02 -0.36143435601E+02  0.73830634967E+02  0.89054349279E+02  0.41800000000E+01 0.  1.
         -5    1    3    3    0  502 -0.39216635150E+02  0.53956383887E+02  0.24725588448E+02  0.71260528758E+02  0.41800000000E+01 0.  1.
        -11    1    1    2    0    0 -0.38374037248E+02 -0.21852407987E+02  0.41245629095E+02  0.60425957907E+02  0.00000000000E+00 0. -1.
         11    1    1    2    0    0  0.43592229362E+02  0.40394597006E+01  0.65796449289E+01  0.44270660971E+02  0.00000000000E+00 0.  1.
</event>
<event>
 7    1  0.2601031E-009  0.8440278E+02  0.7561462E-02  0.1317002E+00
          2   -1    0    0  501    0  0.00000000000E+00  0.00000000000E+00  0.11384460438E+03  0.11384460438E+03  0.00000000000E+00 0. -1.
         -2   -1    0    0    0  501 -0.00000000000E+00 -0.00000000000E+00 -0.16198561654E+03  0.16198561654E+03  0.00000000000E+00 0.  1.
         25    2    1    2    0    0  0.40320944367E+01  0.77171256181E+02 -0.51157229297E+02  0.15568255230E+03  0.12509330283E+03 0.  0.
          5    1    3    3  502    0 -0.98805368564E+01  0.20024134187E+02  0.40652160479E+02  0.46568889939E+02  0.41800000000E+01 0.  1.
         -5    1    3    3    0  502  0.13912631293E+02  0.57147121994E+02 -0.91809389777E+02  0.10911366236E+03  0.41800000000E+01 0.  1.
        -11    1    1    2    0    0 -0.19047592136E+02 -0.65185184140E+02 -0.35849378621E+02  0.76792557876E+02  0.00000000000E+00 0.  1.
         11    1    1    2    0    0  0.15015497699E+02 -0.11986072041E+02  0.38865595756E+02  0.43355110744E+02  0.00000000000E+00 0. -1.
</event>
<event>
 7    1  0.2601031E-009  0.1810945E+03  0.7561462E-02  0.1166748E+00
          1   -1    0    0  501    0  0.00000000000E+00  0.00000000000E+00  0.10111780858E+04  0.10111780858E+04  0.00000000000E+00 0. -1.
         -1   -1    0    0    0  501 -0.00000000000E+00 -0.00000000000E+00 -0.48940409862E+02  0.48940409862E+02  0.00000000000E+00 0.  1.
         25    2    1    2    0    0  0.15913317453E+03 -0.42688774559E+01  0.76311693112E+03  0.78951670970E+03  0.12509034250E+03 0.  0.
          5    1    3    3  502    0  0.13079463558E+03  0.50799576500E+02  0.53257223845E+03  0.55076174090E+03  0.41800000000E+01 0.  1.
         -5    1    3    3    0  502  0.28338538948E+02 -0.55068453955E+02  0.23054469267E+03  0.23875496880E+03  0.41800000000E+01 0.  1.
        -11    1    1    2    0    0 -0.19802313479E+02 -0.38499117780E+01 -0.72767204020E+01  0.21445374784E+02  0.00000000000E+00 0.  1.
         11    1    1    2    0    0 -0.13933086105E+03  0.81187892339E+01  0.20639746519E+03  0.24915641115E+03  0.00000000000E+00 0. -1.
</event>
<event>
 7    1  0.2601031E-009  0.1760692E+03  0.7561462E-02  0.1171662E+00
         -1   -1    0    0    0  501 -0.00000000000E+00  0.00000000000E+00  0.17357908965E+03  0.17357908965E+03  0.00000000000E+00 0.  1.
          1   -1    0    0  501    0  0.00000000000E+00 -0.00000000000E+00 -0.30902179526E+03  0.30902179526E+03  0.00000000000E+00 0. -1.
         25    2    1    2    0    0  0.11975522883E+03  0.85583165010E+02  0.77628863098E+02  0.20818403995E+03  0.12509420905E+03 0.  0.
          5    1    3    3  502    0  0.72424130708E+02  0.11186373609E+03  0.31648445362E+02  0.13703228325E+03  0.41800000000E+01 0.  1.
         -5    1    3    3    0  502  0.47331098126E+02 -0.26280571077E+02  0.45980417736E+02  0.71151756697E+02  0.41800000000E+01 0.  1.
        -11    1    1    2    0    0  0.10363861205E+02 -0.69538557698E+01 -0.49725461015E+02  0.51267798883E+02  0.00000000000E+00 0. -1.
         11    1    1    2    0    0 -0.13011909004E+03 -0.78629309240E+02 -0.16334610770E+03  0.22314904608E+03  0.00000000000E+00 0.  1.
</event>
<event>
 7    1  0.2601031E-009  0.1232362E+03  0.7561462E-02  0.1237852E+00
         -1   -1    0    0    0  501 -0.00000000000E+00  0.00000000000E+00  0.10450395582E+03  0.10450395582E+03  0.00000000000E+00 0.  1.
          1   -1    0    0  501    0  0.00000000000E+00 -0.00000000000E+00 -0.25125286159E+03  0.25125286159E+03  0.00000000000E+00 0. -1.
         25    2    1    2    0    0 -0.48291494187E+02 -0.40459351766E+02  0.32198279113E+02  0.14370907971E+03  0.12508614175E+03 0.  0.
          5    1    3    3  502    0 -0.88591716784E+02 -0.19528122999E+02  0.36559247263E+02  0.97897348438E+02  0.41800000000E+01 0. -1.
         -5    1    3    3    0  502  0.40300222597E+02 -0.20931228767E+02 -0.43609681503E+01  0.45811731273E+02  0.41800000000E+01 0. -1.
        -11    1    1    2    0    0  0.37697293697E+02 -0.24026896966E+02 -0.47355839064E+02  0.65122601478E+02  0.00000000000E+00 0.  1.
         11    1    1    2    0    0  0.10594200490E+02  0.64486248731E+02 -0.13159134582E+03  0.14692513622E+03  0.00000000000E+00 0. -1.
</event>
<event>
 7    1  0.2601031E-009  0.1984778E+03  0.7561462E-02  0.1151030E+00
          4   -1    0    0  501    0  0.00000000000E+00  0.00000000000E+00  0.22194700801E+02  0.22194700801E+02  0.00000000000E+00 0. -1.
         -4   -1    0    0    0  501 -0.00000000000E+00 -0.00000000000E+00 -0.19629632332E+04  0.19629632332E+04  0.00000000000E+00 0.  1.
         25    2    1    2    0    0 -0.14983830865E+03  0.96460929070E+02 -0.10801481611E+04  0.11018729970E+04  0.12509125477E+03 0.  0.
          5    1    3    3  502    0  0.17504897089E+02 -0.22807298818E+01 -0.42955615824E+02  0.46629180582E+02  0.41800000000E+01 0. -1.
         -5    1    3    3    0  502 -0.16734320573E+03  0.98741658952E+02 -0.10371925452E+04  0.10552438164E+04  0.41800000000E+01 0. -1.
        -11    1    1    2    0    0  0.15002579790E+03 -0.83876342660E+02 -0.84876811522E+03  0.86599670571E+03  0.00000000000E+00 0.  1.
         11    1    1    2    0    0 -0.18748925245E+00 -0.12584586410E+02 -0.11852256132E+02  0.17288231336E+02  0.00000000000E+00 0. -1.
</event>
<event>
 7    1  0.2601031E-009  0.6058712E+02  0.7561462E-02  0.1395384E+00
         -2   -1    0    0    0  501 -0.00000000000E+00  0.00000000000E+00  0.35750428941E+03  0.35750428941E+03  0.00000000000E+00 0.  1.
          2   -1    0    0  501    0  0.00000000000E+00 -0.00000000000E+00 -0.38916100698E+02  0.38916100698E+02  0.00000000000E+00 0. -1.
         25    2    1    2    0    0 -0.24272296320E+02  0.24289777894E+02  0.12649723847E+03  0.18118418666E+03  0.12508805090E+03 0.  0.
          5    1    3    3  502    0 -0.89977082169E+01  0.14901213728E+02 -0.23790207362E+02  0.29773331860E+02  0.41800000000E+01 0. -1.
         -5    1    3    3    0  502 -0.15274588103E+02  0.93885641654E+01  0.15028744583E+03  0.15141085480E+03  0.41800000000E+01 0. -1.
        -11    1    1    2    0    0 -0.13416736975E+02 -0.41364402999E+02  0.45587391381E+02  0.63001848540E+02  0.00000000000E+00 0. -1.
         11    1    1    2    0    0  0.37689033295E+02  0.17074625105E+02  0.14650355886E+03  0.15223435490E+03  0.00000000000E+00 0.  1.
</event>
<event>
 7    1  0.2601031E-009  0.2111787E+03  0.7561462E-02  0.1140636E+00
          2   -1    0    0  501    0  0.00000000000E+00  0.00000000000E+00  0.12834889457E+04  0.12834889457E+04  0.00000000000E+00 0.  1.
         -2   -1    0    0    0  501 -0.00000000000E+00 -0.00000000000E+00 -0.38477011381E+02  0.38477011381E+02  0.00000000000E+00 0. -1.
         25    2    1    2    0    0 -0.78009220563E+02 -0.17327428970E+03  0.75593684124E+03  0.78942901802E+03  0.12509295976E+03 0.  0.
          5    1    3    3  502    0 -0.99626660931E+02 -0.17466736467E+03  0.62262094895E+03  0.65429999108E+03  0.41800000000E+01 0. -1.
         -5    1    3    3    0  502  0.21617440368E+02  0.13930749651E+01  0.13331589229E+03  0.13512902695E+03  0.41800000000E+01 0. -1.
        -11    1    1    2    0    0  0.68213799275E+02  0.78946098861E+02  0.34179938324E+03  0.35736875538E+03  0.00000000000E+00 0.  1.
         11    1    1    2    0    0  0.97954212881E+01  0.94328190842E+02  0.14727570983E+03  0.17516818367E+03  0.00000000000E+00 0. -1.
</event>
<event>
 7    1  0.2601031E-009  0.1083088E+03  0.7561462E-02  0.1263734E+00
         -2   -1    0    0    0  501 -0.00000000000E+00  0.00000000000E+00  0.61389423632E+02  0.61389423632E+02  0.00000000000E+00 0.  1.
          2   -1    0    0  501    0  0.00000000000E+00 -0.00000000000E+00 -0.22052633007E+03  0.22052633007E+03  0.00000000000E+00 0. -1.
         25    2    1    2    0    0  0.31815865318E+02  0.27600350802E+02 -0.80863896703E+02  0.15479237498E+03  0.12509069075E+03 0.  0.
          5    1    3    3  502    0  0.31903668108E+02  0.73978990422E+02 -0.70383332510E+02  0.10706082831E+03  0.41800000000E+01 0. -1.
         -5    1    3    3    0  502 -0.87802789491E-01 -0.46378639620E+02 -0.10480564193E+02  0.47731546677E+02  0.41800000000E+01 0. -1.
        -11    1    1    2    0    0  0.19960475106E+02  0.12793157982E+02 -0.50566918884E+02  0.55848892048E+02  0.00000000000E+00 0. -1.
         11    1    1    2    0    0 -0.51776340424E+02 -0.40393508784E+02 -0.27706090849E+02  0.71274486668E+02  0.00000000000E+00 0.  1.
</event>
<event>
 7    1  0.2601031E-009  0.1298689E+03  0.7561462E-02  0.1227650E+00
          2   -1    0    0  501    0  0.00000000000E+00  0.00000000000E+00  0.18589374886E+03  0.18589374886E+03  0.00000000000E+00 0. -1.
         -2   -1    0    0    0  501 -0.00000000000E+00 -0.00000000000E+00 -0.14509302160E+03  0.14509302160E+03  0.00000000000E+00 0.  1.
         25    2    1    2    0    0  0.12081172911E+02  0.81592501001E+02 -0.66146123325E+02  0.16378657564E+03  0.12508973487E+03 0.  0.
          5    1    3    3  502    0 -0.45035240604E+02  0.17302814755E+02 -0.60513370012E+02  0.77504197595E+02  0.41800000000E+01 0.  1.
         -5    1    3    3    0  502  0.57116413514E+02  0.64289686246E+02 -0.56327533133E+01  0.86282378040E+02  0.41800000000E+01 0.  1.
        -11    1    1    2    0    0  0.19699846022E+01  0.21287687907E+02  0.55912001441E+01  0.22097692522E+02  0.00000000000E+00 0.  1.
         11    1    1    2    0    0 -0.14051157513E+02 -0.10288018891E+03  0.10135565044E+03  0.14510250230E+03  0.00000000000E+00 0. -1.
</event>
<event>
 7    1  0.2601031E-009  0.1054531E+03  0.7561462E-02  0.1269229E+00
         -2   -1    0    0    0  501 -0.00000000000E+00  0.00000000000E+00  0.10447148947E+03  0.10447148947E+03  0.00000000000E+00 0. -1.
          2   -1    0    0  501    0  0.00000000000E+00 -0.00000000000E+00 -0.12524620923E+03  0.12524620923E+03  0.00000000000E+00 0.  1.
         25    2    1    2    0    0 -0.40442218122E+02  0.15185791628E+02  0.41019158993E+01  0.13240403151E+03  0.12509124898E+03 0.  0.
          5    1    3    3  502    0 -0.42442436953E+02  0.67423730678E+02 -0.25770896523E+00  0.79780064721E+02  0.41800000000E+01 0.  1.
         -5    1    3    3    0  502  0.20002188310E+01 -0.52237939050E+02  0.43596248645E+01  0.52623966788E+02  0.41800000000E+01 0.  1.
        -11    1    1    2    0    0  0.44006328994E+02  0.16351134503E+02 -0.40442971635E+02  0.61964106915E+02  0.00000000000E+00 0.  1.
         11    1    1    2    0    0 -0.35641108728E+01 -0.31536926132E+02  0.15566335981E+02  0.35349560280E+02  0.00000000000E+00 0. -1.
</event>
<event>
 7    1  0.2601031E-009  0.1004454E+03  0.7561462E-02  0.1279362E+00
         -1   -1    0    0    0  501 -0.00000000000E+00  0.00000000000E+00  0.31094786530E+02  0.31094786530E+02  0.00000000000E+00 0.  1.
          1   -1    0    0  501    0  0.00000000000E+00 -0.00000000000E+00 -0.51262850917E+03  0.51262850917E+03  0.00000000000E+00 0. -1.
         25    2    1    2    0    0  0.46153482290E+02  0.81704680313E+01 -0.36439036480E+03  0.38810465009E+03  0.12509189016E+03 0.  0.
          5    1    3    3  502    0  0.61264963241E+00 -0.54077569640E+02 -0.18508791512E+03  0.19287241276E+03  0.41800000000E+01 0.  1.
         -5    1    3    3    0  502  0.45540832658E+02  0.62248037671E+02 -0.17930244967E+03  0.19523223733E+03  0.41800000000E+01 0.  1.
        -11    1    1    2    0    0 -0.54844256771E+02 -0.16598088433E+02 -0.12743775466E+03  0.13972748603E+03  0.00000000000E+00 0. -1.
         11    1    1    2    0    0  0.86907744807E+01  0.84276204020E+01  0.10294396824E+02  0.15891159576E+02  0.00000000000E+00 0.  1.
</event>
<event>
 7    1  0.2601031E-009  0.1292449E+03  0.7561462E-02  0.1228581E+00
         -1   -1    0    0    0  501 -0.00000000000E+00  0.00000000000E+00  0.28286498582E+03  0.28286498582E+03  0.00000000000E+00 0.  1.
          1   -1    0    0  501    0  0.00000000000E+00 -0.00000000000E+00 -0.79756498754E+02  0.79756498754E+02  0.00000000000E+00 0. -1.
         25    2    1    2    0    0  0.14929843258E+02  0.10105213797E+03  0.72481347561E+02  0.17701314173E+03  0.12508265985E+03 0.  0.
          5    1    3    3  502    0 -0.34254354713E+02  0.15220744914E+02 -0.18979134110E+02  0.42222172186E+02  0.41800000000E+01 0.  1.
         -5    1    3    3    0  502  0.49184197971E+02  0.85831393056E+02  0.91460481671E+02  0.13479096955E+03  0.41800000000E+01 0.  1.
        -11    1    1    2    0    0  0.26498188991E+02 -0.39096545006E+02  0.87674737811E+02  0.99586914308E+02  0.00000000000E+00 0.  1.
         11    1    1    2    0    0 -0.41428032249E+02 -0.61955592964E+02  0.42952401697E+02  0.86021428534E+02  0.00000000000E+00 0. -1.
</event>
<event>
 7    1  0.2601031E-009  0.1523421E+03  0.7561462E-02  0.1197624E+00
         -1   -1    0    0    0  501 -0.00000000000E+00  0.00000000000E+00  0.16049722409E+03  0.16049722409E+03  0.00000000000E+00 0.  1.
          1   -1    0    0  501    0  0.00000000000E+00 -0.00000000000E+00 -0.16308004332E+03  0.16308004332E+03  0.00000000000E+00 0. -1.
         25    2    1    2    0    0  0.39626351894E+02 -0.10907292945E+03 -0.40824922150E+02  0.17544363056E+03  0.12508653617E+03 0.  0.
          5    1    3    3  502    0  0.19033083179E+02 -0.13105012759E+03 -0.52988854244E+02  0.14269437715E+03  0.41800000000E+01 0.  1.
         -5    1    3    3    0  502  0.20593268715E+02  0.21977198143E+02  0.12163932095E+02  0.32749253405E+02  0.41800000000E+01 0.  1.
        -11    1    1    2    0    0 -0.39393669285E+02  0.73622008384E+01  0.20039224703E+02  0.44806625711E+02  0.00000000000E+00 0.  1.
         11    1    1    2    0    0 -0.23268260912E+00  0.10171072861E+03  0.18202878217E+02  0.10332701114E+03  0.00000000000E+00 0. -1.
</event>
<event>
 7    1  0.2601031E-009  0.1076101E+03  0.7561462E-02  0.1265061E+00
          3   -1    0    0  501    0  0.00000000000E+00  0.00000000000E+00  0.45741704000E+02  0.45741704000E+02  0.00000000000E+00 0. -1.
         -3   -1    0    0    0  501 -0.00000000000E+00 -0.00000000000E+00 -0.26589561448E+03  0.26589561448E+03  0.00000000000E+00 0.  1.
         25    2    1    2    0    0 -0.12444784119E+02 -0.22309720675E+02 -0.13297648776E+03  0.18434346051E+03  0.12508864396E+03 0.  0.
          5    1    3    3  502    0  0.38483284435E+02 -0.53721831157E+02 -0.83641226302E+02  0.10667860826E+03  0.41800000000E+01 0. -1.
         -5    1    3    3    0  502 -0.50928068554E+02  0.31412110482E+02 -0.49335261456E+02  0.77664852247E+02  0.41800000000E+01 0. -1.
        -11    1    1    2    0    0 -0.36703995789E+02  0.13395492566E+02 -0.56436209002E+02  0.68641592453E+02  0.00000000000E+00 0. -1.
         11    1    1    2    0    0  0.49148779908E+02  0.89142281086E+01 -0.30741213720E+02  0.58652265516E+02  0.00000000000E+00 0.  1.
</event>
<event>
 7    1  0.2601031E-009  0.6176925E+02  0.7561462E-02  0.1390553E+00
          1   -1    0    0  501    0  0.00000000000E+00  0.00000000000E+00  0.30366514643E+03  0.30366514643E+03  0.00000000000E+00 0. -1.
         -1   -1    0    0    0  501 -0.00000000000E+00 -0.00000000000E+00 -0.53291176960E+02  0.53291176960E+02  0.00000000000E+00 0.  1.
         25    2    1    2    0    0 -0.48575334134E+02  0.13299018436E+02  0.79410933747E+02  0.15649404189E+03  0.12509141365E+03 0.  0.
          5    1    3    3  502    0  0.47315782578E+01  0.18390482889E+02  0.97805244164E+02  0.99719285395E+02  0.41800000000E+01 0. -1.
         -5    1    3    3    0  502 -0.53306912392E+02 -0.50914644531E+01 -0.18394310418E+02  0.56774756492E+02  0.41800000000E+01 0. -1.
        -11    1    1    2    0    0  0.10557140798E+02 -0.34870230713E+01 -0.10203036596E+02  0.15090212308E+02  0.00000000000E+00 0.  1.
         11    1    1    2    0    0  0.38018193336E+02 -0.98119953646E+01  0.18116607232E+03  0.18537206919E+03  0.00000000000E+00 0. -1.
</event>
<event>
 7    1  0.2601031E-009  0.1844076E+03  0.7561462E-02  0.1163604E+00
          1   -1    0    0  501    0  0.00000000000E+00  0.00000000000E+00  0.98292102907E+03  0.98292102907E+03  0.00000000000E+00 0. -1.
         -1   -1    0    0    0  501 -0.00000000000E+00 -0.00000000000E+00 -0.39639139071E+02  0.39639139071E+02  0.00000000000E+00 0.  1.
         25    2    1    2    0    0  0.32049785109E+02 -0.14382360990E+03  0.46686559044E+03  0.50529574251E+03  0.12509151998E+03 0.  0.
          5    1    3    3  502    0 -0.33103209456E+02 -0.11501525181E+03  0.25467194060E+03  0.28142423555E+03  0.41800000000E+01 0.  1.
         -5    1    3    3    0  502  0.65152994565E+02 -0.28808358091E+02  0.21219364984E+03  0.22387150696E+03  0.41800000000E+01 0.  1.
        -11    1    1    2    0    0 -0.64867479336E+02  0.62827412917E+02  0.36311044388E+03  0.37417144218E+03  0.00000000000E+00 0. -1.
         11    1    1    2    0    0  0.32817694227E+02  0.80996196988E+02  0.11330585567E+03  0.14309298344E+03  0.00000000000E+00 0.  1.
</event>
<event>
 7    1  0.2601031E-009  0.1002232E+03  0.7561462E-02  0.1279827E+00
         -2   -1    0    0    0  501 -0.00000000000E+00  0.00000000000E+00  0.24173530551E+03  0.24173530551E+03  0.00000000000E+00 0.  1.
          2   -1    0    0  501    0  0.00000000000E+00 -0.00000000000E+00 -0.48530356093E+02  0.48530356093E+02  0.00000000000E+00 0. -1.
         25    2    1    2    0    0 -0.61548759610E+01  0.34756408987E+01  0.11453622065E+03  0.16975144787E+03  0.12508815146E+03 0.  0.
          5    1    3    3  502    0 -0.52812301957E+01 -0.60257600580E+02  0.46349644537E+02  0.76319275211E+02  0.41800000000E+01 0.  1.
         -5    1    3    3    0  502 -0.87364576526E+00  0.63733241478E+02  0.68186576114E+02  0.93432172663E+02  0.41800000000E+01 0.  1.
        -11    1    1    2    0    0 -0.30135335168E+02 -0.19890251133E+02  0.71422111128E+02  0.80030484654E+02  0.00000000000E+00 0.  1.
         11    1    1    2    0    0  0.36290211129E+02  0.16414610234E+02  0.72466176401E+01  0.40483729080E+02  0.00000000000E+00 0. -1.
</event>
<event>
 7    1  0.2601031E-009  0.1335508E+03  0.7561462E-02  0.1222280E+00
          4   -1    0    0  501    0  0.00000000000E+00  0.00000000000E+00  0.13241544556E+03  0.13241544556E+03  0.00000000000E+00 0. -1.
         -4   -1    0    0    0  501 -0.00000000000E+00 -0.00000000000E+00 -0.15905294022E+03  0.15905294022E+03  0.00000000000E+00 0.  1.
         25    2    1    2    0    0  0.60674828936E+02 -0.65023577658E+02  0.23669050708E+02  0.15530586733E+03  0.12510071122E+03 0.  0.
          5    1    3    3  502    0  0.91082511688E+02 -0.27225691072E+02  0.41012840801E+02  0.10361847181E+03  0.41800000000E+01 0. -1.
         -5    1    3    3    0  502 -0.30407682753E+02 -0.37797886586E+02 -0.17343790093E+02  0.51687395519E+02  0.41800000000E+01 0. -1.
        -11    1    1    2    0    0  0.50037362313E+01  0.56849444961E+02 -0.38735356835E+02  0.68973361798E+02  0.00000000000E+00 0.  1.
         11    1    1    2    0    0 -0.65678565167E+02  0.81741326974E+01 -0.11571188537E+02  0.67189156654E+02  0.00000000000E+00 0. -1.
</event>
<event>
 7    1  0.2601031E-009  0.1595934E+03  0.7561462E-02  0.1189157E+00
         -2   -1    0    0    0  501 -0.00000000000E+00  0.00000000000E+00  0.84748197457E+02  0.84748197457E+02  0.00000000000E+00 0.  1.
          2   -1    0    0  501    0  0.00000000000E+00 -0.00000000000E+00 -0.35860142372E+03  0.35860142372E+03  0.00000000000E+00 0. -1.
         25    2    1    2    0    0 -0.85948097771E+02 -0.10417351965E+03 -0.16324050302E+03  0.24603456791E+03  0.12508536714E+03 0.  0.
          5    1    3    3  502    0 -0.10671052589E+03 -0.11651835669E+03 -0.12951550052E+03  0.20434138361E+03  0.41800000000E+01 0.  1.
         -5    1    3    3    0  502  0.20762428119E+02  0.12344837041E+02 -0.33725002508E+02  0.41693184300E+02  0.41800000000E+01 0.  1.
        -11    1    1    2    0    0  0.49124653306E+02  0.74919675145E+02 -0.11960132585E+03  0.14943448876E+03  0.00000000000E+00 0. -1.
         11    1    1    2    0    0  0.36823444465E+02  0.29253844505E+02  0.89886026093E+01  0.47880564507E+02  0.00000000000E+00 0.  1.
</event>
<event>
 7    1  0.2601031E-009  0.1474458E+03  0.7561462E-02  0.1203647E+00
          2   -1    0    0  501    0  0.00000000000E+00  0.00000000000E+00  0.93499872691E+03  0.93499872691E+03  0.00000000000E+00 0. -1.
         -2   -1    0    0    0  501 -0.00000000000E+00 -0.00000000000E+00 -0.25867105100E+02  0.25867105100E+02  0.00000000000E+00 0.  1.
         25    2    1    2    0    0  0.36445398956E+02  0.10454245834E+03  0.47773061513E+03  0.50609498683E+03  0.12509277501E+03 0.  0.
          5    1    3    3  502    0  0.74085249942E+01 -0.29033492283E+02  0.90667453043E+02  0.95581846384E+02  0.41800000000E+01 0.  1.
         -5    1    3    3    0  502  0.29036873962E+02  0.13357595062E+03  0.38706316209E+03  0.41051314045E+03  0.41800000000E+01 0.  1.
        -11    1    1    2    0    0 -0.53128168545E+02 -0.59097152701E+02  0.15522782305E+03  0.17438679079E+03  0.00000000000E+00 0.  1.
         11    1    1    2    0    0  0.16682769590E+02 -0.45445305636E+02  0.27617318362E+03  0.28038405439E+03  0.00000000000E+00 0. -1.
</event>
<event>
 7    1  0.2601031E-009  0.1049847E+03  0.7561462E-02  0.1270150E+00
         -2   -1    0    0    0  501 -0.00000000000E+00  0.00000000000E+00  0.57909271261E+02  0.57909271261E+02  0.00000000000E+00 0.  1.
          2   -1    0    0  501    0  0.00000000000E+00 -0.00000000000E+00 -0.25669461000E+03  0.25669461000E+03  0.00000000000E+00 0. -1.
         25    2    1    2    0    0 -0.34357881681E+02  0.28347862396E+02 -0.15288905512E+03  0.20250060079E+03  0.12508942724E+03 0.  0.
          5    1    3    3  502    0  0.16571237518E+02  0.64656164323E+02 -0.56645104181E+02  0.87642259929E+02  0.41800000000E+01 0. -1.
         -5    1    3    3    0  502 -0.50929119200E+02 -0.36308301927E+02 -0.96243950943E+02  0.11485834086E+03  0.41800000000E+01 0. -1.
        -11    1    1    2    0    0 -0.17978332585E+02 -0.20858435294E+02  0.15082039127E+02  0.31396857641E+02  0.00000000000E+00 0.  1.
         11    1    1    2    0    0  0.52336214267E+02 -0.74894271020E+01 -0.60978322743E+02  0.80706422834E+02  0.00000000000E+00 0. -1.
</event>
<event>
 7    1  0.2601031E-009  0.9478446E+02  0.7561462E-02  0.1291662E+00
         -2   -1    0    0    0  501 -0.00000000000E+00  0.00000000000E+00  0.14873119228E+03  0.14873119228E+03  0.00000000000E+00 0.  1.
          2   -1    0    0  501    0  0.00000000000E+00 -0.00000000000E+00 -0.97264881101E+02  0.97264881101E+02  0.00000000000E+00 0. -1.
         25    2    1    2    0    0  0.51399178618E+02 -0.33904016808E+01  0.24049142694E+02  0.13740401610E+03  0.12509249374E+03 0.  0.
          5    1    3    3  502    0  0.66812482717E+02 -0.12057245738E+02  0.64074882365E+02  0.93447032974E+02  0.41800000000E+01 0.  1.
         -5    1    3    3    0  502 -0.15413304099E+02  0.86668440571E+01 -0.40025739671E+02  0.43956983124E+02  0.41800000000E+01 0.  1.
        -11    1    1    2    0    0  0.20538789668E+01 -0.36577534192E+02  0.19151168067E+02  0.41338863854E+02  0.00000000000E+00 0.  1.
         11    1    1    2    0    0 -0.53453057585E+02  0.39967935873E+02  0.82660004137E+01  0.67253193425E+02  0.00000000000E+00 0. -1.
</event>
<event>
 7    1  0.2601031E-009  0.1330544E+03  0.7561462E-02  0.1222993E+00
          2   -1    0    0  501    0  0.00000000000E+00  0.00000000000E+00  0.23650970795E+03  0.23650970795E+03  0.00000000000E+00 0. -1.
         -2   -1    0    0    0  501 -0.00000000000E+00 -0.00000000000E+00 -0.99432922812E+02  0.99432922812E+02  0.00000000000E+00 0.  1.
         25    2    1    2    0    0 -0.72826616784E+02  0.77220200830E+02  0.98548421676E+02  0.19137659412E+03  0.12508610569E+03 0.  0.
          5    1    3    3  502    0 -0.11310702540E+02  0.64551338298E+02 -0.94786261585E+01  0.66348504293E+02  0.41800000000E+01 0. -1.
         -5    1    3    3    0  502 -0.61515914243E+02  0.12668862531E+02  0.10802704783E+03  0.12502808983E+03  0.41800000000E+01 0. -1.
        -11    1    1    2    0    0  0.30410556475E+00 -0.63727300772E+02  0.62095300331E+01  0.64029833727E+02  0.00000000000E+00 0.  1.
         11    1    1    2    0    0  0.72522511219E+02 -0.13492900057E+02  0.32318833433E+02  0.80536202915E+02  0.00000000000E+00 0. -1.
</event>
<event>
 7    1  0.2601031E-009  0.1466889E+03  0.7561462E-02  0.1204602E+00
          2   -1    0    0  501    0  0.00000000000E+00  0.00000000000E+00  0.48949818922E+03  0.48949818922E+03  0.00000000000E+00 0. -1.
         -2   -1    0    0    0  501 -0.00000000000E+00 -0.00000000000E+00 -0.56637043750E+02  0.56637043750E+02  0.00000000000E+00 0.  1.
         25    2    1    2    0    0  0.65197494509E+02  0.11040345143E+03  0.21886949814E+03  0.28282637540E+03  0.12508903240E+03 0.  0.
          5    1    3    3  502    0  0.83361285260E+02  0.82076617252E+02  0.84833884938E+02  0.14456809957E+03  0.41800000000E+01 0. -1.
         -5    1    3    3    0  502 -0.18163790751E+02  0.28326834180E+02  0.13403561320E+03  0.13825827583E+03  0.41800000000E+01 0. -1.
        -11    1    1    2    0    0 -0.65718537411E+02 -0.51475710981E+02  0.74530974427E+02  0.11190862849E+03  0.00000000000E+00 0.  1.
         11    1    1    2    0    0  0.52104290271E+00 -0.58927740450E+02  0.13946067291E+03  0.15140022909E+03  0.00000000000E+00 0. -1.
</event>
<event>
 7    1  0.2601031E-009  0.1200320E+03  0.7561462E-02  0.1243044E+00
         -1   -1    0    0    0  501 -0.00000000000E+00  0.00000000000E+00  0.97193747831E+02  0.97193747831E+02  0.00000000000E+00 0.  1.
          1   -1    0    0  501    0  0.00000000000E+00 -0.00000000000E+00 -0.32731052693E+03  0.32731052693E+03  0.00000000000E+00 0. -1.
         25    2    1    2    0    0  0.24529799465E+02 -0.83320115919E+02 -0.25475553104E+03  0.29680407243E+03  0.12509326136E+03 0.  0.
          5    1    3    3  502    0  0.64296831482E+02 -0.74986943318E+02 -0.22650237302E+03  0.24713947800E+03  0.41800000000E+01 0. -1.
         -5    1    3    3    0  502 -0.39767032017E+02 -0.83331726011E+01 -0.28253158027E+02  0.49664594426E+02  0.41800000000E+01 0. -1.
        -11    1    1    2    0    0 -0.25487877580E+01  0.77596266201E+02 -0.17721012827E+02  0.79634861354E+02  0.00000000000E+00 0. -1.
         11    1    1    2    0    0 -0.21981011707E+02  0.57238497184E+01  0.42359764773E+02  0.48065340973E+02  0.00000000000E+00 0.  1.
</event>
<event>
 7    1  0.2601031E-009  0.1045417E+03  0.7561462E-02  0.1271025E+00
         -2   -1    0    0    0  501 -0.00000000000E+00  0.00000000000E+00  0.65808639242E+02  0.65808639242E+02  0.00000000000E+00 0.  1.
          2   -1    0    0  501    0  0.00000000000E+00 -0.00000000000E+00 -0.36366551675E+03  0.36366551675E+03  0.00000000000E+00 0. -1.
         25    2    1    2    0    0  0.50745932104E+02  0.34216682258E+02 -0.28717660706E+03  0.31916032022E+03  0.12508787067E+03 0.  0.
          5    1    3    3  502    0  0.33162829475E+02  0.81337434140E+02 -0.16500158321E+03  0.18697204688E+03  0.41800000000E+01 0.  1.
         -5    1    3    3    0  502  0.17583102628E+02 -0.47120751882E+02 -0.12217502385E+03  0.13218827334E+03  0.41800000000E+01 0.  1.
        -11    1    1    2    0    0 -0.37085821196E+02 -0.37327114678E+01  0.36721884263E+02  0.52323876505E+02  0.00000000000E+00 0.  1.
         11    1    1    2    0    0 -0.13660110908E+02 -0.30483970790E+02 -0.47402154716E+02  0.57989959276E+02  0.00000000000E+00 0. -1.
</event>
<event>
 7    1  0.2601031E-009  0.1315622E+03  0.7561462E-02  0.1225156E+00
          1   -1    0    0  501    0  0.00000000000E+00  0.00000000000E+00  0.74333529934E+03  0.74333529934E+03  0.00000000000E+00 0. -1.
         -1   -1    0    0    0  501 -0.00000000000E+00 -0.00000000000E+00 -0.34623921781E+02  0.34623921781E+02  0.00000000000E+00 0.  1.
         25    2    1    2    0    0  0.11179648110E+03  0.34065263506E+02  0.38707717210E+03  0.42324706984E+03  0.12510175699E+03 0.  0.
          5    1    3    3  502    0  0.47193567144E+01  0.14230264236E+02  0.23839654668E+03  0.23890407828E+03  0.41800000000E+01 0. -1.
         -5    1    3    3    0  502  0.10707712439E+03  0.19834999270E+02  0.14868062542E+03  0.18434299157E+03  0.41800000000E+01 0. -1.
        -11    1    1    2    0    0 -0.25989271419E+02 -0.45115145653E+02  0.61560120958E+02  0.80625474191E+02  0.00000000000E+00 0.  1.
         11    1    1    2    0    0 -0.85807209685E+02  0.11049882147E+02  0.26007408450E+03  0.27408667709E+03  0.00000000000E+00 0. -1.
</event>
<event>
 7    1  0.2601031E-009  0.1418024E+03  0.7561462E-02  0.1210924E+00
          1   -1    0    0  501    0  0.00000000000E+00  0.00000000000E+00  0.10288246360E+03  0.10288246360E+03  0.00000000000E+00 0. -1.
         -1   -1    0    0    0  501 -0.00000000000E+00 -0.00000000000E+00 -0.29828476910E+03  0.29828476910E+03  0.00000000000E+00 0.  1.
         25    2    1    2    0    0  0.33858511134E+02 -0.11816914201E+03 -0.16943064441E+03  0.24385543150E+03  0.12509349827E+03 0.  0.
          5    1    3    3  502    0  0.61846100465E+02 -0.63280746242E+02 -0.33771071816E+02  0.94801638590E+02  0.41800000000E+01 0. -1.
         -5    1    3    3    0  502 -0.27987589330E+02 -0.54888395770E+02 -0.13565957259E+03  0.14905379291E+03  0.41800000000E+01 0. -1.
        -11    1    1    2    0    0 -0.20133191404E+02  0.11783143684E+03  0.88649424183E+01  0.11986734379E+03  0.00000000000E+00 0. -1.
         11    1    1    2    0    0 -0.13725319730E+02  0.33770517324E+00 -0.34836603512E+02  0.37444457410E+02  0.00000000000E+00 0.  1.
</event>
<event>
 7    1  0.2601031E-009  0.1190635E+03  0.7561462E-02  0.1244650E+00
          2   -1    0    0  501    0  0.00000000000E+00  0.00000000000E+00  0.26790009400E+03  0.26790009400E+03  0.00000000000E+00 0. -1.
         -2   -1    0    0    0  501 -0.00000000000E+00 -0.00000000000E+00 -0.64840042259E+02  0.64840042259E+02  0.00000000000E+00 0.  1.
         25    2    1    2    0    0 -0.48711928297E+02 -0.55473446559E+02  0.12874655130E+03  0.19409364266E+03  0.12508602007E+03 0.  0.
          5    1    3    3  502    0  0.29270925286E+02 -0.14823462246E+02  0.93642583888E+02  0.99312275260E+02  0.41800000000E+01 0.  1.
         -5    1    3    3    0  502 -0.77982853584E+02 -0.40649984313E+02  0.35103967411E+02  0.94781367397E+02  0.41800000000E+01 0.  1.
        -11    1    1    2    0    0  0.74109319019E+02  0.27045978103E+02  0.51751648230E+02  0.94349929474E+02  0.00000000000E+00 0.  1.
         11    1    1    2    0    0 -0.25397390722E+02  0.28427468455E+02  0.22561852210E+02  0.44296564127E+02  0.00000000000E+00 0. -1.
</event>
<event>
 7    1  0.2601031E-009  0.1028363E+03  0.7561462E-02  0.1274442E+00
          1   -1    0    0  501    0  0.00000000000E+00  0.00000000000E+00  0.81215289595E+03  0.81215289595E+03  0.00000000000E+00 0. -1.
         -1   -1    0    0    0  501 -0.00000000000E+00 -0.00000000000E+00 -0.19022688389E+02  0.19022688389E+02  0.00000000000E+00 0.  1.
         25    2    1    2    0    0 -0.51502090152E+02 -0.91933384434E+01  0.34742224658E+03  0.37294293183E+03  0.12508888931E+03 0.  0.
          5    1    3    3  502    0  0.17984856943E+02 -0.23620525766E+02  0.16003044018E+02  0.33984616145E+02  0.41800000000E+01 0.  1.
         -5    1    3    3    0  502 -0.69486947095E+02  0.14427187322E+02  0.33141920256E+03  0.33895831569E+03  0.41800000000E+01 0.  1.
        -11    1    1    2    0    0 -0.15183977204E+02 -0.25310873130E+02  0.91077850702E+02  0.95741152860E+02  0.00000000000E+00 0.  1.
         11    1    1    2    0    0  0.66686067357E+02  0.34504211574E+02  0.35463011028E+03  0.36249149964E+03  0.00000000000E+00 0. -1.
</event>
<event>
 7    1  0.2601031E-009  0.1492810E+03  0.7561462E-02  0.1201359E+00
          1   -1    0    0  501    0  0.00000000000E+00  0.00000000000E+00  0.24479868827E+03  0.24479868827E+03  0.00000000000E+00 0. -1.
         -1   -1    0    0    0  501 -0.00000000000E+00 -0.00000000000E+00 -0.12685813809E+03  0.12685813809E+03  0.00000000000E+00 0.  1.
         25    2    1    2    0    0  0.85120024516E+02 -0.98004118745E+02  0.32910371360E+02  0.18324916122E+03  0.12508771595E+03 0.  0.
          5    1    3    3  502    0  0.63465608270E+02 -0.64842534299E+02 -0.40719393981E+02  0.99538832290E+02  0.41800000000E+01 0. -1.
         -5    1    3    3    0  502  0.21654416246E+02 -0.33161584446E+02  0.73629765341E+02  0.83710328933E+02  0.41800000000E+01 0. -1.
        -11    1    1    2    0    0 -0.98441430893E+02  0.36521030386E+02  0.57824524588E+02  0.11986732925E+03  0.00000000000E+00 0.  1.
         11    1    1    2    0    0  0.13321406377E+02  0.61483088359E+02  0.27205654225E+02  0.68540335890E+02  0.00000000000E+00 0. -1.
</event>
<event>
 7    1  0.2601031E-009  0.7844790E+02  0.7561462E-02  0.1333515E+00
         -1   -1    0    0    0  501 -0.00000000000E+00  0.00000000000E+00  0.46163430472E+02  0.46163430472E+02  0.00000000000E+00 0.  1.
          1   -1    0    0  501    0  0.00000000000E+00 -0.00000000000E+00 -0.33190335392E+03  0.33190335392E+03  0.00000000000E+00 0. -1.
         25    2    1    2    0    0  0.29698570308E+01 -0.68400830379E+00 -0.70663898074E+02  0.14370412594E+03  0.12509277118E+03 0.  0.
          5    1    3    3  502    0 -0.64694348331E+01 -0.44297038242E+02 -0.85410646392E+02  0.96522184503E+02  0.41800000000E+01 0.  1.
         -5    1    3    3    0  502  0.94392918639E+01  0.43613029939E+02  0.14746748319E+02  0.47181941432E+02  0.41800000000E+01 0.  1.
        -11    1    1    2    0    0  0.21705555752E+02 -0.23899233370E+02 -0.18660117930E+03  0.18937345279E+03  0.00000000000E+00 0. -1.
         11    1    1    2    0    0 -0.24675412783E+02  0.24583241674E+02 -0.28474846069E+02  0.44989205659E+02  0.00000000000E+00 0.  1.
</event>
<event>
 7    1  0.2601031E-009  0.1289229E+03  0.7561462E-02  0.1229063E+00
         -1   -1    0    0    0  501 -0.00000000000E+00  0.00000000000E+00  0.14994577380E+03  0.14994577380E+03  0.00000000000E+00 0.  1.
          1   -1    0    0  501    0  0.00000000000E+00 -0.00000000000E+00 -0.15143962995E+03  0.15143962995E+03  0.00000000000E+00 0. -1.
         25    2    1    2    0    0 -0.46641086353E+02  0.63801924802E+02  0.67401590988E+02  0.16259627261E+03  0.12509395212E+03 0.  0.
          5    1    3    3  502    0 -0.87005521997E+02  0.58088740667E+02  0.60845615395E+02  0.12109469007E+03  0.41800000000E+01 0.  1.
         -5    1    3    3    0  502  0.40364435644E+02  0.57131841348E+01  0.65559755926E+01  0.41501582545E+02  0.41800000000E+01 0.  1.
        -11    1    1    2    0    0 -0.22695488712E+02 -0.12459573110E+02 -0.40295040133E+02  0.47895891570E+02  0.00000000000E+00 0. -1.
         11    1    1    2    0    0  0.69336575065E+02 -0.51342351692E+02 -0.28600407005E+02  0.90893239571E+02  0.00000000000E+00 0.  1.
</event>
<event>
 7    1  0.2601031E-009  0.9226489E+02  0.7561462E-02  0.1297458E+00
          2   -1    0    0  501    0  0.00000000000E+00  0.00000000000E+00  0.40287069973E+03  0.40287069973E+03  0.00000000000E+00 0. -1.
         -2   -1    0    0    0  501 -0.00000000000E+00 -0.00000000000E+00 -0.47193183622E+02  0.47193183622E+02  0.00000000000E+00 0.  1.
         25    2    1    2    0    0 -0.65948477209E+02  0.47412353028E+02  0.19424363487E+03  0.24489963352E+03  0.12509239763E+03 0.  0.
          5    1    3    3  502    0 -0.27311914200E+02 -0.11633487240E+02 -0.76913544259E+01  0.30950089104E+02  0.41800000000E+01 0.  1.
         -5    1    3    3    0  502 -0.38636563009E+02  0.59045840268E+02  0.20193498929E+03  0.21394954441E+03  0.41800000000E+01 0.  1.
        -11    1    1    2    0    0  0.37006924111E+02 -0.38911443089E+02  0.16616930228E+03  0.17463060974E+03  0.00000000000E+00 0. -1.
         11    1    1    2    0    0  0.28941553098E+02 -0.85009099386E+01 -0.47354210379E+01  0.30533640102E+02  0.00000000000E+00 0.  1.
</event>
<event>
 7    1  0.2601031E-009  0.1546179E+03  0.7561462E-02  0.1194911E+00
          2   -1    0    0  501    0  0.00000000000E+00  0.00000000000E+00  0.56031370817E+03  0.56031370817E+03  0.00000000000E+00 0. -1.
         -2   -1    0    0    0  501 -0.00000000000E+00 -0.00000000000E+00 -0.43663590815E+02  0.43663590815E+02  0.00000000000E+00 0.  1.
         25    2    1    2    0    0  0.86360181096E+02  0.70313660123E+02  0.31240252258E+03  0.35445927815E+03  0.12507578531E+03 0.  0.
          5    1    3    3  502    0  0.11816615262E+03  0.58164176830E+02  0.22779314217E+03  0.26316059567E+03  0.41800000000E+01 0. -1.
         -5    1    3    3    0  502 -0.31805971529E+02  0.12149483293E+02  0.84609380413E+02  0.91298682483E+02  0.41800000000E+01 0. -1.
        -11    1    1    2    0    0 -0.72364855142E+02 -0.92184849223E+02  0.17166112073E+03  0.20785153129E+03  0.00000000000E+00 0. -1.
         11    1    1    2    0    0 -0.13995325953E+02  0.21871189100E+02  0.32586474040E+02  0.41666489551E+02  0.00000000000E+00 0.  1.
</event>
<event>
 7    1  0.2601031E-009  0.7971536E+02  0.7561462E-02  0.1329861E+00
          3   -1    0    0  501    0  0.00000000000E+00  0.00000000000E+00  0.23166868133E+03  0.23166868133E+03  0.00000000000E+00 0. -1.
         -3   -1    0    0    0  501 -0.00000000000E+00 -0.00000000000E+00 -0.52199810599E+02  0.52199810599E+02  0.00000000000E+00 0.  1.
         25    2    1    2    0    0 -0.67582355881E+01 -0.12998492715E+02  0.12211629003E+03  0.17542644657E+03  0.12508962909E+03 0.  0.
          5    1    3    3  502    0  0.18277591904E+02 -0.43409925598E+02  0.12699717920E+03  0.13551475171E+03  0.41800000000E+01 0. -1.
         -5    1    3    3    0  502 -0.25035827492E+02  0.30411432883E+02 -0.48808891700E+01  0.39911694869E+02  0.41800000000E+01 0. -1.
        -11    1    1    2    0    0 -0.30967567747E+02  0.15681230252E+02  0.61269127829E+02  0.70418728044E+02  0.00000000000E+00 0. -1.
         11    1    1    2    0    0  0.37725803335E+02 -0.26827375364E+01 -0.39165471238E+01  0.38023317311E+02  0.00000000000E+00 0.  1.
</event>
<event>
 7    1  0.2601031E-009  0.1046647E+03  0.7561462E-02  0.1270782E+00
          2   -1    0    0  501    0  0.00000000000E+00  0.00000000000E+00  0.44290038627E+03  0.44290038627E+03  0.00000000000E+00 0. -1.
         -2   -1    0    0    0  501 -0.00000000000E+00 -0.00000000000E+00 -0.45416026973E+02  0.45416026973E+02  0.00000000000E+00 0.  1.
         25    2    1    2    0    0  0.33517928091E+02 -0.70286454701E+02  0.29696716196E+03  0.33151170271E+03  0.12508747554E+03 0.  0.
          5    1    3    3  502    0 -0.14167279065E+02 -0.33446848962E+02  0.25583348979E+03  0.25843306754E+03  0.41800000000E+01 0.  1.
         -5    1    3    3    0  502  0.47685207156E+02 -0.36839605739E+02  0.41133672169E+02  0.73078635172E+02  0.41800000000E+01 0.  1.
        -11    1    1    2    0    0  0.23612391239E+02  0.42987925331E+02  0.72580601944E+02  0.87598233560E+02  0.00000000000E+00 0.  1.
         11    1    1    2    0    0 -0.57130319330E+02  0.27298529370E+02  0.27936595399E+02  0.69206476973E+02  0.00000000000E+00 0. -1.
</event>
<event>
 7    1  0.4504863E-009  0.1100635E+03  0.7561462E-02  0.1260452E+00
          2   -1    0    0  501    0  0.00000000000E+00  0.00000000000E+00  0.15120357009E+03  0.15120357009E+03  0.00000000000E+00 0. -1.
         -2   -1    0    0    0  501 -0.00000000000E+00 -0.00000000000E+00 -0.14883122812E+03  0.14883122812E+03  0.00000000000E+00 0.  1.
         25    2    1    2    0    0 -0.31967542997E+02 -0.76065740774E+02 -0.60306871437E+02  0.16153038630E+03  0.12508887333E+03 0.  0.
          5    1    3    3  502    0 -0.59285294635E+02 -0.41919561959E+02 -0.84412832307E+02  0.11142259418E+03  0.41800000000E+01 0. -1.
         -5    1    3    3    0  502  0.27317751638E+02 -0.34146178815E+02  0.24105960870E+02  0.50107792126E+02  0.41800000000E+01 0. -1.
        -11    1    1    2    0    0 -0.18972169423E+02  0.24491803593E+02 -0.13100443151E+02  0.33636487133E+02  0.00000000000E+00 0.  1.
         11    1    1    2    0    0  0.50939712420E+02  0.51573937181E+02  0.75779656564E+02  0.10486792478E+03  0.00000000000E+00 0. -1.
</event>
<event>
 7    1  0.2601031E-009  0.1929964E+03  0.7561462E-02  0.1155786E+00
          2   -1    0    0  501    0  0.00000000000E+00  0.00000000000E+00  0.15942346802E+03  0.15942346802E+03  0.00000000000E+00 0. -1.
         -2   -1    0    0    0  501 -0.00000000000E+00 -0.00000000000E+00 -0.30103721769E+03  0.30103721769E+03  0.00000000000E+00 0.  1.
         25    2    1    2    0    0  0.99178655043E+02 -0.14273274704E+03 -0.15345157228E+03  0.26344552683E+03  0.12508844022E+03 0.  0.
          5    1    3    3  502    0  0.99494217770E+02 -0.16297294693E+03 -0.12492258741E+03  0.22821570070E+03  0.41800000000E+01 0. -1.
         -5    1    3    3    0  502 -0.31556272750E+00  0.20240199887E+02 -0.28528984873E+02  0.35229826130E+02  0.41800000000E+01 0. -1.
        -11    1    1    2    0    0 -0.39788606753E+01  0.11782449508E+02 -0.27696151611E+02  0.30360076790E+02  0.00000000000E+00 0.  1.
         11    1    1    2    0    0 -0.95199794367E+02  0.13095029753E+03  0.39533974225E+02  0.16665508210E+03  0.00000000000E+00 0. -1.
</event>
<event>
 7    1  0.2601031E-009  0.7899226E+02  0.7561462E-02  0.1331936E+00
         -4   -1    0    0    0  501 -0.00000000000E+00  0.00000000000E+00  0.30094438467E+03  0.30094438467E+03  0.00000000000E+00 0.  1.
          4   -1    0    0  501    0  0.00000000000E+00 -0.00000000000E+00 -0.41017346560E+02  0.41017346560E+02  0.00000000000E+00 0. -1.
         25    2    1    2    0    0  0.18820315706E+02 -0.21786807827E+02  0.12994718247E+03  0.18265489634E+03  0.12509065372E+03 0.  0.
          5    1    3    3  502    0 -0.42022128629E+01  0.37592726867E+02  0.10904590044E+03  0.11549611469E+03  0.41800000000E+01 0.  1.
         -5    1    3    3    0  502  0.23022528569E+02 -0.59379534694E+02  0.20901282031E+02  0.67158781650E+02  0.41800000000E+01 0.  1.
        -11    1    1    2    0    0  0.16063764897E+02  0.11428843804E+02 -0.43047497263E+01  0.20179045656E+02  0.00000000000E+00 0. -1.
         11    1    1    2    0    0 -0.34884080604E+02  0.10357964023E+02  0.13428460537E+03  0.13912778923E+03  0.00000000000E+00 0.  1.
</event>
<event>
 7    1  0.2601031E-009  0.9339993E+02  0.7561462E-02  0.1294821E+00
         -1   -1    0    0    0  501 -0.00000000000E+00  0.00000000000E+00  0.11976294826E+03  0.11976294826E+03  0.00000000000E+00 0.  1.
          1   -1    0    0  501    0  0.00000000000E+00 -0.00000000000E+00 -0.18898904908E+03  0.18898904908E+03  0.00000000000E+00 0. -1.
         25    2    1    2    0    0 -0.35621475337E+02 -0.40488614085E+02  0.54529480274E+02  0.14672927060E+03  0.12509115579E+03 0.  0.
          5    1    3    3  502    0 -0.34076402474E+02  0.37429669188E+02  0.45450805161E+02  0.68157387207E+02  0.41800000000E+01 0.  1.
         -5    1    3    3    0  502 -0.15450728631E+01 -0.77918283274E+02  0.90786751134E+01  0.78571883395E+02  0.41800000000E+01 0.  1.
        -11    1    1    2    0    0  0.27727192248E+02  0.15516081006E+02  0.36232012451E+01  0.31979267455E+02  0.00000000000E+00 0.  1.
         11    1    1    2    0    0  0.78942830891E+01  0.24972533080E+02 -0.12737878234E+03  0.13004345929E+03  0.00000000000E+00 0. -1.
</event>
<event>
 7    1  0.2601031E-009  0.2516810E+03  0.7561462E-02  0.1112247E+00
          1   -1    0    0  501    0  0.00000000000E+00  0.00000000000E+00  0.10301380417E+04  0.10301380417E+04  0.00000000000E+00 0. -1.
         -1   -1    0    0    0  501 -0.00000000000E+00 -0.00000000000E+00 -0.73005385033E+02  0.73005385033E+02  0.00000000000E+00 0.  1.
         25    2    1    2    0    0  0.92085895079E+01  0.23889294500E+03  0.32287058010E+03  0.42077048175E+03  0.12509096500E+03 0.  0.
          5    1    3    3  502    0  0.46006302682E+02  0.15195882231E+03  0.12721888436E+03  0.20349491517E+03  0.41800000000E+01 0. -1.
         -5    1    3    3    0  502 -0.36797713174E+02  0.86934122694E+02  0.19565169575E+03  0.21727556658E+03  0.41800000000E+01 0. -1.
        -11    1    1    2    0    0 -0.40133574511E+02 -0.16747505500E+03  0.39923741608E+03  0.43479778316E+03  0.00000000000E+00 0.  1.
         11    1    1    2    0    0  0.30924985004E+02 -0.71417890006E+02  0.23502466045E+03  0.24757516178E+03  0.00000000000E+00 0. -1.
</event>
<event>
 7    1  0.2601031E-009  0.1294487E+03  0.7561462E-02  0.1228276E+00
         -1   -1    0    0    0  501 -0.00000000000E+00  0.00000000000E+00  0.15547759654E+03  0.15547759654E+03  0.00000000000E+00 0.  1.
          1   -1    0    0  501    0  0.00000000000E+00 -0.00000000000E+00 -0.12589428508E+03  0.12589428508E+03  0.00000000000E+00 0. -1.
         25    2    1    2    0    0 -0.75990270784E+02 -0.46246077092E+02  0.16671914490E+02  0.15439805526E+03  0.12509031071E+03 0.  0.
          5    1    3    3  502    0 -0.27299425368E+02 -0.86108850820E+02  0.97743019092E+01  0.90956045389E+02  0.41800000000E+01 0. -1.
         -5    1    3    3    0  502 -0.48690845416E+02  0.39862773728E+02  0.68976125807E+01  0.63442009867E+02  0.41800000000E+01 0. -1.
        -11    1    1    2    0    0  0.39978870449E+02 -0.75302163621E+01 -0.28918159548E+02  0.49912665652E+02  0.00000000000E+00 0. -1.
         11    1    1    2    0    0  0.36011400336E+02  0.53776293454E+02  0.41829556524E+02  0.77061160715E+02  0.00000000000E+00 0.  1.
</event>
<event>
 7    1  0.2601031E-009  0.1152309E+03  0.7561462E-02  0.1251179E+00
         -1   -1    0    0    0  501 -0.00000000000E+00  0.00000000000E+00  0.32534259962E+03  0.32534259962E+03  0.00000000000E+00 0.  1.
          1   -1    0    0  501    0  0.00000000000E+00 -0.00000000000E+00 -0.59911373966E+02  0.59911373966E+02  0.00000000000E+00 0. -1.
         25    2    1    2    0    0  0.57504619397E+02 -0.38163963881E+02  0.70065188363E+02  0.15912276032E+03  0.12509057854E+03 0.  0.
          5    1    3    3  502    0  0.92730730089E+02 -0.42916145089E+02  0.68906092450E+02  0.12331385076E+03  0.41800000000E+01 0.  1.
         -5    1    3    3    0  502 -0.35226110691E+02  0.47521812076E+01  0.11590959136E+01  0.35808909562E+02  0.41800000000E+01 0.  1.
        -11    1    1    2    0    0  0.10818637156E+02 -0.46511344546E+01 -0.28735086861E+01  0.12121592874E+02  0.00000000000E+00 0. -1.
         11    1    1    2    0    0 -0.68323256553E+02  0.42815098336E+02  0.19823954598E+03  0.21400962040E+03  0.00000000000E+00 0.  1.
</event>
<event>
 7    1  0.2601031E-009  0.1140104E+03  0.7561462E-02  0.1253319E+00
          1   -1    0    0  501    0  0.00000000000E+00  0.00000000000E+00  0.37917764809E+03  0.37917764809E+03  0.00000000000E+00 0. -1.
         -1   -1    0    0    0  501 -0.00000000000E+00 -0.00000000000E+00 -0.46942327391E+02  0.46942327391E+02  0.00000000000E+00 0.  1.
         25    2    1    2    0    0  0.44731452513E+02 -0.34217788209E+02  0.98922906212E+02  0.16912909975E+03  0.12508857315E+03 0.  0.
          5    1    3    3  502    0 -0.24095753485E+02 -0.58857038926E+02  0.41243567330E+02  0.75916141981E+02  0.41800000000E+01 0.  1.
         -5    1    3    3    0  502  0.68827205998E+02  0.24639250717E+02  0.57679338883E+02  0.93212957765E+02  0.41800000000E+01 0.  1.
        -11    1    1    2    0    0  0.40121208016E+01  0.41572638607E+02  0.17828722502E+03  0.18311394266E+03  0.00000000000E+00 0. -1.
         11    1    1    2    0    0 -0.48743573315E+02 -0.73548503986E+01  0.55025189472E+02  0.73876933073E+02  0.00000000000E+00 0.  1.
</event>
<event>
 7    1  0.2601031E-009  0.2890823E+03  0.7561462E-02  0.1090829E+00
          1   -1    0    0  501    0  0.00000000000E+00  0.00000000000E+00  0.49973137594E+03  0.49973137594E+03  0.00000000000E+00 0. -1.
         -1   -1    0    0    0  501 -0.00000000000E+00 -0.00000000000E+00 -0.21088606738E+03  0.21088606738E+03  0.00000000000E+00 0.  1.
         25    2    1    2    0    0 -0.22496260621E+03  0.15688166524E+03  0.29495234007E+03  0.42174092554E+03  0.12509394181E+03 0.  0.
          5    1    3    3  502    0  0.10885257333E+02  0.31112613207E+02  0.43544858839E+02  0.54773265916E+02  0.41800000000E+01 0. -1.
         -5    1    3    3    0  502 -0.23584786355E+03  0.12576905204E+03  0.25140748123E+03  0.36696765963E+03  0.41800000000E+01 0. -1.
        -11    1    1    2    0    0  0.16004800688E+03 -0.86711878445E+02 -0.41926682247E+02  0.18679443529E+03  0.00000000000E+00 0.  1.
         11    1    1    2    0    0  0.64914599336E+02 -0.70169786799E+02  0.35819650735E+02  0.10208208249E+03  0.00000000000E+00 0. -1.
</event>
<event>
 7    1  0.2601031E-009  0.1016432E+03  0.7561462E-02  0.1276878E+00
          1   -1    0    0  501    0  0.00000000000E+00  0.00000000000E+00  0.93022541755E+03  0.93022541755E+03  0.00000000000E+00 0. -1.
         -1   -1    0    0    0  501 -0.00000000000E+00 -0.00000000000E+00 -0.16661443966E+02  0.16661443966E+02  0.00000000000E+00 0.  1.
         25    2    1    2    0    0 -0.40697397877E+02  0.46070720625E+02  0.53171528933E+03  0.54967924006E+03  0.12508928232E+03 0.  0.
          5    1    3    3  502    0 -0.15660666247E+02 -0.19086152667E+02  0.39796991050E+03  0.39875689305E+03  0.41800000000E+01 0.  1.
         -5    1    3    3    0  502 -0.25036731630E+02  0.65156873293E+02  0.13374537883E+03  0.15092234700E+03  0.41800000000E+01 0.  1.
        -11    1    1    2    0    0 -0.22853446692E+02  0.86704722261E+01  0.11143289688E+03  0.11408219678E+03  0.00000000000E+00 0. -1.
         11    1    1    2    0    0  0.63550844569E+02 -0.54741192851E+02  0.27041578737E+03  0.28312542468E+03  0.00000000000E+00 0.  1.
</event>
<event>
 7    1  0.2601031E-009  0.1145419E+03  0.7561462E-02  0.1252383E+00
         -1   -1    0    0    0  501 -0.00000000000E+00  0.00000000000E+00  0.30038750532E+03  0.30038750532E+03  0.00000000000E+00 0.  1.
          1   -1    0    0  501    0  0.00000000000E+00 -0.00000000000E+00 -0.61655825269E+02  0.61655825269E+02  0.00000000000E+00 0. -1.
         25    2    1    2    0    0 -0.47377212363E+02  0.70996134078E+02  0.15764806306E+03  0.21859667734E+03  0.12508614733E+03 0.  0.
          5    1    3    3  502    0  0.87861490799E+01 -0.27127741950E+02  0.60715139372E+01  0.29452444388E+02  0.41800000000E+01 0.  1.
         -5    1    3    3    0  502 -0.56163361443E+02  0.98123876028E+02  0.15157654912E+03  0.18914423295E+03  0.41800000000E+01 0.  1.
        -11    1    1    2    0    0  0.98452786855E+01 -0.29860948106E+02 -0.13076919180E+02  0.34053069604E+02  0.00000000000E+00 0.  1.
         11    1    1    2    0    0  0.37531933678E+02 -0.41135185972E+02  0.94160536168E+02  0.10939358364E+03  0.00000000000E+00 0. -1.
</event>
<event>
 7    1  0.2601031E-009  0.1178245E+03  0.7561462E-02  0.1246730E+00
          4   -1    0    0  501    0  0.00000000000E+00  0.00000000000E+00  0.64646116240E+02  0.64646116240E+02  0.00000000000E+00 0. -1.
         -4   -1    0    0    0  501 -0.00000000000E+00 -0.00000000000E+00 -0.22772457242E+03  0.22772457242E+03  0.00000000000E+00 0.  1.
         25    2    1    2    0    0  0.47561474423E+02 -0.21953003533E+02 -0.11090123316E+03  0.17518742997E+03  0.12509006312E+03 0.  0.
          5    1    3    3  502    0 -0.40660574025E+02 -0.65884805395E+01 -0.15325731154E+02  0.44147942096E+02  0.41800000000E+01 0. -1.
         -5    1    3    3    0  502  0.88222048449E+02 -0.15364522994E+02 -0.95575502003E+02  0.13103948787E+03  0.41800000000E+01 0. -1.
        -11    1    1    2    0    0  0.17112249214E+02  0.34691908920E+02 -0.14876179493E+02  0.41444641801E+02  0.00000000000E+00 0.  1.
         11    1    1    2    0    0 -0.64673723637E+02 -0.12738905387E+02 -0.37301043528E+02  0.75738616886E+02  0.00000000000E+00 0. -1.
</event>
<event>
 7    1  0.2601031E-009  0.8784475E+02  0.7561462E-02  0.1308156E+00
         -1   -1    0    0    0  501 -0.00000000000E+00  0.00000000000E+00  0.44246384268E+02  0.44246384268E+02  0.00000000000E+00 0.  1.
          1   -1    0    0  501    0  0.00000000000E+00 -0.00000000000E+00 -0.38314345562E+03  0.38314345562E+03  0.00000000000E+00 0. -1.
         25    2    1    2    0    0  0.59203807278E+02  0.16017605375E+02 -0.24533241708E+03  0.28212949206E+03  0.12508957167E+03 0.  0.
          5    1    3    3  502    0  0.33343030589E+02 -0.24916743180E+02 -0.22597904743E+03  0.22981863296E+03  0.41800000000E+01 0. -1.
         -5    1    3    3    0  502  0.25860776689E+02  0.40934348555E+02 -0.19353369650E+02  0.52310859096E+02  0.41800000000E+01 0. -1.
        -11    1    1    2    0    0 -0.48371187492E+02  0.16400894757E+02 -0.62045105255E+01  0.51451502204E+02  0.00000000000E+00 0.  1.
         11    1    1    2    0    0 -0.10832619786E+02 -0.32418500132E+02 -0.87360143745E+02  0.93808845624E+02  0.00000000000E+00 0. -1.
</event>
<event>
 7    1  0.2601031E-009  0.1145229E+03  0.7561462E-02  0.1252416E+00
          1   -1    0    0  501    0  0.00000000000E+00  0.00000000000E+00  0.57651126754E+03  0.57651126754E+03  0.00000000000E+00 0. -1.
         -1   -1    0    0    0  501 -0.00000000000E+00 -0.00000000000E+00 -0.63847207779E+02  0.63847207779E+02  0.00000000000E+00 0.  1.
         25    2    1    2    0    0  0.39449247326E+02  0.19168220354E+02  0.52396024651E+03  0.54046786859E+03  0.12509002064E+03 0.  0.
          5    1    3    3  502    0  0.84412411610E+02  0.99770199013E+01  0.30125617821E+03  0.31304592869E+03  0.41800000000E+01 0. -1.
         -5    1    3    3    0  502 -0.44963164284E+02  0.91912004528E+01  0.22270406830E+03  0.22742193990E+03  0.41800000000E+01 0. -1.
        -11    1    1    2    0    0 -0.19990004113E+02  0.34997976355E+02  0.35219371268E+01  0.40458159307E+02  0.00000000000E+00 0.  1.
         11    1    1    2    0    0 -0.19459243213E+02 -0.54166196709E+02 -0.14818123873E+02  0.59432447430E+02  0.00000000000E+00 0. -1.
</event>
<event>
 7    1  0.2601031E-009  0.1739009E+03  0.7561462E-02  0.1173840E+00
         -2   -1    0    0    0  501 -0.00000000000E+00  0.00000000000E+00  0.76833854517E+03  0.76833854517E+03  0.00000000000E+00 0.  1.
          2   -1    0    0  501    0  0.00000000000E+00 -0.00000000000E+00 -0.44358597082E+02  0.44358597082E+02  0.00000000000E+00 0. -1.
         25    2    1    2    0    0 -0.14499228408E+03  0.37808290085E+02  0.38501134463E+03  0.43166318453E+03  0.12508852922E+03 0.  0.
          5    1    3    3  502    0  0.74853257906E+01  0.36043420606E+02  0.40498699082E+02  0.54888753843E+02  0.41800000000E+01 0. -1.
         -5    1    3    3    0  502 -0.15247760987E+03  0.17648694788E+01  0.34451264555E+03  0.37677443069E+03  0.41800000000E+01 0. -1.
        -11    1    1    2    0    0  0.47576403555E+02  0.11612025788E+02  0.41667411253E+02  0.64300283659E+02  0.00000000000E+00 0. -1.
         11    1    1    2    0    0  0.97415880525E+02 -0.49420315873E+02  0.29730119221E+03  0.31673367407E+03  0.00000000000E+00 0.  1.
</event>
<event>
 7    1  0.2939892E-009  0.1106340E+03  0.7561462E-02  0.1259400E+00
          2   -1    0    0  501    0  0.00000000000E+00  0.00000000000E+00  0.11024170140E+04  0.11024170140E+04  0.00000000000E+00 0. -1.
         -2   -1    0    0    0  501 -0.00000000000E+00 -0.00000000000E+00 -0.16534593864E+02  0.16534593864E+02  0.00000000000E+00 0.  1.
         25    2    1    2    0    0  0.27823690301E+02  0.41247768590E+02  0.85974898114E+03  0.87022384312E+03  0.12508273427E+03 0.  0.
          5    1    3    3  502    0  0.74334372328E+02  0.10128936848E+02  0.58474579826E+03  0.58955348803E+03  0.41800000000E+01 0.  1.
         -5    1    3    3    0  502 -0.46510682027E+02  0.31118831742E+02  0.27500318288E+03  0.28067035509E+03  0.41800000000E+01 0.  1.
        -11    1    1    2    0    0  0.25264615848E+02 -0.22134646559E+02  0.31385127734E+02  0.45970312541E+02  0.00000000000E+00 0.  1.
         11    1    1    2    0    0 -0.53088306149E+02 -0.19113122031E+02  0.19474831128E+03  0.20275745222E+03  0.00000000000E+00 0. -1.
</event>
<event>
 7    1  0.2601031E-009  0.8424949E+02  0.7561462E-02  0.1317407E+00
         -1   -1    0    0    0  501 -0.00000000000E+00  0.00000000000E+00  0.35183261861E+03  0.35183261861E+03  0.00000000000E+00 0.  1.
          1   -1    0    0  501    0  0.00000000000E+00 -0.00000000000E+00 -0.58346861846E+02  0.58346861846E+02  0.00000000000E+00 0. -1.
         25    2    1    2    0    0 -0.65062374258E+02 -0.35660070190E+01  0.63464184887E+02  0.15466567129E+03  0.12509171900E+03 0.  0.
          5    1    3    3  502    0 -0.67071837844E+02  0.70865281954E+01 -0.19940788887E+02  0.70455360159E+02  0.41800000000E+01 0.  1.
         -5    1    3    3    0  502  0.20094635868E+01 -0.10652535214E+02  0.83404973773E+02  0.84210311129E+02  0.41800000000E+01 0.  1.
        -11    1    1    2    0    0  0.43253034101E+02  0.31760067314E+02  0.20514364483E+03  0.21204584846E+03  0.00000000000E+00 0.  1.
         11    1    1    2    0    0  0.21809340156E+02 -0.28194060295E+02  0.24877927049E+02  0.43467960710E+02  0.00000000000E+00 0. -1.
</event>
<event>
 7    1  0.3478550E-009  0.7933050E+02  0.7561462E-02  0.1330962E+00
         -2   -1    0    0    0  501 -0.00000000000E+00  0.00000000000E+00  0.11943646851E+03  0.11943646851E+03  0.00000000000E+00 0.  1.
          2   -1    0    0  501    0  0.00000000000E+00 -0.00000000000E+00 -0.13938167321E+03  0.13938167321E+03  0.00000000000E+00 0. -1.
         25    2    1    2    0    0  0.38296478999E+02 -0.46424843725E+02 -0.45161961624E+02  0.14597539503E+03  0.12508927515E+03 0.  0.
          5    1    3    3  502    0 -0.22670078104E+02 -0.20602059638E+02  0.31809959707E+02  0.44359026580E+02  0.41800000000E+01 0.  1.
         -5    1    3    3    0  502  0.60966557103E+02 -0.25822784087E+02 -0.76971921332E+02  0.10161636845E+03  0.41800000000E+01 0.  1.
        -11    1    1    2    0    0 -0.35771017883E+02  0.36283626314E+02 -0.28321583488E+02  0.58293904914E+02  0.00000000000E+00 0. -1.
         11    1    1    2    0    0 -0.25254611159E+01  0.10141217411E+02  0.53538340418E+02  0.54548841776E+02  0.00000000000E+00 0.  1.
</event>
<event>
 7    1  0.2601031E-009  0.3607001E+03  0.7561462E-02  0.1058307E+00
         -1   -1    0    0    0  501 -0.00000000000E+00  0.00000000000E+00  0.10477927150E+03  0.10477927150E+03  0.00000000000E+00 0.  1.
          1   -1    0    0  501    0  0.00000000000E+00 -0.00000000000E+00 -0.15727505403E+04  0.15727505403E+04  0.00000000000E+00 0. -1.
         25    2    1    2    0    0  0.88452009316E+02  0.33413842312E+03 -0.11203600613E+04  0.11791209882E+04  0.12508954417E+03 0.  0.
          5    1    3    3  502    0 -0.25146343822E+02  0.29042896600E+02 -0.77196593348E+02  0.86328528744E+02  0.41800000000E+01 0.  1.
         -5    1    3    3    0  502  0.11359835314E+03  0.30509552652E+03 -0.10431634679E+04  0.10927924594E+04  0.41800000000E+01 0.  1.
        -11    1    1    2    0    0 -0.14273055097E+02 -0.22357611139E+03 -0.21641428343E+03  0.31148858688E+03  0.00000000000E+00 0. -1.
         11    1    1    2    0    0 -0.74178954219E+02 -0.11056231173E+03 -0.13119692412E+03  0.18692023679E+03  0.00000000000E+00 0.  1.
</event>
<event>
 7    1  0.2601031E-009  0.1780265E+03  0.7561462E-02  0.1169727E+00
          1   -1    0    0  501    0  0.00000000000E+00  0.00000000000E+00  0.80877221907E+03  0.80877221907E+03  0.00000000000E+00 0. -1.
         -1   -1    0    0    0  501 -0.00000000000E+00 -0.00000000000E+00 -0.47875922295E+02  0.47875922295E+02  0.00000000000E+00 0.  1.
         25    2    1    2    0    0 -0.98533746519E+01  0.14615473454E+03  0.55880087088E+03  0.59107040113E+03  0.12509000909E+03 0.  0.
          5    1    3    3  502    0  0.40513066489E+02  0.15026764904E+02  0.69107369838E+02  0.81611354514E+02  0.41800000000E+01 0.  1.
         -5    1    3    3    0  502 -0.50366441141E+02  0.13112796964E+03  0.48969350104E+03  0.50945904662E+03  0.41800000000E+01 0.  1.
        -11    1    1    2    0    0 -0.40516765310E+02 -0.64505376850E+02  0.83211453495E+02  0.11281266731E+03  0.00000000000E+00 0. -1.
         11    1    1    2    0    0  0.50370139962E+02 -0.81649357691E+02  0.11888397240E+03  0.15276507292E+03  0.00000000000E+00 0.  1.
</event>
<event>
 7    1  0.2601031E-009  0.2423180E+03  0.7561462E-02  0.1118258E+00
         -2   -1    0    0    0  501 -0.00000000000E+00  0.00000000000E+00  0.10297106233E+04  0.10297106233E+04  0.00000000000E+00 0.  1.
          2   -1    0    0  501    0  0.00000000000E+00 -0.00000000000E+00 -0.11181205937E+03  0.11181205937E+03  0.00000000000E+00 0. -1.
         25    2    1    2    0    0 -0.17486691850E+03  0.13150965530E+03  0.86150011219E+03  0.89760977661E+03  0.12509052380E+03 0.  0.
          5    1    3    3  502    0 -0.16015383953E+02  0.79723910377E+02  0.35615908342E+03  0.36534799782E+03  0.41800000000E+01 0.  1.
         -5    1    3    3    0  502 -0.15885153455E+03  0.51785744927E+02  0.50534102877E+03  0.53226177879E+03  0.41800000000E+01 0.  1.
        -11    1    1    2    0    0  0.49642822386E+02 -0.92399252186E+02  0.12801099389E+02  0.10566882116E+03  0.00000000000E+00 0. -1.
         11    1    1    2    0    0  0.12522409612E+03 -0.39110403118E+02  0.43597352374E+02  0.13824408492E+03  0.00000000000E+00 0.  1.
</event>
<event>
 7    1  0.2601031E-009  0.1115780E+03  0.7561462E-02  0.1257675E+00
         -1   -1    0    0    0  501 -0.00000000000E+00  0.00000000000E+00  0.21586447421E+02  0.21586447421E+02  0.00000000000E+00 0.  1.
          1   -1    0    0  501    0  0.00000000000E+00 -0.00000000000E+00 -0.10757798639E+04  0.10757798639E+04  0.00000000000E+00 0. -1.
         25    2    1    2    0    0  0.68889263107E+02 -0.33672239241E+01 -0.87084148905E+03  0.88247946135E+03  0.12509209362E+03 0.  0.
          5    1    3    3  502    0  0.70535805374E+02 -0.55893960449E+02 -0.55861571235E+03  0.56583427003E+03  0.41800000000E+01 0. -1.
         -5    1    3    3    0  502 -0.16465422669E+01  0.52526736525E+02 -0.31222577670E+03  0.31664519132E+03  0.41800000000E+01 0. -1.
        -11    1    1    2    0    0 -0.61946028891E+02 -0.12346364399E+02 -0.18695222284E+03  0.19733442891E+03  0.00000000000E+00 0. -1.
         11    1    1    2    0    0 -0.69432342158E+01  0.15713588323E+02  0.36002953773E+01  0.17552421091E+02  0.00000000000E+00 0.  1.
</event>
<event>
 7    1  0.2601031E-009  0.1207190E+03  0.7561462E-02  0.1241916E+00
          2   -1    0    0  501    0  0.00000000000E+00  0.00000000000E+00  0.21555276653E+03  0.21555276653E+03  0.00000000000E+00 0. -1.
         -2   -1    0    0    0  501 -0.00000000000E+00 -0.00000000000E+00 -0.68843754809E+02  0.68843754809E+02  0.00000000000E+00 0.  1.
         25    2    1    2    0    0  0.37185331151E+02 -0.43503840491E+02  0.90260409908E+02  0.16452982325E+03  0.12509111940E+03 0.  0.
          5    1    3    3  502    0 -0.34906388942E+02 -0.54125401059E+02  0.44101443255E+02  0.78169205740E+02  0.41800000000E+01 0.  1.
         -5    1    3    3    0  502  0.72091720093E+02  0.10621560567E+02  0.46158966653E+02  0.86360617513E+02  0.41800000000E+01 0.  1.
        -11    1    1    2    0    0 -0.41290875812E+02 -0.15985134125E+02  0.13197045912E+02  0.46201980035E+02  0.00000000000E+00 0.  1.
         11    1    1    2    0    0  0.41055446616E+01  0.59488974616E+02  0.43251555904E+02  0.73664718054E+02  0.00000000000E+00 0. -1.
</event>
<event>
 7    1  0.2601031E-009  0.9192718E+02  0.7561462E-02  0.1298251E+00
         -1   -1    0    0    0  501 -0.00000000000E+00  0.00000000000E+00  0.82106893461E+02  0.82106893461E+02  0.00000000000E+00 0.  1.
          1   -1    0    0  501    0  0.00000000000E+00 -0.00000000000E+00 -0.16665428077E+03  0.16665428077E+03  0.00000000000E+00 0. -1.
         25    2    1    2    0    0 -0.21493595777E+02 -0.36219842511E+02 -0.48030480143E+02  0.14045524991E+03  0.12508756355E+03 0.  0.
          5    1    3    3  502    0  0.43154449310E+02  0.60703937169E+01 -0.45365091838E+02  0.63044588448E+02  0.41800000000E+01 0. -1.
         -5    1    3    3    0  502 -0.64648045087E+02 -0.42290236228E+02 -0.26653883051E+01  0.77410661466E+02  0.41800000000E+01 0. -1.
        -11    1    1    2    0    0 -0.10289630551E+02  0.28073322897E+02  0.24744845594E+02  0.38811020842E+02  0.00000000000E+00 0.  1.
         11    1    1    2    0    0  0.31783226328E+02  0.81465196137E+01 -0.61261752759E+02  0.69494903473E+02  0.00000000000E+00 0. -1.
</event>
<event>
 7    1  0.2601031E-009  0.1052415E+03  0.7561462E-02  0.1269645E+00
          4   -1    0    0  501    0  0.00000000000E+00  0.00000000000E+00  0.13705907088E+03  0.13705907088E+03  0.00000000000E+00 0. -1.
         -4   -1    0    0    0  501 -0.00000000000E+00 -0.00000000000E+00 -0.96260777855E+02  0.96260777855E+02  0.00000000000E+00 0.  1.
         25    2    1    2    0    0  0.30278810145E+02 -0.23071854318E+02  0.17630565807E+02  0.13193721977E+03  0.12508987291E+03 0.  0.
          5    1    3    3  502    0 -0.44007202269E+02 -0.32474706188E+02 -0.19693676768E+00  0.54852088179E+02  0.41800000000E+01 0. -1.
         -5    1    3    3    0  502  0.74286012414E+02  0.94028518706E+01  0.17827502575E+02  0.77085131587E+02  0.41800000000E+01 0. -1.
        -11    1    1    2    0    0  0.20211685787E+02  0.22359107879E+02 -0.18971466279E+02  0.35614020839E+02  0.00000000000E+00 0.  1.
         11    1    1    2    0    0 -0.50490495933E+02  0.71274643821E+00  0.42139193499E+02  0.65768608133E+02  0.00000000000E+00 0. -1.
</event>
<event>
 7    1  0.2601031E-009  0.1100081E+03  0.7561462E-02  0.1260555E+00
          2   -1    0    0  501    0  0.00000000000E+00  0.00000000000E+00  0.85167707340E+03  0.85167707340E+03  0.00000000000E+00 0. -1.
         -2   -1    0    0    0  501 -0.00000000000E+00 -0.00000000000E+00 -0.18299963887E+02  0.18299963887E+02  0.00000000000E+00 0.  1.
         25    2    1    2    0    0 -0.42862425493E+02 -0.43670186231E+02  0.46952731322E+03  0.48974262137E+03  0.12509062570E+03 0.  0.
          5    1    3    3  502    0 -0.65245953217E+02 -0.57438228987E+02  0.44540349114E+03  0.45382587727E+03  0.41800000000E+01 0.  1.
         -5    1    3    3    0  502  0.22383527724E+02  0.13768042756E+02  0.24123822081E+02  0.35916744097E+02  0.41800000000E+01 0.  1.
        -11    1    1    2    0    0  0.21298531219E+02 -0.25906981913E+02  0.16712301863E+03  0.17045498673E+03  0.00000000000E+00 0. -1.
         11    1    1    2    0    0  0.21563894274E+02  0.69577168144E+02  0.19672677766E+03  0.20977942919E+03  0.00000000000E+00 0.  1.
</event>
<event>
 7    1  0.2601031E-009  0.2699655E+03  0.7561462E-02  0.1101299E+00
          1   -1    0    0  501    0  0.00000000000E+00  0.00000000000E+00  0.88389030453E+02  0.88389030453E+02  0.00000000000E+00 0. -1.
         -1   -1    0    0    0  501 -0.00000000000E+00 -0.00000000000E+00 -0.86045612267E+03  0.86045612267E+03  0.00000000000E+00 0.  1.
         25    2    1    2    0    0 -0.17160939681E+02 -0.24802867541E+03 -0.31469613331E+03  0.42011276419E+03  0.12509339165E+03 0.  0.
          5    1    3    3  502    0 -0.43028475246E+02 -0.24448158363E+03 -0.30148142422E+03  0.39055244970E+03  0.41800000000E+01 0. -1.
         -5    1    3    3    0  502  0.25867535566E+02 -0.35470917854E+01 -0.13214709095E+02  0.29560314491E+02  0.41800000000E+01 0. -1.
        -11    1    1    2    0    0 -0.25815348136E+02  0.19617538169E+03 -0.33634394864E+03  0.39022873340E+03  0.00000000000E+00 0.  1.
         11    1    1    2    0    0  0.42976287817E+02  0.51853293725E+02 -0.12102701026E+03  0.13850365553E+03  0.00000000000E+00 0. -1.
</event>
<event>
 7    1  0.2601031E-009  0.1054451E+03  0.7561462E-02  0.1269245E+00
          4   -1    0    0  501    0  0.00000000000E+00  0.00000000000E+00  0.15506287447E+02  0.15506287447E+02  0.00000000000E+00 0. -1.
         -4   -1    0    0    0  501 -0.00000000000E+00 -0.00000000000E+00 -0.10059422446E+04  0.10059422446E+04  0.00000000000E+00 0.  1.
         25    2    1    2    0    0  0.21188560560E+02 -0.17496881734E+02 -0.78508158077E+03  0.79546052997E+03  0.12509704358E+03 0.  0.
          5    1    3    3  502    0 -0.49124746096E+02 -0.13206668413E+02 -0.21235204986E+03  0.21839991357E+03  0.41800000000E+01 0. -1.
         -5    1    3    3    0  502  0.70313306656E+02 -0.42902133205E+01 -0.57272953091E+03  0.57706061640E+03  0.41800000000E+01 0. -1.
        -11    1    1    2    0    0 -0.21932282050E+02 -0.32538928572E+02 -0.55287486185E+02  0.67797588432E+02  0.00000000000E+00 0. -1.
         11    1    1    2    0    0  0.74372149012E+00  0.50035810306E+02 -0.15006689022E+03  0.15819041367E+03  0.00000000000E+00 0.  1.
</event>
<event>
 7    1  0.2828799E-009  0.7890258E+02  0.7561462E-02  0.1332195E+00
         -1   -1    0    0    0  501 -0.00000000000E+00  0.00000000000E+00  0.12732755545E+03  0.12732755545E+03  0.00000000000E+00 0.  1.
          1   -1    0    0  501    0  0.00000000000E+00 -0.00000000000E+00 -0.11762117729E+03  0.11762117729E+03  0.00000000000E+00 0. -1.
         25    2    1    2    0    0 -0.18510388643E+00  0.63392350253E+01 -0.51260544531E+02  0.13533710628E+03  0.12509304036E+03 0.  0.
          5    1    3    3  502    0 -0.29072589156E+02 -0.49665274393E+02 -0.67940297364E+01  0.58098934248E+02  0.41800000000E+01 0.  1.
         -5    1    3    3    0  502  0.28887485270E+02  0.56004509418E+02 -0.44466514795E+02  0.77238172029E+02  0.41800000000E+01 0.  1.
        -11    1    1    2    0    0 -0.14529450511E+02 -0.14158756725E+02 -0.19079239222E+02  0.27849464868E+02  0.00000000000E+00 0. -1.
         11    1    1    2    0    0  0.14714554397E+02  0.78195216992E+01  0.80046161915E+02  0.81762161591E+02  0.00000000000E+00 0.  1.
</event>
<event>
 7    1  0.2617668E-009  0.1102793E+03  0.7561462E-02  0.1260054E+00
         -2   -1    0    0    0  501 -0.00000000000E+00  0.00000000000E+00  0.14456142528E+02  0.14456142528E+02  0.00000000000E+00 0.  1.
          2   -1    0    0  501    0  0.00000000000E+00 -0.00000000000E+00 -0.10484894844E+04  0.10484894844E+04  0.00000000000E+00 0. -1.
         25    2    1    2    0    0  0.31685288190E+02 -0.23576283311E+02 -0.76343087145E+03  0.77461834005E+03  0.12508828339E+03 0.  0.
          5    1    3    3  502    0  0.75259801415E+02 -0.12746178089E+02 -0.32477486730E+03  0.33365055012E+03  0.41800000000E+01 0. -1.
         -5    1    3    3    0  502 -0.43574513226E+02 -0.10830105222E+02 -0.43865600415E+03  0.44096778993E+03  0.41800000000E+01 0. -1.
        -11    1    1    2    0    0 -0.57093676293E+02 -0.89004334428E+01 -0.14323300064E+03  0.15444933816E+03  0.00000000000E+00 0. -1.
         11    1    1    2    0    0  0.25408388104E+02  0.32476716753E+02 -0.12736946976E+03  0.13387794868E+03  0.00000000000E+00 0.  1.
</event>
<event>
 7    1  0.2601031E-009  0.1139196E+03  0.7561462E-02  0.1253479E+00
          1   -1    0    0  501    0  0.00000000000E+00  0.00000000000E+00  0.45424406930E+02  0.45424406930E+02  0.00000000000E+00 0. -1.
         -1   -1    0    0    0  501 -0.00000000000E+00 -0.00000000000E+00 -0.40935985123E+03  0.40935985123E+03  0.00000000000E+00 0.  1.
         25    2    1    2    0    0  0.34913886436E+02  0.36820672344E+02 -0.90820835929E+02  0.16269758433E+03  0.12508932141E+03 0.  0.
          5    1    3    3  502    0 -0.34164045675E+02  0.50762972746E+02 -0.25174247459E+02  0.66296881933E+02  0.41800000000E+01 0. -1.
         -5    1    3    3    0  502  0.69077932111E+02 -0.13942300402E+02 -0.65646588470E+02  0.96400702399E+02  0.41800000000E+01 0. -1.
        -11    1    1    2    0    0 -0.47390447814E+02  0.91618599556E+01 -0.19236933654E+03  0.19833243774E+03  0.00000000000E+00 0.  1.
         11    1    1    2    0    0  0.12476561378E+02 -0.45982532299E+02 -0.80745271840E+02  0.93754236091E+02  0.00000000000E+00 0. -1.
</event>
<event>
 7    1  0.2601031E-009  0.7797029E+02  0.7561462E-02  0.1334912E+00
          4   -1    0    0  501    0  0.00000000000E+00  0.00000000000E+00  0.67275758426E+02  0.67275758426E+02  0.00000000000E+00 0. -1.
         -4   -1    0    0    0  501 -0.00000000000E+00 -0.00000000000E+00 -0.20469732801E+03  0.20469732801E+03  0.00000000000E+00 0.  1.
         25    2    1    2    0    0 -0.38121177660E+02  0.19941442151E+02 -0.39936957040E+02  0.13817883549E+03  0.12509014645E+03 0.  0.
          5    1    3    3  502    0  0.82036569399E+01 -0.18931915073E+02  0.35580134538E+02  0.41341695288E+02  0.41800000000E+01 0.  1.
         -5    1    3    3    0  502 -0.46324834600E+02  0.38873357225E+02 -0.75517091578E+02  0.96837140204E+02  0.41800000000E+01 0.  1.
        -11    1    1    2    0    0 -0.10908010263E+02 -0.22677516419E+02 -0.59531727210E+00  0.25171587981E+02  0.00000000000E+00 0. -1.
         11    1    1    2    0    0  0.49029187923E+02  0.27360742678E+01 -0.96889295276E+02  0.10862266297E+03  0.00000000000E+00 0.  1.
</event>
<event>
 7    1  0.2601031E-009  0.1722076E+03  0.7561462E-02  0.1175565E+00
          2   -1    0    0  501    0  0.00000000000E+00  0.00000000000E+00  0.97862328677E+03  0.97862328677E+03  0.00000000000E+00 0. -1.
         -2   -1    0    0    0  501 -0.00000000000E+00 -0.00000000000E+00 -0.53467473343E+02  0.53467473343E+02  0.00000000000E+00 0.  1.
         25    2    1    2    0    0  0.11665654086E+03  0.98907371170E+02  0.77333869561E+03  0.79817960081E+03  0.12508605202E+03 0.  0.
          5    1    3    3  502    0  0.10565489282E+03  0.51215903931E+02  0.29822657920E+03  0.32053485010E+03  0.41800000000E+01 0. -1.
         -5    1    3    3    0  502  0.11001648048E+02  0.47691467239E+02  0.47511211642E+03  0.47764475070E+03  0.41800000000E+01 0. -1.
        -11    1    1    2    0    0 -0.11477640003E+03 -0.44087396596E+02  0.10057827302E+03  0.15884995923E+03  0.00000000000E+00 0. -1.
         11    1    1    2    0    0 -0.18801408342E+01 -0.54819974573E+02  0.51238844789E+02  0.75061200078E+02  0.00000000000E+00 0.  1.
</event>
<event>
 7    1  0.2601031E-009  0.8203150E+02  0.7561462E-02  0.1323383E+00
         -1   -1    0    0    0  501 -0.00000000000E+00  0.00000000000E+00  0.15963096714E+03  0.15963096714E+03  0.00000000000E+00 0.  1.
          1   -1    0    0  501    0  0.00000000000E+00 -0.00000000000E+00 -0.93676670652E+02  0.93676670652E+02  0.00000000000E+00 0. -1.
         25    2    1    2    0    0  0.72360480731E+01  0.28453112218E+02 -0.13022708116E+02  0.12914623617E+03  0.12508884604E+03 0.  0.
          5    1    3    3  502    0  0.10979639608E+02  0.54898645893E+02  0.40471716578E+02  0.69208713682E+02  0.41800000000E+01 0.  1.
         -5    1    3    3    0  502 -0.37435915350E+01 -0.26445533674E+02 -0.53494424694E+02  0.59937522490E+02  0.41800000000E+01 0.  1.
        -11    1    1    2    0    0 -0.25030067303E+02 -0.48196429788E+02  0.80982975734E+02  0.97507140622E+02  0.00000000000E+00 0. -1.
         11    1    1    2    0    0  0.17794019229E+02  0.19743317570E+02 -0.20059711337E+01  0.26654260995E+02  0.00000000000E+00 0.  1.
</event>
<event>
 7    1  0.2601031E-009  0.1215129E+03  0.7561462E-02  0.1240622E+00
          1   -1    0    0  501    0  0.00000000000E+00  0.00000000000E+00  0.10282309190E+04  0.10282309190E+04  0.00000000000E+00 0. -1.
         -1   -1    0    0    0  501 -0.00000000000E+00 -0.00000000000E+00 -0.40268807754E+02  0.40268807754E+02  0.00000000000E+00 0.  1.
         25    2    1    2    0    0  0.10587504492E+03 -0.31637586593E+02  0.86132521039E+03  0.87734776736E+03  0.12509006686E+03 0.  0.
          5    1    3    3  502    0  0.74550740174E+02  0.37290349387E+00  0.18460456898E+03  0.19913380227E+03  0.41800000000E+01 0.  1.
         -5    1    3    3    0  502  0.31324304744E+02 -0.32010490087E+02  0.67672064141E+03  0.67821396510E+03  0.41800000000E+01 0.  1.
        -11    1    1    2    0    0 -0.69015682732E+02  0.46939879476E+02  0.33707275767E+02  0.90014983130E+02  0.00000000000E+00 0.  1.
         11    1    1    2    0    0 -0.36859362185E+02 -0.15302292882E+02  0.92929625114E+02  0.10113697628E+03  0.00000000000E+00 0. -1.
</event>
<event>
 7    1  0.2601031E-009  0.8102149E+02  0.7561462E-02  0.1326177E+00
         -2   -1    0    0    0  501 -0.00000000000E+00  0.00000000000E+00  0.51112256621E+03  0.51112256621E+03  0.00000000000E+00 0.  1.
          2   -1    0    0  501    0  0.00000000000E+00 -0.00000000000E+00 -0.30202337928E+02  0.30202337928E+02  0.00000000000E+00 0. -1.
         25    2    1    2    0    0 -0.14232728334E+02  0.49994926652E+02  0.20133223114E+03  0.24266388226E+03  0.12509607992E+03 0.  0.
          5    1    3    3  502    0  0.39117403630E+01  0.39624605776E+02 -0.17127100238E+00  0.40036393810E+02  0.41800000000E+01 0.  1.
         -5    1    3    3    0  502 -0.18144468697E+02  0.10370320876E+02  0.20150350214E+03  0.20262748845E+03  0.41800000000E+01 0.  1.
        -11    1    1    2    0    0  0.21375570289E+02 -0.73282159736E+02  0.24298754885E+03  0.25469616965E+03  0.00000000000E+00 0.  1.
         11    1    1    2    0    0 -0.71428419547E+01  0.23287233084E+02  0.36600448296E+02  0.43964852227E+02  0.00000000000E+00 0. -1.
</event>
<event>
 7    1  0.2601031E-009  0.1647473E+03  0.7561462E-02  0.1183439E+00
         -1   -1    0    0    0  501 -0.00000000000E+00  0.00000000000E+00  0.12228363009E+03  0.12228363009E+03  0.00000000000E+00 0.  1.
          1   -1    0    0  501    0  0.00000000000E+00 -0.00000000000E+00 -0.35545879430E+03  0.35545879430E+03  0.00000000000E+00 0. -1.
         25    2    1    2    0    0  0.47736595673E+02  0.13453346990E+03 -0.81127250897E+01  0.18997766447E+03  0.12509060555E+03 0.  0.
          5    1    3    3  502    0  0.53661089287E+02  0.15390670267E+03 -0.22765080626E+02  0.16462839041E+03  0.41800000000E+01 0. -1.
         -5    1    3    3    0  502 -0.59244936139E+01 -0.19373232772E+02  0.14652355536E+02  0.25349274060E+02  0.41800000000E+01 0. -1.
        -11    1    1    2    0    0 -0.33402809550E+02 -0.50714826358E+02 -0.18316247889E+03  0.19296692715E+03  0.00000000000E+00 0. -1.
         11    1    1    2    0    0 -0.14333786123E+02 -0.83818643545E+02 -0.41899960227E+02  0.94797832767E+02  0.00000000000E+00 0.  1.
</event>
<event>
 7    1  0.2601031E-009  0.9890730E+02  0.7561462E-02  0.1282611E+00
          2   -1    0    0  501    0  0.00000000000E+00  0.00000000000E+00  0.60607103099E+02  0.60607103099E+02  0.00000000000E+00 0. -1.
         -2   -1    0    0    0  501 -0.00000000000E+00 -0.00000000000E+00 -0.37627040894E+03  0.37627040894E+03  0.00000000000E+00 0.  1.
         25    2    1    2    0    0 -0.41168668062E+02  0.53792491332E+02 -0.55111487094E+02  0.15255455776E+03  0.12508847161E+03 0.  0.
          5    1    3    3  502    0  0.74216477227E+01  0.29608949661E+02  0.35402738064E+02  0.46931833731E+02  0.41800000000E+01 0.  1.
         -5    1    3    3    0  502 -0.48590315785E+02  0.24183541672E+02 -0.90514225158E+02  0.10562272403E+03  0.41800000000E+01 0.  1.
        -11    1    1    2    0    0  0.59119289524E+02 -0.67685858882E+02 -0.18943417672E+03  0.20967063026E+03  0.00000000000E+00 0. -1.
         11    1    1    2    0    0 -0.17950621461E+02  0.13893367549E+02 -0.71117642035E+02  0.74652324018E+02  0.00000000000E+00 0.  1.
</event>
<event>
 7    1  0.2601031E-009  0.8739964E+02  0.7561462E-02  0.1309274E+00
         -1   -1    0    0    0  501 -0.00000000000E+00  0.00000000000E+00  0.55153595724E+02  0.55153595724E+02  0.00000000000E+00 0.  1.
          1   -1    0    0  501    0  0.00000000000E+00 -0.00000000000E+00 -0.26084640362E+03  0.26084640362E+03  0.00000000000E+00 0. -1.
         25    2    1    2    0    0  0.25971276990E+02  0.40554933869E+02 -0.13571207017E+03  0.19074791121E+03  0.12509112579E+03 0.  0.
          5    1    3    3  502    0  0.27747871495E+02 -0.15086657490E+02  0.11054121503E+02  0.33722657205E+02  0.41800000000E+01 0. -1.
         -5    1    3    3    0  502 -0.17765945047E+01  0.55641591360E+02 -0.14676619167E+03  0.15702525400E+03  0.41800000000E+01 0. -1.
        -11    1    1    2    0    0 -0.79059673091E+01  0.21275882190E+02  0.80369026705E+01  0.24078191098E+02  0.00000000000E+00 0.  1.
         11    1    1    2    0    0 -0.18065309681E+02 -0.61830816059E+02 -0.78017640399E+02  0.10117389704E+03  0.00000000000E+00 0. -1.
</event>
<event>
 7    1  0.2601031E-009  0.1290605E+03  0.7561462E-02  0.1228856E+00
         -1   -1    0    0    0  501 -0.00000000000E+00  0.00000000000E+00  0.93871965175E+02  0.93871965175E+02  0.00000000000E+00 0.  1.
          1   -1    0    0  501    0  0.00000000000E+00 -0.00000000000E+00 -0.24018252628E+03  0.24018252628E+03  0.00000000000E+00 0. -1.
         25    2    1    2    0    0 -0.71016666564E+02 -0.54114763755E+02 -0.13728883020E+02  0.15429318977E+03  0.12508449782E+03 0.  0.
          5    1    3    3  502    0 -0.37879510294E+02  0.31754033442E+02 -0.33762460405E+02  0.60004600428E+02  0.41800000000E+01 0.  1.
         -5    1    3    3    0  502 -0.33137156270E+02 -0.85868797198E+02  0.20033577384E+02  0.94288589345E+02  0.41800000000E+01 0.  1.
        -11    1    1    2    0    0  0.73687047604E+02  0.12571985078E+02 -0.10822338853E+03  0.13152998752E+03  0.00000000000E+00 0.  1.
         11    1    1    2    0    0 -0.26703810399E+01  0.41542778678E+02 -0.24358289554E+02  0.48231314156E+02  0.00000000000E+00 0. -1.
</event>
<event>
 7    1  0.2601031E-009  0.1260880E+03  0.7561462E-02  0.1233379E+00
         -1   -1    0    0    0  501 -0.00000000000E+00  0.00000000000E+00  0.32213661660E+03  0.32213661660E+03  0.00000000000E+00 0.  1.
          1   -1    0    0  501    0  0.00000000000E+00 -0.00000000000E+00 -0.62611624317E+02  0.62611624317E+02  0.00000000000E+00 0. -1.
         25    2    1    2    0    0  0.17512622714E+02  0.72953715958E+02  0.21072195134E+03  0.25628084426E+03  0.12508874342E+03 0.  0.
          5    1    3    3  502    0  0.65760326785E+02  0.36135502411E+02  0.16113000956E+03  0.17779355301E+03  0.41800000000E+01 0. -1.
         -5    1    3    3    0  502 -0.48247704071E+02  0.36818213547E+02  0.49591941786E+02  0.78487291246E+02  0.41800000000E+01 0. -1.
        -11    1    1    2    0    0  0.31157242950E+02 -0.34607698169E+01  0.25699929071E+02  0.40536860636E+02  0.00000000000E+00 0.  1.
         11    1    1    2    0    0 -0.48669865664E+02 -0.69492946141E+02  0.23103111871E+02  0.87930536023E+02  0.00000000000E+00 0. -1.
</event>
<event>
 7    1  0.2601031E-009  0.1965824E+03  0.7561462E-02  0.1152655E+00
         -1   -1    0    0    0  501 -0.00000000000E+00  0.00000000000E+00  0.12792532465E+03  0.12792532465E+03  0.00000000000E+00 0.  1.
          1   -1    0    0  501    0  0.00000000000E+00 -0.00000000000E+00 -0.37566583119E+03  0.37566583119E+03  0.00000000000E+00 0. -1.
         25    2    1    2    0    0  0.41053287244E+02  0.16144015959E+03 -0.22950801017E+02  0.20957759026E+03  0.12509088516E+03 0.  0.
          5    1    3    3  502    0  0.68675932330E+02  0.16536829497E+03 -0.26799907428E+02  0.18110429067E+03  0.41800000000E+01 0. -1.
         -5    1    3    3    0  502 -0.27622645085E+02 -0.39281353818E+01  0.38491064110E+01  0.28473299585E+02  0.41800000000E+01 0. -1.
        -11    1    1    2    0    0 -0.47868068149E+02 -0.35196382761E+02 -0.46502366389E+02  0.75449369697E+02  0.00000000000E+00 0. -1.
         11    1    1    2    0    0  0.68147809051E+01 -0.12624377682E+03 -0.17828733914E+03  0.21856419589E+03  0.00000000000E+00 0.  1.
</event>
<event>
 7    1  0.2601031E-009  0.2786074E+03  0.7561462E-02  0.1096452E+00
          1   -1    0    0  501    0  0.00000000000E+00  0.00000000000E+00  0.11565624910E+04  0.11565624910E+04  0.00000000000E+00 0. -1.
         -1   -1    0    0    0  501 -0.00000000000E+00 -0.00000000000E+00 -0.93079658501E+02  0.93079658501E+02  0.00000000000E+00 0.  1.
         25    2    1    2    0    0  0.26695849513E+03 -0.26468702460E+02  0.25079685920E+03  0.38796113084E+03  0.12508934459E+03 0.  0.
          5    1    3    3  502    0  0.16599048073E+03  0.98233094624E+01  0.76124261213E+02  0.18292542920E+03  0.41800000000E+01 0.  1.
         -5    1    3    3    0  502  0.10096801439E+03 -0.36292011923E+02  0.17467259799E+03  0.20503570164E+03  0.41800000000E+01 0.  1.
        -11    1    1    2    0    0 -0.17018398783E+03 -0.27977658592E+02  0.43276171893E+03  0.46586268842E+03  0.00000000000E+00 0.  1.
         11    1    1    2    0    0 -0.96774507297E+02  0.54446361053E+02  0.37992425441E+03  0.39581833028E+03  0.00000000000E+00 0. -1.
</event>
<event>
 7    1  0.2601031E-009  0.1129386E+03  0.7561462E-02  0.1255223E+00
          2   -1    0    0  501    0  0.00000000000E+00  0.00000000000E+00  0.73707155533E+03  0.73707155533E+03  0.00000000000E+00 0. -1.
         -2   -1    0    0    0  501 -0.00000000000E+00 -0.00000000000E+00 -0.25287429448E+02  0.25287429448E+02  0.00000000000E+00 0.  1.
         25    2    1    2    0    0 -0.30448375660E+02  0.75784278157E+02  0.44328197520E+03  0.46777918954E+03  0.12509236679E+03 0.  0.
          5    1    3    3  502    0 -0.13073896865E+02  0.92258064675E+02  0.17418078743E+03  0.19758263179E+03  0.41800000000E+01 0. -1.
         -5    1    3    3    0  502 -0.17374478795E+02 -0.16473786518E+02  0.26910118777E+03  0.27019655775E+03  0.41800000000E+01 0. -1.
        -11    1    1    2    0    0  0.46797407429E+02 -0.21304588248E+02  0.62833747134E+02  0.81190902208E+02  0.00000000000E+00 0.  1.
         11    1    1    2    0    0 -0.16349031769E+02 -0.54479689910E+02  0.20566840355E+03  0.21338889303E+03  0.00000000000E+00 0. -1.
</event>
<event>
 7    1  0.2601031E-009  0.1535662E+03  0.7561462E-02  0.1196158E+00
          1   -1    0    0  501    0  0.00000000000E+00  0.00000000000E+00  0.52963067749E+03  0.52963067749E+03  0.00000000000E+00 0. -1.
         -1   -1    0    0    0  501 -0.00000000000E+00 -0.00000000000E+00 -0.61436167133E+02  0.61436167133E+02  0.00000000000E+00 0.  1.
         25    2    1    2    0    0 -0.13893251547E+03  0.31973406144E+02  0.27398538314E+03  0.33322843571E+03  0.12509459476E+03 0.  0.
          5    1    3    3  502    0 -0.51803799056E+02  0.10905430738E+02  0.22461443649E+03  0.23080658460E+03  0.41800000000E+01 0.  1.
         -5    1    3    3    0  502 -0.87128716414E+02  0.21067975406E+02  0.49370946649E+02  0.10242185111E+03  0.41800000000E+01 0.  1.
        -11    1    1    2    0    0  0.12078587227E+03 -0.56852884586E+02  0.12860522281E+03  0.18536661177E+03  0.00000000000E+00 0.  1.
         11    1    1    2    0    0  0.18146643198E+02  0.24879478441E+02  0.65603904407E+02  0.72471797138E+02  0.00000000000E+00 0. -1.
</event>
<event>
 7    1  0.2601031E-009  0.1377738E+03  0.7561462E-02  0.1216356E+00
         -1   -1    0    0    0  501 -0.00000000000E+00  0.00000000000E+00  0.72108196691E+02  0.72108196691E+02  0.00000000000E+00 0.  1.
          1   -1    0    0  501    0  0.00000000000E+00 -0.00000000000E+00 -0.39605636104E+03  0.39605636104E+03  0.00000000000E+00 0. -1.
         25    2    1    2    0    0 -0.11063330449E+03  0.46772404848E+02 -0.24420556904E+03  0.29951933408E+03  0.12509230839E+03 0.  0.
          5    1    3    3  502    0 -0.79130709589E+02  0.74347026689E+02 -0.94465193513E+02  0.14398018879E+03  0.41800000000E+01 0.  1.
         -5    1    3    3    0  502 -0.31502594902E+02 -0.27574621841E+02 -0.14974037553E+03  0.15553914529E+03  0.41800000000E+01 0.  1.
        -11    1    1    2    0    0  0.71647563713E+02 -0.47252231818E+02 -0.93855401638E+02  0.12718090743E+03  0.00000000000E+00 0. -1.
         11    1    1    2    0    0  0.38985740778E+02  0.47982697047E+00  0.14112806324E+02  0.41464316228E+02  0.00000000000E+00 0.  1.
</event>
<event>
 7    1  0.2601031E-009  0.1069659E+03  0.7561462E-02  0.1266294E+00
         -1   -1    0    0    0  501 -0.00000000000E+00  0.00000000000E+00  0.29151900277E+03  0.29151900277E+03  0.00000000000E+00 0.  1.
          1   -1    0    0  501    0  0.00000000000E+00 -0.00000000000E+00 -0.57827548330E+02  0.57827548330E+02  0.00000000000E+00 0. -1.
         25    2    1    2    0    0  0.50222615605E+02  0.44143102212E+02  0.10211628482E+03  0.17477567285E+03  0.12509146895E+03 0.  0.
          5    1    3    3  502    0  0.52808397032E+02 -0.34329568143E+02  0.48569922275E+02  0.79647697994E+02  0.41800000000E+01 0.  1.
         -5    1    3    3    0  502 -0.25857814273E+01  0.78472670356E+02  0.53546362547E+02  0.95127974857E+02  0.41800000000E+01 0.  1.
        -11    1    1    2    0    0 -0.27103911299E+02 -0.40565127614E+02  0.14111211393E+03  0.14930766987E+03  0.00000000000E+00 0.  1.
         11    1    1    2    0    0 -0.23118704306E+02 -0.35779745990E+01 -0.95369443048E+01  0.25263208381E+02  0.00000000000E+00 0. -1.
</event>
<event>
 7    1  0.2601031E-009  0.9327115E+02  0.7561462E-02  0.1295118E+00
          1   -1    0    0  501    0  0.00000000000E+00  0.00000000000E+00  0.15214421618E+03  0.15214421618E+03  0.00000000000E+00 0. -1.
         -1   -1    0    0    0  501 -0.00000000000E+00 -0.00000000000E+00 -0.77796326240E+02  0.77796326240E+02  0.00000000000E+00 0.  1.
         25    2    1    2    0    0  0.18750141875E+01  0.12699071770E+00  0.30643908868E+02  0.12879866666E+03  0.12508603271E+03 0.  0.
          5    1    3    3  502    0  0.36370875985E+02  0.50540833385E+02  0.56426214540E+01  0.62662014299E+02  0.41800000000E+01 0.  1.
         -5    1    3    3    0  502 -0.34495861797E+02 -0.50413842668E+02  0.25001287414E+02  0.66136652365E+02  0.41800000000E+01 0.  1.
        -11    1    1    2    0    0 -0.19138573946E+01 -0.31487347186E+02 -0.14737179668E+02  0.34818103733E+02  0.00000000000E+00 0.  1.
         11    1    1    2    0    0  0.38843207134E-01  0.31360356469E+02  0.58441160742E+02  0.66323772024E+02  0.00000000000E+00 0. -1.
</event>
<event>
 7    1  0.2601031E-009  0.9389717E+02  0.7561462E-02  0.1293679E+00
          2   -1    0    0  501    0  0.00000000000E+00  0.00000000000E+00  0.59877711465E+03  0.59877711465E+03  0.00000000000E+00 0. -1.
         -2   -1    0    0    0  501 -0.00000000000E+00 -0.00000000000E+00 -0.29200606843E+02  0.29200606843E+02  0.00000000000E+00 0.  1.
         25    2    1    2    0    0  0.15897447893E+02 -0.56537608694E+02  0.42508315327E+03  0.44698432590E+03  0.12510024124E+03 0.  0.
          5    1    3    3  502    0  0.34238520445E+02 -0.22160562617E+02  0.32146224021E+02  0.52098166345E+02  0.41800000000E+01 0. -1.
         -5    1    3    3    0  502 -0.18341072552E+02 -0.34377046077E+02  0.39293692925E+03  0.39488615955E+03  0.41800000000E+01 0. -1.
        -11    1    1    2    0    0  0.37422822903E+02  0.30465482071E+02  0.50664382670E+02  0.69967799330E+02  0.00000000000E+00 0.  1.
         11    1    1    2    0    0 -0.53320270795E+02  0.26072126624E+02  0.93828971872E+02  0.11102559627E+03  0.00000000000E+00 0. -1.
</event>
<event>
 7    1  0.2601031E-009  0.1201495E+03  0.7561462E-02  0.1242851E+00
          1   -1    0    0  501    0  0.00000000000E+00  0.00000000000E+00  0.13388636869E+03  0.13388636869E+03  0.00000000000E+00 0. -1.
         -1   -1    0    0    0  501 -0.00000000000E+00 -0.00000000000E+00 -0.24912263856E+03  0.24912263856E+03  0.00000000000E+00 0.  1.
         25    2    1    2    0    0 -0.85744972856E+02  0.51905489171E+02 -0.17361816400E+03  0.23629892429E+03  0.12509010580E+03 0.  0.
          5    1    3    3  502    0 -0.79559123575E+02  0.25151657372E+01 -0.16810400132E+03  0.18604410193E+03  0.41800000000E+01 0.  1.
         -5    1    3    3    0  502 -0.61858492816E+01  0.49390323434E+02 -0.55141626874E+01  0.50254822359E+02  0.41800000000E+01 0.  1.
        -11    1    1    2    0    0  0.77097965457E+02 -0.60835055977E+02  0.12294101726E+02  0.98975478026E+02  0.00000000000E+00 0.  1.
         11    1    1    2    0    0  0.86470073995E+01  0.89295668060E+01  0.46087792401E+02  0.47734604939E+02  0.00000000000E+00 0. -1.
</event>
<event>
 7    1  0.2601031E-009  0.4845665E+02  0.7561462E-02  0.1453848E+00
          2   -1    0    0  501    0  0.00000000000E+00  0.00000000000E+00  0.75858892228E+02  0.75858892228E+02  0.00000000000E+00 0. -1.
         -2   -1    0    0    0  501 -0.00000000000E+00 -0.00000000000E+00 -0.17923617243E+03  0.17923617243E+03  0.00000000000E+00 0.  1.
         25    2    1    2    0    0  0.32469313614E+00 -0.40125452338E+01 -0.22768476931E+02  0.12721180557E+03  0.12509290143E+03 0.  0.
          5    1    3    3  502    0 -0.82613529472E+01 -0.20192436020E+02  0.48587049840E+02  0.53424322524E+02  0.41800000000E+01 0.  1.
         -5    1    3    3    0  502  0.85860460833E+01  0.16179890786E+02 -0.71355526771E+02  0.73787483044E+02  0.41800000000E+01 0.  1.
        -11    1    1    2    0    0 -0.75647853121E+01  0.28961605245E+02  0.11586772316E+02  0.32097567632E+02  0.00000000000E+00 0. -1.
         11    1    1    2    0    0  0.72400921760E+01 -0.24949060011E+02 -0.92195575592E+02  0.95785691463E+02  0.00000000000E+00 0.  1.
</event>
<event>
 7    1  0.2601031E-009  0.1663487E+03  0.7561462E-02  0.1181710E+00
          2   -1    0    0  501    0  0.00000000000E+00  0.00000000000E+00  0.14888166554E+04  0.14888166554E+04  0.00000000000E+00 0. -1.
         -2   -1    0    0    0  501 -0.00000000000E+00 -0.00000000000E+00 -0.22351438714E+02  0.22351438714E+02  0.00000000000E+00 0.  1.
         25    2    1    2    0    0 -0.13508511889E+03  0.28664280403E+02  0.97396718608E+03  0.99162929805E+03  0.12508778871E+03 0.  0.
          5    1    3    3  502    0 -0.14843306311E+03  0.58043079886E+00  0.88311680376E+03  0.89551408286E+03  0.41800000000E+01 0.  1.
         -5    1    3    3    0  502  0.13347944222E+02  0.28083849604E+02  0.90850382320E+02  0.96115215191E+02  0.41800000000E+01 0.  1.
        -11    1    1    2    0    0  0.10790513074E+03 -0.49368641469E+02  0.44792756088E+03  0.46337876494E+03  0.00000000000E+00 0. -1.
         11    1    1    2    0    0  0.27179988149E+02  0.20704361066E+02  0.44570469688E+02  0.56160031082E+02  0.00000000000E+00 0.  1.
</event>
<event>
 7    1  0.2601031E-009  0.9257955E+02  0.7561462E-02  0.1296723E+00
          1   -1    0    0  501    0  0.00000000000E+00  0.00000000000E+00  0.28192259897E+03  0.28192259897E+03  0.00000000000E+00 0. -1.
         -1   -1    0    0    0  501 -0.00000000000E+00 -0.00000000000E+00 -0.47301489874E+02  0.47301489874E+02  0.00000000000E+00 0.  1.
         25    2    1    2    0    0 -0.14243207657E+02  0.19240706281E+02  0.88644647072E+02  0.15517603414E+03  0.12509458171E+03 0.  0.
          5    1    3    3  502    0 -0.58805476625E+02  0.25562645087E+01  0.54713646919E+01  0.59262355681E+02  0.41800000000E+01 0. -1.
         -5    1    3    3    0  502  0.44562268968E+02  0.16684441772E+02  0.83173282380E+02  0.95913678454E+02  0.41800000000E+01 0. -1.
        -11    1    1    2    0    0  0.39157322687E+02 -0.31836299647E+02  0.39826377834E+02  0.64288305830E+02  0.00000000000E+00 0.  1.
         11    1    1    2    0    0 -0.24914115030E+02  0.12595593366E+02  0.10615008419E+03  0.10975974888E+03  0.00000000000E+00 0. -1.
</event>
<event>
 7    1  0.2601031E-009  0.1381239E+03  0.7561462E-02  0.1215876E+00
         -1   -1    0    0    0  501 -0.00000000000E+00  0.00000000000E+00  0.64536195000E+02  0.64536195000E+02  0.00000000000E+00 0.  1.
          1   -1    0    0  501    0  0.00000000000E+00 -0.00000000000E+00 -0.35270002705E+03  0.35270002705E+03  0.00000000000E+00 0. -1.
         25    2    1    2    0    0 -0.62872584634E+02  0.81691332649E+02 -0.17536224213E+03  0.23880153255E+03  0.12509124771E+03 0.  0.
          5    1    3    3  502    0 -0.30948830751E+02  0.10131099254E+03 -0.70369116887E+02  0.12724398747E+03  0.41800000000E+01 0.  1.
         -5    1    3    3    0  502 -0.31923753883E+02 -0.19619659895E+02 -0.10499312524E+03  0.11155754508E+03  0.41800000000E+01 0.  1.
        -11    1    1    2    0    0 -0.96272626876E+01 -0.54110839813E+02 -0.72629405272E+02  0.91080720694E+02  0.00000000000E+00 0. -1.
         11    1    1    2    0    0  0.72499847322E+02 -0.27580492836E+02 -0.40172184649E+02  0.87353968806E+02  0.00000000000E+00 0.  1.
</event>
<event>
 7    1  0.2601031E-009  0.1467066E+03  0.7561462E-02  0.1204579E+00
         -1   -1    0    0    0  501 -0.00000000000E+00  0.00000000000E+00  0.44436142778E+03  0.44436142778E+03  0.00000000000E+00 0.  1.
          1   -1    0    0  501    0  0.00000000000E+00 -0.00000000000E+00 -0.62891774196E+02  0.62891774196E+02  0.00000000000E+00 0. -1.
         25    2    1    2    0    0 -0.83630598456E+02 -0.71258812407E+02  0.29736688006E+03  0.34080383692E+03  0.12509315950E+03 0.  0.
          5    1    3    3  502    0 -0.96530168669E+02 -0.14631182761E+02  0.12374751120E+03  0.15768025844E+03  0.41800000000E+01 0.  1.
         -5    1    3    3    0  502  0.12899570213E+02 -0.56627629647E+02  0.17361936886E+03  0.18312357848E+03  0.41800000000E+01 0.  1.
        -11    1    1    2    0    0  0.33930359436E+02 -0.15634956890E+02  0.27553483119E+01  0.37460821036E+02  0.00000000000E+00 0. -1.
         11    1    1    2    0    0  0.49700239020E+02  0.86893769297E+02  0.81347425210E+02  0.12898854402E+03  0.00000000000E+00 0.  1.
</event>
<event>
 7    1  0.2601031E-009  0.9595204E+02  0.7561462E-02  0.1289046E+00
         -1   -1    0    0    0  501 -0.00000000000E+00  0.00000000000E+00  0.40059834588E+02  0.40059834588E+02  0.00000000000E+00 0.  1.
          1   -1    0    0  501    0  0.00000000000E+00 -0.00000000000E+00 -0.46260735845E+03  0.46260735845E+03  0.00000000000E+00 0. -1.
         25    2    1    2    0    0  0.79390034918E+02  0.13647047564E+02 -0.27759136400E+03  0.31494861792E+03  0.12508655808E+03 0.  0.
          5    1    3    3  502    0  0.10155112636E+01  0.23654914471E+02 -0.20857445998E+03  0.20995562388E+03  0.41800000000E+01 0. -1.
         -5    1    3    3    0  502  0.78374523654E+02 -0.10007866907E+02 -0.69016904019E+02  0.10499299404E+03  0.41800000000E+01 0. -1.
        -11    1    1    2    0    0 -0.53670718083E+02 -0.26647075463E+02 -0.14708435908E+03  0.15882197989E+03  0.00000000000E+00 0.  1.
         11    1    1    2    0    0 -0.25719316835E+02  0.13000027899E+02  0.21281992153E+01  0.28896595227E+02  0.00000000000E+00 0. -1.
</event>
<event>
 7    1  0.2601031E-009  0.1150511E+03  0.7561462E-02  0.1251492E+00
          2   -1    0    0  501    0  0.00000000000E+00  0.00000000000E+00  0.51916856100E+03  0.51916856100E+03  0.00000000000E+00 0. -1.
         -2   -1    0    0    0  501 -0.00000000000E+00 -0.00000000000E+00 -0.47356927681E+02  0.47356927681E+02  0.00000000000E+00 0.  1.
         25    2    1    2    0    0  0.90476619194E+02  0.11551878285E+02  0.36348855513E+03  0.39508367065E+03  0.12509081736E+03 0.  0.
          5    1    3    3  502    0  0.91754749497E+01  0.16308822182E+02 -0.31980797470E+01  0.19438804891E+02  0.41800000000E+01 0.  1.
         -5    1    3    3    0  502  0.81301144245E+02 -0.47569438974E+01  0.36668663488E+03  0.37564486575E+03  0.41800000000E+01 0.  1.
        -11    1    1    2    0    0  0.15891674976E+02  0.12628859473E+02  0.33479592963E+02  0.39152478467E+02  0.00000000000E+00 0. -1.
         11    1    1    2    0    0 -0.10636829417E+03 -0.24180737758E+02  0.74843485231E+02  0.13228933957E+03  0.00000000000E+00 0.  1.
</event>
<event>
 7    1  0.2601031E-009  0.9732224E+02  0.7561462E-02  0.1286030E+00
         -2   -1    0    0    0  501 -0.00000000000E+00  0.00000000000E+00  0.90567258036E+02  0.90567258036E+02  0.00000000000E+00 0.  1.
          2   -1    0    0  501    0  0.00000000000E+00 -0.00000000000E+00 -0.35188898191E+03  0.35188898191E+03  0.00000000000E+00 0. -1.
         25    2    1    2    0    0 -0.44304019602E+02 -0.84884045601E+02 -0.88650735115E+01  0.15777991807E+03  0.12509102952E+03 0.  0.
          5    1    3    3  502    0  0.14372303760E+01 -0.97151366874E+01  0.50458793829E+02  0.51575302100E+02  0.41800000000E+01 0.  1.
         -5    1    3    3    0  502 -0.45741249978E+02 -0.75168908913E+02 -0.59323867341E+02  0.10620461597E+03  0.41800000000E+01 0.  1.
        -11    1    1    2    0    0  0.28444964813E+02  0.49216060312E+02 -0.42122124265E+02  0.70750335465E+02  0.00000000000E+00 0.  1.
         11    1    1    2    0    0  0.15859054789E+02  0.35667985289E+02 -0.21033452609E+03  0.21392598641E+03  0.00000000000E+00 0. -1.
</event>
<event>
 7    1  0.2601031E-009  0.6516607E+02  0.7561462E-02  0.1377348E+00
          3   -1    0    0  501    0  0.00000000000E+00  0.00000000000E+00  0.31983799934E+03  0.31983799934E+03  0.00000000000E+00 0. -1.
         -3   -1    0    0    0  501 -0.00000000000E+00 -0.00000000000E+00 -0.43929473253E+02  0.43929473253E+02  0.00000000000E+00 0.  1.
         25    2    1    2    0    0  0.33664470687E+02 -0.31643612277E+02  0.18568632002E+03  0.22860317851E+03  0.12508152940E+03 0.  0.
          5    1    3    3  502    0  0.24760873067E+02 -0.11696708158E+02 -0.11625229088E+02  0.30042173159E+02  0.41800000000E+01 0. -1.
         -5    1    3    3    0  502  0.89035976190E+01 -0.19946904119E+02  0.19731154911E+03  0.19856100535E+03  0.41800000000E+01 0. -1.
        -11    1    1    2    0    0 -0.26329615786E+02 -0.16905809274E+02  0.78754242458E+02  0.84742467275E+02  0.00000000000E+00 0. -1.
         11    1    1    2    0    0 -0.73348549000E+01  0.48549421550E+02  0.11467963609E+02  0.50421826808E+02  0.00000000000E+00 0.  1.
</event>
<event>
 7    1  0.2601031E-009  0.9350355E+02  0.7561462E-02  0.1294582E+00
         -2   -1    0    0    0  501 -0.00000000000E+00  0.00000000000E+00  0.13617552736E+03  0.13617552736E+03  0.00000000000E+00 0.  1.
          2   -1    0    0  501    0  0.00000000000E+00 -0.00000000000E+00 -0.90191460651E+02  0.90191460651E+02  0.00000000000E+00 0. -1.
         25    2    1    2    0    0 -0.59095655432E+00 -0.13994395342E+02  0.57577019681E+01  0.12600240037E+03  0.12508901405E+03 0.  0.
          5    1    3    3  502    0  0.46478755327E+02  0.18735580762E+01 -0.37582829683E+02  0.59947697233E+02  0.41800000000E+01 0.  1.
         -5    1    3    3    0  502 -0.47069711881E+02 -0.15867953419E+02  0.43340531651E+02  0.66054703133E+02  0.41800000000E+01 0.  1.
        -11    1    1    2    0    0  0.29223001562E+02 -0.27442558174E+02  0.26858161949E+02  0.48253898109E+02  0.00000000000E+00 0.  1.
         11    1    1    2    0    0 -0.28632045007E+02  0.41436953517E+02  0.13368202793E+02  0.52110689536E+02  0.00000000000E+00 0. -1.
</event>
<event>
 7    1  0.2601031E-009  0.1234575E+03  0.7561462E-02  0.1237500E+00
         -2   -1    0    0    0  501 -0.00000000000E+00  0.00000000000E+00  0.56253419916E+02  0.56253419916E+02  0.00000000000E+00 0.  1.
          2   -1    0    0  501    0  0.00000000000E+00 -0.00000000000E+00 -0.45202833541E+03  0.45202833541E+03  0.00000000000E+00 0. -1.
         25    2    1    2    0    0 -0.52855788260E+01  0.74751211377E+02 -0.35178970336E+03  0.38081393066E+03  0.12509026122E+03 0.  0.
          5    1    3    3  502    0  0.34918212963E+02  0.92875510915E+02 -0.21065986568E+03  0.23289524154E+03  0.41800000000E+01 0. -1.
         -5    1    3    3    0  502 -0.40203791789E+02 -0.18124299539E+02 -0.14112983768E+03  0.14791868912E+03  0.41800000000E+01 0. -1.
        -11    1    1    2    0    0  0.27132000885E+02 -0.18419389685E+01  0.15107647175E+02  0.31109150010E+02  0.00000000000E+00 0. -1.
         11    1    1    2    0    0 -0.21846422059E+02 -0.72909272408E+02 -0.59092859315E+02  0.96358674658E+02  0.00000000000E+00 0.  1.
</event>
<event>
 7    1  0.2601031E-009  0.8745978E+02  0.7561462E-02  0.1309122E+00
         -1   -1    0    0    0  501 -0.00000000000E+00  0.00000000000E+00  0.22169004299E+02  0.22169004299E+02  0.00000000000E+00 0.  1.
          1   -1    0    0  501    0  0.00000000000E+00 -0.00000000000E+00 -0.53556022448E+03  0.53556022448E+03  0.00000000000E+00 0. -1.
         25    2    1    2    0    0 -0.10735292481E+01 -0.13970634722E+02 -0.29967826262E+03  0.32504033041E+03  0.12509126351E+03 0.  0.
          5    1    3    3  502    0  0.47537660410E+02 -0.27516111647E+02 -0.66137793723E+02  0.86073490205E+02  0.41800000000E+01 0.  1.
         -5    1    3    3    0  502 -0.48611189658E+02  0.13545476925E+02 -0.23354046890E+03  0.23896684021E+03  0.41800000000E+01 0.  1.
        -11    1    1    2    0    0 -0.30406302121E+02 -0.72180967830E+01 -0.24504839911E+02  0.39713112556E+02  0.00000000000E+00 0.  1.
         11    1    1    2    0    0  0.31479831369E+02  0.21188731505E+02 -0.18920811764E+03  0.19297578581E+03  0.00000000000E+00 0. -1.
</event>
<event>
 7    1  0.2601031E-009  0.1053297E+03  0.7561462E-02  0.1269471E+00
         -2   -1    0    0    0  501 -0.00000000000E+00  0.00000000000E+00  0.37752284608E+02  0.37752284608E+02  0.00000000000E+00 0.  1.
          2   -1    0    0  501    0  0.00000000000E+00 -0.00000000000E+00 -0.32553492882E+03  0.32553492882E+03  0.00000000000E+00 0. -1.
         25    2    1    2    0    0 -0.33970205636E+01 -0.18661555681E+01 -0.20762457350E+03  0.24242655954E+03  0.12509057105E+03 0.  0.
          5    1    3    3  502    0 -0.51999665935E+02  0.35940608909E+02 -0.10959532281E+03  0.12658712339E+03  0.41800000000E+01 0. -1.
         -5    1    3    3    0  502  0.48602645372E+02 -0.37806764477E+02 -0.98029250687E+02  0.11583943615E+03  0.41800000000E+01 0. -1.
        -11    1    1    2    0    0 -0.12623267550E+01 -0.41729477039E+02 -0.19660590610E+02  0.46146305875E+02  0.00000000000E+00 0. -1.
         11    1    1    2    0    0  0.46593473186E+01  0.43595632608E+02 -0.60497480106E+02  0.74714348014E+02  0.00000000000E+00 0.  1.
</event>
<event>
 7    1  0.3338423E-009  0.1706221E+03  0.7561462E-02  0.1177201E+00
          1   -1    0    0  501    0  0.00000000000E+00  0.00000000000E+00  0.46713381028E+03  0.46713381028E+03  0.00000000000E+00 0. -1.
         -1   -1    0    0    0  501 -0.00000000000E+00 -0.00000000000E+00 -0.84335818148E+02  0.84335818148E+02  0.00000000000E+00 0.  1.
         25    2    1    2    0    0 -0.13878152483E+02  0.15704928851E+03  0.27216615761E+03  0.33849355220E+03  0.12508551233E+03 0.  0.
          5    1    3    3  502    0  0.15012186862E+02  0.12821997495E+02 -0.82587621950E+01  0.21804791380E+02  0.41800000000E+01 0. -1.
         -5    1    3    3    0  502 -0.28890339345E+02  0.14422729101E+03  0.28042491981E+03  0.31668876082E+03  0.41800000000E+01 0. -1.
        -11    1    1    2    0    0 -0.30395193635E+02 -0.61247737352E+02  0.13813516940E+02  0.69756479105E+02  0.00000000000E+00 0.  1.
         11    1    1    2    0    0  0.44273346119E+02 -0.95801551157E+02  0.96818317580E+02  0.14321959712E+03  0.00000000000E+00 0. -1.
</event>
<event>
 7    1  0.2601031E-009  0.1305228E+03  0.7561462E-02  0.1226682E+00
         -3   -1    0    0    0  501 -0.00000000000E+00  0.00000000000E+00  0.14080013735E+03  0.14080013735E+03  0.00000000000E+00 0.  1.
          3   -1    0    0  501    0  0.00000000000E+00 -0.00000000000E+00 -0.13933291282E+03  0.13933291282E+03  0.00000000000E+00 0. -1.
         25    2    1    2    0    0 -0.13022231363E+02  0.77445729055E+02  0.41696475174E+02  0.15347311079E+03  0.12509188717E+03 0.  0.
          5    1    3    3  502    0  0.15008559451E+02  0.10302871911E+03  0.48089855310E+02  0.11476184210E+03  0.41800000000E+01 0. -1.
         -5    1    3    3    0  502 -0.28030790814E+02 -0.25582990059E+02 -0.63933801367E+01  0.38711268690E+02  0.41800000000E+01 0. -1.
        -11    1    1    2    0    0  0.13953368340E+02 -0.97548636374E+02 -0.40484927219E+02  0.10653385508E+03  0.00000000000E+00 0.  1.
         11    1    1    2    0    0 -0.93113697681E+00  0.20102907318E+02  0.25567657381E+00  0.20126084300E+02  0.00000000000E+00 0. -1.
</event>
<event>
 7    1  0.2601031E-009  0.1083774E+03  0.7561462E-02  0.1263604E+00
          1   -1    0    0  501    0  0.00000000000E+00  0.00000000000E+00  0.41971291654E+02  0.41971291654E+02  0.00000000000E+00 0. -1.
         -1   -1    0    0    0  501 -0.00000000000E+00 -0.00000000000E+00 -0.39666108099E+03  0.39666108099E+03  0.00000000000E+00 0.  1.
         25    2    1    2    0    0  0.19020871253E+02 -0.66808964572E+01 -0.80696892480E+02  0.15022124025E+03  0.12509198473E+03 0.  0.
          5    1    3    3  502    0  0.48564534265E+02  0.45445811209E+02 -0.42660737880E+02  0.79128039918E+02  0.41800000000E+01 0. -1.
         -5    1    3    3    0  502 -0.29543663013E+02 -0.52126707666E+02 -0.38036154600E+02  0.71093200329E+02  0.41800000000E+01 0. -1.
        -11    1    1    2    0    0  0.35275219361E+02  0.57806700569E+01 -0.10879137878E+03  0.11451341119E+03  0.00000000000E+00 0.  1.
         11    1    1    2    0    0 -0.54296090613E+02  0.90022640026E+00 -0.16520151808E+03  0.17389772120E+03  0.00000000000E+00 0. -1.
</event>
<event>
 7    1  0.2601031E-009  0.1202786E+03  0.7561462E-02  0.1242638E+00
          4   -1    0    0  501    0  0.00000000000E+00  0.00000000000E+00  0.54331820374E+03  0.54331820374E+03  0.00000000000E+00 0. -1.
         -4   -1    0    0    0  501 -0.00000000000E+00 -0.00000000000E+00 -0.34311212198E+02  0.34311212198E+02  0.00000000000E+00 0.  1.
         25    2    1    2    0    0 -0.71793045072E+02 -0.35381582899E+02  0.31743877798E+03  0.35045730964E+03  0.12508737101E+03 0.  0.
          5    1    3    3  502    0  0.20615760169E+02  0.92164115592E+01  0.78330478554E+01  0.24264806780E+02  0.41800000000E+01 0.  1.
         -5    1    3    3    0  502 -0.92408805241E+02 -0.44597994458E+02  0.30960573013E+03  0.32619250286E+03  0.41800000000E+01 0.  1.
        -11    1    1    2    0    0  0.44094660555E+02  0.62266206423E+02  0.16017014380E+03  0.17741447099E+03  0.00000000000E+00 0.  1.
         11    1    1    2    0    0  0.27698384517E+02 -0.26884623524E+02  0.31398069769E+02  0.49757635315E+02  0.00000000000E+00 0. -1.
</event>
<event>
 7    1  0.2601031E-009  0.1282681E+03  0.7561462E-02  0.1230048E+00
         -1   -1    0    0    0  501 -0.00000000000E+00  0.00000000000E+00  0.58080532850E+02  0.58080532850E+02  0.00000000000E+00 0.  1.
          1   -1    0    0  501    0  0.00000000000E+00 -0.00000000000E+00 -0.36454304638E+03  0.36454304638E+03  0.00000000000E+00 0. -1.
         25    2    1    2    0    0  0.20034370516E+02 -0.87986989911E+02 -0.20504989533E+03  0.25658502684E+03  0.12508928821E+03 0.  0.
          5    1    3    3  502    0 -0.11559288952E+01 -0.11701084037E+03 -0.16821003836E+03  0.20495112183E+03  0.41800000000E+01 0. -1.
         -5    1    3    3    0  502  0.21190299411E+02  0.29023850454E+02 -0.36839856968E+02  0.51633905002E+02  0.41800000000E+01 0. -1.
        -11    1    1    2    0    0  0.13155449233E+02  0.53286048003E+01  0.14210104664E+02  0.20084495219E+02  0.00000000000E+00 0.  1.
         11    1    1    2    0    0 -0.33189819749E+02  0.82658385111E+02 -0.11562272286E+03  0.14595405718E+03  0.00000000000E+00 0. -1.
</event>
<event>
 7    1  0.2601031E-009  0.1018203E+03  0.7561462E-02  0.1276514E+00
         -1   -1    0    0    0  501 -0.00000000000E+00  0.00000000000E+00  0.17150206683E+03  0.17150206683E+03  0.00000000000E+00 0.  1.
          1   -1    0    0  501    0  0.00000000000E+00 -0.00000000000E+00 -0.12975682003E+03  0.12975682003E+03  0.00000000000E+00 0. -1.
         25    2    1    2    0    0 -0.29838760971E+02  0.36022584697E+02 -0.70743149626E+02  0.15112808394E+03  0.12508847378E+03 0.  0.
          5    1    3    3  502    0  0.32784256854E+02 -0.52134522470E+01  0.15412516916E+02  0.36837557729E+02  0.41800000000E+01 0.  1.
         -5    1    3    3    0  502 -0.62623017825E+02  0.41236036944E+02 -0.86155666542E+02  0.11429052621E+03  0.41800000000E+01 0.  1.
        -11    1    1    2    0    0  0.29570579121E+02 -0.62218553871E+02  0.59526087062E+02  0.91043520561E+02  0.00000000000E+00 0. -1.
         11    1    1    2    0    0  0.26818184999E+00  0.26195969173E+02  0.52962309368E+02  0.59087282354E+02  0.00000000000E+00 0.  1.
</event>
<event>
 7    1  0.2601031E-009  0.1242310E+03  0.7561462E-02  0.1236276E+00
         -1   -1    0    0    0  501 -0.00000000000E+00  0.00000000000E+00  0.97083642093E+02  0.97083642093E+02  0.00000000000E+00 0.  1.
          1   -1    0    0  501    0  0.00000000000E+00 -0.00000000000E+00 -0.18542768331E+03  0.18542768331E+03  0.00000000000E+00 0. -1.
         25    2    1    2    0    0 -0.20157985287E+02  0.82867772077E+02 -0.28144298377E+02  0.15399047274E+03  0.12509017605E+03 0.  0.
          5    1    3    3  502    0 -0.66449893160E+02  0.49238671457E+02  0.12408821440E+02  0.83734618392E+02  0.41800000000E+01 0. -1.
         -5    1    3    3    0  502  0.46291907874E+02  0.33629100621E+02 -0.40553119817E+02  0.70255854347E+02  0.41800000000E+01 0. -1.
        -11    1    1    2    0    0  0.44904743098E+02 -0.51507283018E+02 -0.18542823119E+02  0.70804466284E+02  0.00000000000E+00 0.  1.
         11    1    1    2    0    0 -0.24746757811E+02 -0.31360489060E+02 -0.41656919723E+02  0.57716386382E+02  0.00000000000E+00 0. -1.
</event>
<event>
 7    1  0.2601031E-009  0.2815778E+03  0.7561462E-02  0.1094830E+00
          2   -1    0    0  501    0  0.00000000000E+00  0.00000000000E+00  0.30240651295E+04  0.30240651295E+04  0.00000000000E+00 0. -1.
         -2   -1    0    0    0  501 -0.00000000000E+00 -0.00000000000E+00 -0.30693277792E+02  0.30693277792E+02  0.00000000000E+00 0.  1.
         25    2    1    2    0    0 -0.23219064021E+03 -0.15079182421E+03  0.18644831686E+04  0.18890725338E+04  0.12508750708E+03 0.  0.
          5    1    3    3  502    0 -0.11187333610E+03 -0.11520220287E+03  0.13486202655E+04  0.13581536304E+04  0.41800000000E+01 0.  1.
         -5    1    3    3    0  502 -0.12031730410E+03 -0.35589621345E+02  0.51586290310E+03  0.53091890342E+03  0.41800000000E+01 0.  1.
        -11    1    1    2    0    0  0.54790436201E+02  0.31527474343E+02  0.13497008479E+03  0.14903991857E+03  0.00000000000E+00 0.  1.
         11    1    1    2    0    0  0.17740020401E+03  0.11926434987E+03  0.99391859836E+03  0.10166459549E+04  0.00000000000E+00 0. -1.
</event>
<event>
 7    1  0.2601031E-009  0.1149780E+03  0.7561462E-02  0.1251620E+00
          2   -1    0    0  501    0  0.00000000000E+00  0.00000000000E+00  0.77762799697E+02  0.77762799697E+02  0.00000000000E+00 0. -1.
         -2   -1    0    0    0  501 -0.00000000000E+00 -0.00000000000E+00 -0.30857776165E+03  0.30857776165E+03  0.00000000000E+00 0.  1.
         25    2    1    2    0    0  0.49095813173E+01  0.77963278755E+02 -0.19827327867E+03  0.24710126029E+03  0.12507742794E+03 0.  0.
          5    1    3    3  502    0  0.59193040188E+02  0.14079030096E+02 -0.61406286825E+02  0.86546170088E+02  0.41800000000E+01 0.  1.
         -5    1    3    3    0  502 -0.54283458871E+02  0.63884248659E+02 -0.13686699185E+03  0.16055509020E+03  0.41800000000E+01 0.  1.
        -11    1    1    2    0    0 -0.18260275857E+02 -0.59554917205E+02  0.32554677322E+02  0.70285367277E+02  0.00000000000E+00 0. -1.
         11    1    1    2    0    0  0.13350694540E+02 -0.18408361549E+02 -0.65096360607E+02  0.68953933781E+02  0.00000000000E+00 0.  1.
</event>
<event>
 7    1  0.2601031E-009  0.1036279E+03  0.7561462E-02  0.1272847E+00
          1   -1    0    0  501    0  0.00000000000E+00  0.00000000000E+00  0.45668717037E+03  0.45668717037E+03  0.00000000000E+00 0. -1.
         -1   -1    0    0    0  501 -0.00000000000E+00 -0.00000000000E+00 -0.42061422036E+02  0.42061422036E+02  0.00000000000E+00 0.  1.
         25    2    1    2    0    0  0.79589962118E+02 -0.35814991007E+02  0.19768256916E+03  0.24968856978E+03  0.12509479636E+03 0.  0.
          5    1    3    3  502    0  0.83779385361E+02 -0.46041355384E+02  0.21112152267E+03  0.23179422243E+03  0.41800000000E+01 0. -1.
         -5    1    3    3    0  502 -0.41894232425E+01  0.10226364377E+02 -0.13438953510E+02  0.17894347345E+02  0.41800000000E+01 0. -1.
        -11    1    1    2    0    0 -0.17953303492E+01  0.20357569761E+02  0.27096795997E+01  0.20615436478E+02  0.00000000000E+00 0.  1.
         11    1    1    2    0    0 -0.77794631769E+02  0.15457421246E+02  0.21423349957E+03  0.22844458615E+03  0.00000000000E+00 0. -1.
</event>
<event>
 7    1  0.2601031E-009  0.1088780E+03  0.7561462E-02  0.1262662E+00
          1   -1    0    0  501    0  0.00000000000E+00  0.00000000000E+00  0.12965008540E+03  0.12965008540E+03  0.00000000000E+00 0. -1.
         -1   -1    0    0    0  501 -0.00000000000E+00 -0.00000000000E+00 -0.17049083389E+03  0.17049083389E+03  0.00000000000E+00 0.  1.
         25    2    1    2    0    0  0.71904050626E+02 -0.15192981201E+02 -0.93025704720E+02  0.17234777597E+03  0.12509578318E+03 0.  0.
          5    1    3    3  502    0 -0.32754132184E+02  0.99612026613E+01 -0.38242281326E+02  0.51497603969E+02  0.41800000000E+01 0. -1.
         -5    1    3    3    0  502  0.10465818281E+03 -0.25154183862E+02 -0.54783423394E+02  0.12085017200E+03  0.41800000000E+01 0. -1.
        -11    1    1    2    0    0 -0.30104222042E+02 -0.23907152849E+01 -0.24376436130E+02  0.38809668160E+02  0.00000000000E+00 0.  1.
         11    1    1    2    0    0 -0.41799828584E+02  0.17583696486E+02  0.76561392352E+02  0.88983475155E+02  0.00000000000E+00 0. -1.
</event>
<event>
 7    1  0.2601031E-009  0.1421138E+03  0.7561462E-02  0.1210513E+00
          1   -1    0    0  501    0  0.00000000000E+00  0.00000000000E+00  0.80554034518E+03  0.80554034518E+03  0.00000000000E+00 0. -1.
         -1   -1    0    0    0  501 -0.00000000000E+00 -0.00000000000E+00 -0.39971206705E+02  0.39971206705E+02  0.00000000000E+00 0.  1.
         25    2    1    2    0    0 -0.11412356606E+03  0.58471858812E+02  0.25419295016E+03  0.31097386425E+03  0.12509013443E+03 0.  0.
          5    1    3    3  502    0 -0.67856872956E+02 -0.10752391009E+02  0.20006977237E+03  0.21157872137E+03  0.41800000000E+01 0. -1.
         -5    1    3    3    0  502 -0.46266693103E+02  0.69224249821E+02  0.54123177793E+02  0.99395142882E+02  0.41800000000E+01 0. -1.
        -11    1    1    2    0    0  0.50428093815E+02 -0.86515720177E+01  0.75370220475E+02  0.91096171592E+02  0.00000000000E+00 0.  1.
         11    1    1    2    0    0  0.63695472243E+02 -0.49820286795E+02  0.43600596784E+03  0.44344151604E+03  0.00000000000E+00 0. -1.
</event>
<event>
 7    1  0.2601031E-009  0.1550523E+03  0.7561462E-02  0.1194399E+00
         -2   -1    0    0    0  501 -0.00000000000E+00  0.00000000000E+00  0.26977979042E+03  0.26977979042E+03  0.00000000000E+00 0.  1.
          2   -1    0    0  501    0  0.00000000000E+00 -0.00000000000E+00 -0.10110516929E+03  0.10110516929E+03  0.00000000000E+00 0. -1.
         25    2    1    2    0    0 -0.68200812702E+02 -0.92273267377E+02  0.54559194671E+02  0.17829542151E+03  0.12508734900E+03 0.  0.
          5    1    3    3  502    0  0.19206701528E+02 -0.76235209570E+02  0.11869258041E+02  0.79618190435E+02  0.41800000000E+01 0. -1.
         -5    1    3    3    0  502 -0.87407514230E+02 -0.16038057807E+02  0.42689936630E+02  0.98677231070E+02  0.41800000000E+01 0. -1.
        -11    1    1    2    0    0  0.88294667703E+02  0.72924980528E+02  0.11799206136E+03  0.16442666351E+03  0.00000000000E+00 0.  1.
         11    1    1    2    0    0 -0.20093855001E+02  0.19348286848E+02 -0.38766348937E+01  0.28162874691E+02  0.00000000000E+00 0. -1.
</event>
<event>
 7    1  0.2601031E-009  0.1548699E+03  0.7561462E-02  0.1194613E+00
          1   -1    0    0  501    0  0.00000000000E+00  0.00000000000E+00  0.49875843014E+02  0.49875843014E+02  0.00000000000E+00 0.  1.
         -1   -1    0    0    0  501 -0.00000000000E+00 -0.00000000000E+00 -0.95492236230E+03  0.95492236230E+03  0.00000000000E+00 0. -1.
         25    2    1    2    0    0 -0.35700840364E+02 -0.11868175570E+03 -0.68725765205E+03  0.70945741785E+03  0.12508732269E+03 0.  0.
          5    1    3    3  502    0  0.31243181346E+02 -0.45942285427E+02 -0.43393302856E+03  0.43749534357E+03  0.41800000000E+01 0. -1.
         -5    1    3    3    0  502 -0.66944021711E+02 -0.72739470273E+02 -0.25332462349E+03  0.27196207427E+03  0.41800000000E+01 0. -1.
        -11    1    1    2    0    0  0.65539344742E+02  0.58256759800E+02 -0.25104180630E+02  0.91211159716E+02  0.00000000000E+00 0.  1.
         11    1    1    2    0    0 -0.29838504378E+02  0.60424995900E+02 -0.19268468661E+03  0.20412962776E+03  0.00000000000E+00 0. -1.
</event>
<event>
 7    1  0.2601031E-009  0.1302306E+03  0.7561462E-02  0.1227114E+00
         -1   -1    0    0    0  501 -0.00000000000E+00  0.00000000000E+00  0.29714221722E+02  0.29714221722E+02  0.00000000000E+00 0.  1.
          1   -1    0    0  501    0  0.00000000000E+00 -0.00000000000E+00 -0.61180527068E+03  0.61180527068E+03  0.00000000000E+00 0. -1.
         25    2    1    2    0    0  0.72475423942E+02 -0.27089710182E+02 -0.28503886082E+03  0.32075157836E+03  0.12509149998E+03 0.  0.
          5    1    3    3  502    0  0.15126676708E+02  0.48303616621E+02 -0.12193289912E+03  0.13208769820E+03  0.41800000000E+01 0.  1.
         -5    1    3    3    0  502  0.57348747234E+02 -0.75393326803E+02 -0.16310596170E+03  0.18866388016E+03  0.41800000000E+01 0.  1.
        -11    1    1    2    0    0 -0.77371185995E+02  0.49542385800E+02 -0.18709857597E+03  0.20843854140E+03  0.00000000000E+00 0.  1.
         11    1    1    2    0    0  0.48957620531E+01 -0.22452675618E+02 -0.10995361217E+03  0.11232937264E+03  0.00000000000E+00 0. -1.
</event>
<event>
 7    1  0.2601031E-009  0.8972081E+02  0.7561462E-02  0.1303529E+00
         -2   -1    0    0    0  501 -0.00000000000E+00  0.00000000000E+00  0.22431761545E+02  0.22431761545E+02  0.00000000000E+00 0. -1.
          2   -1    0    0  501    0  0.00000000000E+00 -0.00000000000E+00 -0.92671378733E+03  0.92671378733E+03  0.00000000000E+00 0.  1.
         25    2    1    2    0    0 -0.11672503623E+02  0.22545688148E+02 -0.79154035402E+03  0.80176545509E+03  0.12508859874E+03 0.  0.
          5    1    3    3  502    0  0.46878331932E+02  0.31043239421E+02 -0.21823493948E+03  0.22540013737E+03  0.41800000000E+01 0.  1.
         -5    1    3    3    0  502 -0.58550835555E+02 -0.84975512729E+01 -0.57330541454E+03  0.57636531772E+03  0.41800000000E+01 0.  1.
        -11    1    1    2    0    0  0.35552799274E+02 -0.16008828150E+02 -0.11602795815E+03  0.12240413059E+03  0.00000000000E+00 0.  1.
         11    1    1    2    0    0 -0.23880295651E+02 -0.65368599975E+01  0.32862863863E+01  0.24975963189E+02  0.00000000000E+00 0. -1.
</event>
<event>
 7    1  0.3404239E-009  0.1581882E+03  0.7561462E-02  0.1190758E+00
         -2   -1    0    0    0  501 -0.00000000000E+00  0.00000000000E+00  0.43539527950E+02  0.43539527950E+02  0.00000000000E+00 0. -1.
          2   -1    0    0  501    0  0.00000000000E+00 -0.00000000000E+00 -0.73541240777E+03  0.73541240777E+03  0.00000000000E+00 0.  1.
         25    2    1    2    0    0 -0.97799109533E+02 -0.69410311042E+02 -0.20098741774E+03  0.26537855202E+03  0.12508947469E+03 0.  0.
          5    1    3    3  502    0 -0.12347888624E+03 -0.64135622698E+02 -0.13356642566E+03  0.19291935079E+03  0.41800000000E+01 0.  1.
         -5    1    3    3    0  502  0.25679776710E+02 -0.52746883441E+01 -0.67420992084E+02  0.72459201228E+02  0.41800000000E+01 0.  1.
        -11    1    1    2    0    0  0.43097571999E+02  0.83650754781E+02 -0.28982630288E+03  0.30471976524E+03  0.00000000000E+00 0.  1.
         11    1    1    2    0    0  0.54701537535E+02 -0.14240443738E+02 -0.20105915919E+03  0.20885361846E+03  0.00000000000E+00 0. -1.
</event>
<event>
 7    1  0.2601031E-009  0.1143490E+03  0.7561462E-02  0.1252722E+00
          1   -1    0    0  501    0  0.00000000000E+00  0.00000000000E+00  0.15226555408E+03  0.15226555408E+03  0.00000000000E+00 0. -1.
         -1   -1    0    0    0  501 -0.00000000000E+00 -0.00000000000E+00 -0.11063155009E+03  0.11063155009E+03  0.00000000000E+00 0.  1.
         25    2    1    2    0    0 -0.48289581493E+02 -0.20454671668E+02 -0.26507564390E+02  0.13820503713E+03  0.12509078321E+03 0.  0.
          5    1    3    3  502    0 -0.66829460594E+02 -0.61025151986E+02 -0.13842322370E+02  0.91647849220E+02  0.41800000000E+01 0. -1.
         -5    1    3    3    0  502  0.18539879101E+02  0.40570480318E+02 -0.12665242020E+02  0.46557187906E+02  0.41800000000E+01 0. -1.
        -11    1    1    2    0    0 -0.19110572647E+02  0.17377178329E+02  0.47612548276E+02  0.54167657019E+02  0.00000000000E+00 0.  1.
         11    1    1    2    0    0  0.67400154140E+02  0.30774933381E+01  0.20529020094E+02  0.70524410025E+02  0.00000000000E+00 0. -1.
</event>
<event>
 7    1  0.2601031E-009  0.9205534E+02  0.7561462E-02  0.1297949E+00
         -3   -1    0    0    0  501 -0.00000000000E+00  0.00000000000E+00  0.25763880950E+03  0.25763880950E+03  0.00000000000E+00 0.  1.
          3   -1    0    0  501    0  0.00000000000E+00 -0.00000000000E+00 -0.62513518394E+02  0.62513518394E+02  0.00000000000E+00 0. -1.
         25    2    1    2    0    0 -0.79420539427E+01  0.10296519482E+01  0.19190135313E+03  0.22921121619E+03  0.12509003114E+03 0.  0.
          5    1    3    3  502    0 -0.23510503383E+02 -0.49352374585E+02  0.15580819705E+03  0.16517284073E+03  0.41800000000E+01 0.  1.
         -5    1    3    3    0  502  0.15568449440E+02  0.50382026533E+02  0.36093156078E+02  0.64038375457E+02  0.41800000000E+01 0.  1.
        -11    1    1    2    0    0  0.35239658183E+02  0.21250373564E+02 -0.22884944454E+02  0.47086437199E+02  0.00000000000E+00 0. -1.
         11    1    1    2    0    0 -0.27297604240E+02 -0.22280025512E+02  0.26108882425E+02  0.43854674501E+02  0.00000000000E+00 0.  1.
</event>
<event>
 7    1  0.2601031E-009  0.1604573E+03  0.7561462E-02  0.1188181E+00
          2   -1    0    0  501    0  0.00000000000E+00  0.00000000000E+00  0.37784475828E+03  0.37784475828E+03  0.00000000000E+00 0.  1.
         -2   -1    0    0    0  501 -0.00000000000E+00 -0.00000000000E+00 -0.10549720884E+03  0.10549720884E+03  0.00000000000E+00 0. -1.
         25    2    1    2    0    0  0.13320295437E+03 -0.87441630049E+02  0.18994802555E+03  0.27769958722E+03  0.12509093738E+03 0.  0.
          5    1    3    3  502    0  0.11312672538E+03 -0.82591650760E+02  0.71359864703E+02  0.15725374228E+03  0.41800000000E+01 0.  1.
         -5    1    3    3    0  502  0.20076228983E+02 -0.48499792890E+01  0.11858816085E+03  0.12044584494E+03  0.41800000000E+01 0.  1.
        -11    1    1    2    0    0 -0.73058067617E+02  0.54412630216E+02  0.99525235334E+02  0.13492030255E+03  0.00000000000E+00 0.  1.
         11    1    1    2    0    0 -0.60144886750E+02  0.33028999833E+02 -0.17125711450E+02  0.70722077350E+02  0.00000000000E+00 0. -1.
</event>
<event>
 7    1  0.2601031E-009  0.1034291E+03  0.7561462E-02  0.1273246E+00
          1   -1    0    0  501    0  0.00000000000E+00  0.00000000000E+00  0.32140610215E+02  0.32140610215E+02  0.00000000000E+00 0. -1.
         -1   -1    0    0    0  501 -0.00000000000E+00 -0.00000000000E+00 -0.58377397648E+03  0.58377397648E+03  0.00000000000E+00 0.  1.
         25    2    1    2    0    0  0.41856420423E+02 -0.72389052254E+02 -0.28969611866E+03  0.32644644208E+03  0.12510517001E+03 0.  0.
          5    1    3    3  502    0  0.55700086178E+02 -0.73220990687E+02 -0.29647832434E+03  0.31045238328E+03  0.41800000000E+01 0. -1.
         -5    1    3    3    0  502 -0.13843665756E+02  0.83193843379E+00  0.67822056811E+01  0.15994058804E+02  0.41800000000E+01 0. -1.
        -11    1    1    2    0    0 -0.50854874211E+01  0.61807334180E+02 -0.23403392585E+03  0.24211131156E+03  0.00000000000E+00 0.  1.
         11    1    1    2    0    0 -0.36770933002E+02  0.10581718074E+02 -0.27903321753E+02  0.47356833045E+02  0.00000000000E+00 0. -1.
</event>
<event>
 7    1  0.2601031E-009  0.8582408E+02  0.7561462E-02  0.1313291E+00
         -2   -1    0    0    0  501 -0.00000000000E+00  0.00000000000E+00  0.30199140972E+02  0.30199140972E+02  0.00000000000E+00 0.  1.
          2   -1    0    0  501    0  0.00000000000E+00 -0.00000000000E+00 -0.50618098817E+03  0.50618098817E+03  0.00000000000E+00 0. -1.
         25    2    1    2    0    0  0.47355183131E+02 -0.35598950624E+02 -0.27032957473E+03  0.30370317645E+03  0.12509093395E+03 0.  0.
          5    1    3    3  502    0  0.25212636885E+02 -0.40348289555E+01 -0.26295651774E+03  0.26422634147E+03  0.41800000000E+01 0.  1.
         -5    1    3    3    0  502  0.22142546246E+02 -0.31564121668E+02 -0.73730569936E+01  0.39476834984E+02  0.41800000000E+01 0.  1.
        -11    1    1    2    0    0 -0.74122359386E+02  0.26714566436E+02 -0.16869622924E+03  0.18618864085E+03  0.00000000000E+00 0. -1.
         11    1    1    2    0    0  0.26767176256E+02  0.88843841874E+01 -0.36956043217E+02  0.46488311836E+02  0.00000000000E+00 0.  1.
</event>
<event>
 7    1  0.2601031E-009  0.9965752E+02  0.7561462E-02  0.1281018E+00
          1   -1    0    0  501    0  0.00000000000E+00  0.00000000000E+00  0.14777355005E+03  0.14777355005E+03  0.00000000000E+00 0. -1.
         -1   -1    0    0    0  501 -0.00000000000E+00 -0.00000000000E+00 -0.82984485182E+02  0.82984485182E+02  0.00000000000E+00 0.  1.
         25    2    1    2    0    0  0.43236089412E+00 -0.22802867585E+02  0.31614989754E+02  0.13102335240E+03  0.12508978212E+03 0.  0.
          5    1    3    3  502    0  0.33674172126E+02  0.36237176968E+02 -0.11031463560E+02  0.50855171332E+02  0.41800000000E+01 0. -1.
         -5    1    3    3    0  502 -0.33241811232E+02 -0.59040044552E+02  0.42646453314E+02  0.80168181063E+02  0.41800000000E+01 0. -1.
        -11    1    1    2    0    0  0.36229940277E+02 -0.38879915621E+01  0.39735848454E+02  0.53913474227E+02  0.00000000000E+00 0. -1.
         11    1    1    2    0    0 -0.36662301171E+02  0.26690859147E+02 -0.65617733397E+01  0.45821208610E+02  0.00000000000E+00 0.  1.
</event>
<event>
 7    1  0.2601031E-009  0.1325848E+03  0.7561462E-02  0.1223670E+00
         -2   -1    0    0    0  501 -0.00000000000E+00  0.00000000000E+00  0.15559920555E+03  0.15559920555E+03  0.00000000000E+00 0.  1.
          2   -1    0    0  501    0  0.00000000000E+00 -0.00000000000E+00 -0.12969854483E+03  0.12969854483E+03  0.00000000000E+00 0. -1.
         25    2    1    2    0    0  0.22356707715E+02  0.70847199088E+02  0.50425244226E+02  0.15398582345E+03  0.12509908301E+03 0.  0.
          5    1    3    3  502    0 -0.50629069338E+02  0.13507556940E+02  0.17019717927E+02  0.55253053806E+02  0.41800000000E+01 0. -1.
         -5    1    3    3    0  502  0.72985777053E+02  0.57339642147E+02  0.33405526299E+02  0.98732769641E+02  0.41800000000E+01 0. -1.
        -11    1    1    2    0    0  0.27202186554E+02 -0.64156097792E+02 -0.38198630403E+02  0.79467598441E+02  0.00000000000E+00 0. -1.
         11    1    1    2    0    0 -0.49558894270E+02 -0.66911012953E+01  0.13674046898E+02  0.51844328488E+02  0.00000000000E+00 0.  1.
</event>
<event>
 7    1  0.2601031E-009  0.9037671E+02  0.7561462E-02  0.1301942E+00
         -2   -1    0    0    0  501 -0.00000000000E+00  0.00000000000E+00  0.49067051465E+02  0.49067051465E+02  0.00000000000E+00 0. -1.
          2   -1    0    0  501    0  0.00000000000E+00 -0.00000000000E+00 -0.56653881816E+03  0.56653881816E+03  0.00000000000E+00 0.  1.
         25    2    1    2    0    0 -0.31290551726E+02  0.74852471981E+02 -0.47486168754E+03  0.49771726199E+03  0.12508740702E+03 0.  0.
          5    1    3    3  502    0 -0.32243445874E+02  0.45848241682E+02 -0.61492770908E+02  0.83309869410E+02  0.41800000000E+01 0.  1.
         -5    1    3    3    0  502  0.95289414828E+00  0.29004230299E+02 -0.41336891663E+03  0.41440739258E+03  0.41800000000E+01 0.  1.
        -11    1    1    2    0    0  0.77747631905E+01 -0.70968548112E+02 -0.27499469075E+01  0.71446091368E+02  0.00000000000E+00 0. -1.
         11    1    1    2    0    0  0.23515788535E+02 -0.38839238688E+01 -0.39860132248E+02  0.46442516274E+02  0.00000000000E+00 0.  1.
</event>
<event>
 7    1  0.2601031E-009  0.1132572E+03  0.7561462E-02  0.1254654E+00
         -2   -1    0    0    0  501 -0.00000000000E+00  0.00000000000E+00  0.53567049996E+02  0.53567049996E+02  0.00000000000E+00 0.  1.
          2   -1    0    0  501    0  0.00000000000E+00 -0.00000000000E+00 -0.43682496712E+03  0.43682496712E+03  0.00000000000E+00 0. -1.
         25    2    1    2    0    0 -0.74678463628E+02  0.68146040774E+02 -0.14544234633E+03  0.21684426727E+03  0.12508878582E+03 0.  0.
          5    1    3    3  502    0 -0.60705901709E+02  0.50589918990E+02 -0.16740728506E+03  0.18516808012E+03  0.41800000000E+01 0.  1.
         -5    1    3    3    0  502 -0.13972561919E+02  0.17556121785E+02  0.21964938729E+02  0.31676187145E+02  0.41800000000E+01 0.  1.
        -11    1    1    2    0    0 -0.81157106386E+01  0.84860710284E+01 -0.16995848512E+01  0.11864516397E+02  0.00000000000E+00 0.  1.
         11    1    1    2    0    0  0.82794174266E+02 -0.76632111803E+02 -0.23611598594E+03  0.26168323345E+03  0.00000000000E+00 0. -1.
</event>
<event>
 7    1  0.2601031E-009  0.1488912E+03  0.7561462E-02  0.1201842E+00
         -1   -1    0    0    0  501 -0.00000000000E+00  0.00000000000E+00  0.32993380790E+03  0.32993380790E+03  0.00000000000E+00 0.  1.
          1   -1    0    0  501    0  0.00000000000E+00 -0.00000000000E+00 -0.11617184593E+03  0.11617184593E+03  0.00000000000E+00 0. -1.
         25    2    1    2    0    0  0.60748478692E+02  0.98100031576E+02 -0.15896823419E+02  0.17092731853E+03  0.12509774325E+03 0.  0.
          5    1    3    3  502    0  0.71514300759E+02  0.13031531452E+02 -0.38206111774E+02  0.82227096518E+02  0.41800000000E+01 0. -1.
         -5    1    3    3    0  502 -0.10765822067E+02  0.85068500124E+02  0.22309288354E+02  0.88700222012E+02  0.41800000000E+01 0. -1.
        -11    1    1    2    0    0 -0.30236499129E+02 -0.10377153087E+03  0.21545674623E+03  0.24104851378E+03  0.00000000000E+00 0.  1.
         11    1    1    2    0    0 -0.30511979563E+02  0.56714992907E+01  0.14202039150E+02  0.34129821521E+02  0.00000000000E+00 0. -1.
</event>
<event>
 7    1  0.2601031E-009  0.9318664E+02  0.7561462E-02  0.1295313E+00
          2   -1    0    0  501    0  0.00000000000E+00  0.00000000000E+00  0.11510367196E+03  0.11510367196E+03  0.00000000000E+00 0. -1.
         -2   -1    0    0    0  501 -0.00000000000E+00 -0.00000000000E+00 -0.10643893671E+03  0.10643893671E+03  0.00000000000E+00 0.  1.
         25    2    1    2    0    0  0.26355536872E+02  0.11415165771E+02 -0.99994505823E+01  0.12873181358E+03  0.12508785106E+03 0.  0.
          5    1    3    3  502    0 -0.33865528830E+02  0.34838523608E+02  0.25349085240E+02  0.54960397494E+02  0.41800000000E+01 0.  1.
         -5    1    3    3    0  502  0.60221065702E+02 -0.23423357837E+02 -0.35348535823E+02  0.73771416087E+02  0.41800000000E+01 0.  1.
        -11    1    1    2    0    0 -0.19746196910E+02  0.27238017621E+02  0.36579609648E+02  0.49697985254E+02  0.00000000000E+00 0. -1.
         11    1    1    2    0    0 -0.66093399615E+01 -0.38653183391E+02 -0.17915423822E+02  0.43112809833E+02  0.00000000000E+00 0.  1.
</event>
<event>
 7    1  0.2601031E-009  0.8258306E+02  0.7561462E-02  0.1321877E+00
         -1   -1    0    0    0  501 -0.00000000000E+00  0.00000000000E+00  0.65519452129E+02  0.65519452129E+02  0.00000000000E+00 0.  1.
          1   -1    0    0  501    0  0.00000000000E+00 -0.00000000000E+00 -0.19996988197E+03  0.19996988197E+03  0.00000000000E+00 0. -1.
         25    2    1    2    0    0  0.27522962722E+01  0.33549488521E+02 -0.64387405865E+02  0.14465891613E+03  0.12508925080E+03 0.  0.
          5    1    3    3  502    0 -0.45086948654E+02  0.49051303835E+02 -0.53139997707E+01  0.66966964545E+02  0.41800000000E+01 0. -1.
         -5    1    3    3    0  502  0.47839244926E+02 -0.15501815314E+02 -0.59073406094E+02  0.77691951582E+02  0.41800000000E+01 0. -1.
        -11    1    1    2    0    0 -0.13426942704E+02 -0.74101780793E+00  0.20161309347E+02  0.24234485601E+02  0.00000000000E+00 0.  1.
         11    1    1    2    0    0  0.10674646431E+02 -0.32808470713E+02 -0.90224333325E+02  0.96595932372E+02  0.00000000000E+00 0. -1.
</event>
<event>
 7    1  0.2601031E-009  0.2263273E+03  0.7561462E-02  0.1129252E+00
         -4   -1    0    0    0  501 -0.00000000000E+00  0.00000000000E+00  0.27736312437E+03  0.27736312437E+03  0.00000000000E+00 0.  1.
          4   -1    0    0  501    0  0.00000000000E+00 -0.00000000000E+00 -0.21062816357E+03  0.21062816357E+03  0.00000000000E+00 0. -1.
         25    2    1    2    0    0  0.20659014400E+03 -0.19049422361E+02  0.92899621502E+02  0.25946150468E+03  0.12509022602E+03 0.  0.
          5    1    3    3  502    0  0.11884255227E+03 -0.71183100461E+02  0.67713728439E+02  0.15425046982E+03  0.41800000000E+01 0. -1.
         -5    1    3    3    0  502  0.87747591730E+02  0.52133678100E+02  0.25185893064E+02  0.10521103486E+03  0.41800000000E+01 0. -1.
        -11    1    1    2    0    0 -0.25706668217E+02 -0.12018464137E+02 -0.34667483497E+02  0.44800788867E+02  0.00000000000E+00 0.  1.
         11    1    1    2    0    0 -0.18088347579E+03  0.31067886498E+02  0.85028227863E+01  0.18372899439E+03  0.00000000000E+00 0. -1.
</event>
<event>
 7    1  0.2601031E-009  0.9194098E+02  0.7561462E-02  0.1298218E+00
         -1   -1    0    0    0  501 -0.00000000000E+00  0.00000000000E+00  0.24544900247E+03  0.24544900247E+03  0.00000000000E+00 0.  1.
          1   -1    0    0  501    0  0.00000000000E+00 -0.00000000000E+00 -0.61077626537E+02  0.61077626537E+02  0.00000000000E+00 0. -1.
         25    2    1    2    0    0  0.94247509001E+01 -0.41055410638E+02  0.13318611880E+03  0.18751177218E+03  0.12509096608E+03 0.  0.
          5    1    3    3  502    0  0.12557195977E+02 -0.85689828232E+02  0.81155406537E+02  0.11876069318E+03  0.41800000000E+01 0.  1.
         -5    1    3    3    0  502 -0.31324450772E+01  0.44634417594E+02  0.52030712265E+02  0.68751079009E+02  0.41800000000E+01 0.  1.
        -11    1    1    2    0    0 -0.14797552159E+02  0.47572432525E+01 -0.27840534779E+02  0.31885643949E+02  0.00000000000E+00 0. -1.
         11    1    1    2    0    0  0.53728012586E+01  0.36298167386E+02  0.79025791908E+02  0.87129212871E+02  0.00000000000E+00 0.  1.
</event>
<event>
 7    1  0.2601031E-009  0.1118910E+03  0.7561462E-02  0.1257108E+00
          1   -1    0    0  501    0  0.00000000000E+00  0.00000000000E+00  0.62896651020E+02  0.62896651020E+02  0.00000000000E+00 0. -1.
         -1   -1    0    0    0  501 -0.00000000000E+00 -0.00000000000E+00 -0.21704574079E+03  0.21704574079E+03  0.00000000000E+00 0.  1.
         25    2    1    2    0    0 -0.25236920707E+02 -0.28478622645E+02 -0.12009387205E+03  0.17753375572E+03  0.12509101567E+03 0.  0.
          5    1    3    3  502    0 -0.33024770582E+02 -0.74338557188E+02 -0.58722707904E+02  0.10041257581E+03  0.41800000000E+01 0.  1.
         -5    1    3    3    0  502  0.77878498749E+01  0.45859934542E+02 -0.61371164149E+02  0.77121179911E+02  0.41800000000E+01 0.  1.
        -11    1    1    2    0    0  0.23311979619E+02 -0.29509504858E+02 -0.64483239716E+01  0.38155473431E+02  0.00000000000E+00 0.  1.
         11    1    1    2    0    0  0.19249410880E+01  0.57988127503E+02 -0.27606893745E+02  0.64253162660E+02  0.00000000000E+00 0. -1.
</event>
<event>
 7    1  0.2601031E-009  0.1441373E+03  0.7561462E-02  0.1207868E+00
         -1   -1    0    0    0  501 -0.00000000000E+00  0.00000000000E+00  0.12895008894E+03  0.12895008894E+03  0.00000000000E+00 0.  1.
          1   -1    0    0  501    0  0.00000000000E+00 -0.00000000000E+00 -0.21940555963E+03  0.21940555963E+03  0.00000000000E+00 0. -1.
         25    2    1    2    0    0 -0.16807673766E+02  0.12731736495E+03 -0.37738998936E+02  0.18320570423E+03  0.12509152132E+03 0.  0.
          5    1    3    3  502    0 -0.26046628459E+01 -0.20864153896E+01 -0.51913848994E+02  0.52188672287E+02  0.41800000000E+01 0.  1.
         -5    1    3    3    0  502 -0.14203010920E+02  0.12940378034E+03  0.14174850057E+02  0.13101703194E+03  0.41800000000E+01 0.  1.
        -11    1    1    2    0    0 -0.24766889220E+02 -0.75381969464E+01  0.41021445039E+01  0.26211653980E+02  0.00000000000E+00 0.  1.
         11    1    1    2    0    0  0.41574562986E+02 -0.11977916800E+03 -0.56818616254E+02  0.13893829036E+03  0.00000000000E+00 0. -1.
</event>
<event>
 7    1  0.2601031E-009  0.9833423E+02  0.7561462E-02  0.1283838E+00
         -2   -1    0    0    0  501 -0.00000000000E+00  0.00000000000E+00  0.21893171282E+02  0.21893171282E+02  0.00000000000E+00 0. -1.
          2   -1    0    0  501    0  0.00000000000E+00 -0.00000000000E+00 -0.64948284977E+03  0.64948284977E+03  0.00000000000E+00 0.  1.
         25    2    1    2    0    0 -0.40935911188E+02  0.19754786871E+02 -0.41184123049E+03  0.43281151629E+03  0.12508640644E+03 0.  0.
          5    1    3    3  502    0 -0.77916863863E+02  0.10308925120E+02 -0.35880044491E+03  0.36733165297E+03  0.41800000000E+01 0.  1.
         -5    1    3    3    0  502  0.36980952676E+02  0.94458617508E+01 -0.53040785584E+02  0.65479863320E+02  0.41800000000E+01 0.  1.
        -11    1    1    2    0    0  0.49549660909E+02  0.82800884039E+01 -0.19802271176E+03  0.20429567575E+03  0.00000000000E+00 0.  1.
         11    1    1    2    0    0 -0.86137497219E+01 -0.28034875275E+02 -0.17725736238E+02  0.34268829001E+02  0.00000000000E+00 0. -1.
</event>
<event>
 7    1  0.2601031E-009  0.1103515E+03  0.7561462E-02  0.1259920E+00
         -2   -1    0    0    0  501 -0.00000000000E+00  0.00000000000E+00  0.30840779883E+02  0.30840779883E+02  0.00000000000E+00 0.  1.
          2   -1    0    0  501    0  0.00000000000E+00 -0.00000000000E+00 -0.43722700114E+03  0.43722700114E+03  0.00000000000E+00 0. -1.
         25    2    1    2    0    0 -0.23075772962E+01  0.36979873379E+02 -0.18862801373E+03  0.22934395902E+03  0.12508112578E+03 0.  0.
          5    1    3    3  502    0  0.27533417888E+02 -0.38235327673E+02 -0.50417608700E+02  0.69133472717E+02  0.41800000000E+01 0.  1.
         -5    1    3    3    0  502 -0.29840995185E+02  0.75215201053E+02 -0.13821040503E+03  0.16021048631E+03  0.41800000000E+01 0.  1.
        -11    1    1    2    0    0 -0.34000572323E+02  0.76400884652E+01 -0.46818865090E+02  0.58364509750E+02  0.00000000000E+00 0.  1.
         11    1    1    2    0    0  0.36308149619E+02 -0.44619961844E+02 -0.17093934244E+03  0.18035931225E+03  0.00000000000E+00 0. -1.
</event>
<event>
 7    1  0.2601031E-009  0.9961232E+02  0.7561462E-02  0.1281113E+00
         -1   -1    0    0    0  501 -0.00000000000E+00  0.00000000000E+00  0.29229498034E+03  0.29229498034E+03  0.00000000000E+00 0.  1.
          1   -1    0    0  501    0  0.00000000000E+00 -0.00000000000E+00 -0.47652791810E+02  0.47652791810E+02  0.00000000000E+00 0. -1.
         25    2    1    2    0    0 -0.93521132018E+01  0.41345963245E+02  0.16486687966E+03  0.21125671443E+03  0.12510539830E+03 0.  0.
          5    1    3    3  502    0 -0.25438752279E+01 -0.30003076707E+02  0.12600215752E+03  0.12961740629E+03  0.41800000000E+01 0. -1.
         -5    1    3    3    0  502 -0.68082379738E+01  0.71349039952E+02  0.38864722139E+02  0.81639308139E+02  0.41800000000E+01 0. -1.
        -11    1    1    2    0    0  0.47706804140E+02 -0.32331649365E+02  0.29276265097E+02  0.64640346611E+02  0.00000000000E+00 0. -1.
         11    1    1    2    0    0 -0.38354690939E+02 -0.90143138796E+01  0.50499043773E+02  0.64050711110E+02  0.00000000000E+00 0.  1.
</event>
<event>
 7    1  0.4248765E-009  0.9471516E+02  0.7561462E-02  0.1291819E+00
         -1   -1    0    0    0  501 -0.00000000000E+00  0.00000000000E+00  0.14343695180E+02  0.14343695180E+02  0.00000000000E+00 0.  1.
          1   -1    0    0  501    0  0.00000000000E+00 -0.00000000000E+00 -0.10558424879E+04  0.10558424879E+04  0.00000000000E+00 0. -1.
         25    2    1    2    0    0 -0.50206382550E+01  0.54769729120E+02 -0.67090745604E+03  0.68468113944E+03  0.12508604275E+03 0.  0.
          5    1    3    3  502    0 -0.30188151697E+02  0.47229417636E+01 -0.55522691065E+03  0.55608275049E+03  0.41800000000E+01 0. -1.
         -5    1    3    3    0  502  0.25167513442E+02  0.50046787357E+02 -0.11568054539E+03  0.12859838894E+03  0.41800000000E+01 0. -1.
        -11    1    1    2    0    0 -0.21786181742E+02 -0.68794728623E+02 -0.20903104244E+03  0.22113644906E+03  0.00000000000E+00 0.  1.
         11    1    1    2    0    0  0.26806819998E+02  0.14024999502E+02 -0.16156029420E+03  0.16436859454E+03  0.00000000000E+00 0. -1.
</event>
<event>
 7    1  0.2601031E-009  0.1113614E+03  0.7561462E-02  0.1258069E+00
          3   -1    0    0  501    0  0.00000000000E+00  0.00000000000E+00  0.11704757117E+04  0.11704757117E+04  0.00000000000E+00 0. -1.
         -3   -1    0    0    0  501 -0.00000000000E+00 -0.00000000000E+00 -0.10822319147E+02  0.10822319147E+02  0.00000000000E+00 0.  1.
         25    2    1    2    0    0 -0.30473716455E+02  0.37774167564E+01  0.70216144091E+03  0.71387582316E+03  0.12508031627E+03 0.  0.
          5    1    3    3  502    0 -0.37796366032E+02 -0.55660864751E+02  0.31950729343E+03  0.32654108487E+03  0.41800000000E+01 0.  1.
         -5    1    3    3    0  502  0.73226495770E+01  0.59438281507E+02  0.38265414748E+03  0.38733473829E+03  0.41800000000E+01 0.  1.
        -11    1    1    2    0    0  0.93019558621E+01  0.42967560356E+02  0.18619854026E+03  0.19131814870E+03  0.00000000000E+00 0. -1.
         11    1    1    2    0    0  0.21171760593E+02 -0.46744977113E+02  0.27129341136E+03  0.27610405897E+03  0.00000000000E+00 0.  1.
</event>
<event>
 7    1  0.2601031E-009  0.8499539E+02  0.7561462E-02  0.1315445E+00
         -1   -1    0    0    0  501 -0.00000000000E+00  0.00000000000E+00  0.54067625811E+02  0.54067625811E+02  0.00000000000E+00 0.  1.
          1   -1    0    0  501    0  0.00000000000E+00 -0.00000000000E+00 -0.31645749988E+03  0.31645749988E+03  0.00000000000E+00 0. -1.
         25    2    1    2    0    0 -0.70811517508E+02 -0.10325066966E+01 -0.17865568182E+03  0.22930484066E+03  0.12509004845E+03 0.  0.
          5    1    3    3  502    0 -0.38291311244E+02 -0.34889091609E+01  0.82354138274E+01  0.39543538597E+02  0.41800000000E+01 0. -1.
         -5    1    3    3    0  502 -0.32520206265E+02  0.24564024644E+01 -0.18689109565E+03  0.18976130207E+03  0.41800000000E+01 0. -1.
        -11    1    1    2    0    0  0.78905409487E+02  0.16833734768E+02 -0.91371053889E+02  0.12189383808E+03  0.00000000000E+00 0.  1.
         11    1    1    2    0    0 -0.80938919792E+01 -0.15801228072E+02  0.76368616422E+01  0.19326446949E+02  0.00000000000E+00 0. -1.
</event>
<event>
 7    1  0.2601031E-009  0.1111600E+03  0.7561462E-02  0.1258437E+00
          2   -1    0    0  501    0  0.00000000000E+00  0.00000000000E+00  0.20634131322E+04  0.20634131322E+04  0.00000000000E+00 0.  1.
         -2   -1    0    0    0  501 -0.00000000000E+00 -0.00000000000E+00 -0.13356970491E+02  0.13356970491E+02  0.00000000000E+00 0. -1.
         25    2    1    2    0    0  0.62331733384E+02 -0.59106677098E+02  0.16585109552E+04  0.16654383133E+04  0.12508933800E+03 0.  0.
          5    1    3    3  502    0  0.19545947396E+02 -0.49169023950E+02  0.14989407774E+04  0.14998801830E+04  0.41800000000E+01 0.  1.
         -5    1    3    3    0  502  0.42785785988E+02 -0.99376531477E+01  0.15957017786E+03  0.16555813026E+03  0.41800000000E+01 0.  1.
        -11    1    1    2    0    0 -0.59310224515E+02  0.82458947898E+02  0.33556246700E+03  0.35059855972E+03  0.00000000000E+00 0.  1.
         11    1    1    2    0    0 -0.30215088685E+01 -0.23352270800E+02  0.55982739416E+02  0.60733229618E+02  0.00000000000E+00 0. -1.
</event>
<event>
 7    1  0.2601031E-009  0.1139504E+03  0.7561462E-02  0.1253424E+00
          1   -1    0    0  501    0  0.00000000000E+00  0.00000000000E+00  0.95925837821E+02  0.95925837821E+02  0.00000000000E+00 0. -1.
         -1   -1    0    0    0  501 -0.00000000000E+00 -0.00000000000E+00 -0.16209807017E+03  0.16209807017E+03  0.00000000000E+00 0.  1.
         25    2    1    2    0    0  0.33510571043E+02  0.52548622818E+02 -0.21430172093E+02  0.14138662983E+03  0.12508641288E+03 0.  0.
          5    1    3    3  502    0  0.94196761105E+01 -0.33155991552E+02 -0.37191407008E+02  0.50879497138E+02  0.41800000000E+01 0.  1.
         -5    1    3    3    0  502  0.24090894933E+02  0.85704614369E+02  0.15761234915E+02  0.90507132696E+02  0.41800000000E+01 0.  1.
        -11    1    1    2    0    0  0.27124090293E+02 -0.26958828419E+02 -0.22712657058E+01  0.38309964132E+02  0.00000000000E+00 0.  1.
         11    1    1    2    0    0 -0.60634661336E+02 -0.25589794399E+02 -0.42470794554E+02  0.78327314027E+02  0.00000000000E+00 0. -1.
</event>
<event>
 7    1  0.2601031E-009  0.1602721E+03  0.7561462E-02  0.1188390E+00
          2   -1    0    0  501    0  0.00000000000E+00  0.00000000000E+00  0.44551610845E+03  0.44551610845E+03  0.00000000000E+00 0. -1.
         -2   -1    0    0    0  501 -0.00000000000E+00 -0.00000000000E+00 -0.64573125122E+02  0.64573125122E+02  0.00000000000E+00 0.  1.
         25    2    1    2    0    0 -0.12606942868E+03 -0.36824103384E+02  0.19389589543E+03  0.26550599149E+03  0.12509315656E+03 0.  0.
          5    1    3    3  502    0 -0.64489564656E+02  0.44511647132E+02  0.71995973353E+02  0.10649452220E+03  0.41800000000E+01 0.  1.
         -5    1    3    3    0  502 -0.61579864019E+02 -0.81335750516E+02  0.12189992207E+03  0.15901146929E+03  0.41800000000E+01 0.  1.
        -11    1    1    2    0    0  0.11202878068E+03  0.48143197110E+02  0.19053713095E+03  0.22621364548E+03  0.00000000000E+00 0. -1.
         11    1    1    2    0    0  0.14040647991E+02 -0.11319093726E+02 -0.34900430497E+01  0.18369596601E+02  0.00000000000E+00 0.  1.
</event>
<event>
 7    1  0.2601031E-009  0.2019078E+03  0.7561462E-02  0.1148139E+00
         -1   -1    0    0    0  501 -0.00000000000E+00  0.00000000000E+00  0.72393259298E+02  0.72393259298E+02  0.00000000000E+00 0.  1.
          1   -1    0    0  501    0  0.00000000000E+00 -0.00000000000E+00 -0.85767386354E+03  0.85767386354E+03  0.00000000000E+00 0. -1.
         25    2    1    2    0    0 -0.75067783638E+02  0.17794347047E+03 -0.19390280999E+03  0.30090675524E+03  0.12509006676E+03 0.  0.
          5    1    3    3  502    0 -0.44836039113E+02  0.35574190147E+02  0.12754038344E+01  0.57401153846E+02  0.41800000000E+01 0. -1.
         -5    1    3    3    0  502 -0.30231744525E+02  0.14236928032E+03 -0.19517821383E+03  0.24350560139E+03  0.41800000000E+01 0. -1.
        -11    1    1    2    0    0  0.23407889313E+02 -0.10613112793E+02 -0.23260375861E+02  0.34664283210E+02  0.00000000000E+00 0.  1.
         11    1    1    2    0    0  0.51659894324E+02 -0.16733035767E+03 -0.56811741838E+03  0.59449608439E+03  0.00000000000E+00 0. -1.
</event>
<event>
 7    1  0.2601031E-009  0.7280453E+02  0.7561462E-02  0.1350808E+00
         -2   -1    0    0    0  501 -0.00000000000E+00  0.00000000000E+00  0.21066517505E+02  0.21066517505E+02  0.00000000000E+00 0.  1.
          2   -1    0    0  501    0  0.00000000000E+00 -0.00000000000E+00 -0.85334680918E+03  0.85334680918E+03  0.00000000000E+00 0. -1.
         25    2    1    2    0    0  0.15649172276E+01 -0.19893058945E+02 -0.71172136137E+03  0.72290555748E+03  0.12508783331E+03 0.  0.
          5    1    3    3  502    0 -0.37350165709E+02 -0.36731125316E+02 -0.13901484319E+03  0.14861631631E+03  0.41800000000E+01 0.  1.
         -5    1    3    3    0  502  0.38915082937E+02  0.16838066370E+02 -0.57270651818E+03  0.57428924117E+03  0.41800000000E+01 0.  1.
        -11    1    1    2    0    0 -0.61515078211E+01  0.34549451173E+02 -0.12920360936E+03  0.13388457079E+03  0.00000000000E+00 0. -1.
         11    1    1    2    0    0  0.45865905935E+01 -0.14656392228E+02  0.86446790545E+01  0.17623198415E+02  0.00000000000E+00 0.  1.
</event>
<event>
 7    1  0.2601031E-009  0.1727109E+03  0.7561462E-02  0.1175050E+00
         -1   -1    0    0    0  501 -0.00000000000E+00  0.00000000000E+00  0.41373382233E+03  0.41373382233E+03  0.00000000000E+00 0.  1.
          1   -1    0    0  501    0  0.00000000000E+00 -0.00000000000E+00 -0.84466575577E+02  0.84466575577E+02  0.00000000000E+00 0. -1.
         25    2    1    2    0    0 -0.11727812782E+02  0.15122053695E+03  0.17732984404E+03  0.26476129986E+03  0.12508988739E+03 0.  0.
          5    1    3    3  502    0 -0.40852853523E+01  0.16716534721E+03  0.18075318473E+03  0.24627246914E+03  0.41800000000E+01 0.  1.
         -5    1    3    3    0  502 -0.76425274299E+01 -0.15944810264E+02 -0.34233406921E+01  0.18488830719E+02  0.41800000000E+01 0.  1.
        -11    1    1    2    0    0 -0.47963192236E+01 -0.13983762588E+03  0.85356262077E+02  0.16390014571E+03  0.00000000000E+00 0. -1.
         11    1    1    2    0    0  0.16524132006E+02 -0.11382911072E+02  0.66581140635E+02  0.69538952331E+02  0.00000000000E+00 0.  1.
</event>
<event>
 7    1  0.2601031E-009  0.2409318E+03  0.7561462E-02  0.1119174E+00
          2   -1    0    0  501    0  0.00000000000E+00  0.00000000000E+00  0.70075769892E+03  0.70075769892E+03  0.00000000000E+00 0. -1.
         -2   -1    0    0    0  501 -0.00000000000E+00 -0.00000000000E+00 -0.12151894711E+03  0.12151894711E+03  0.00000000000E+00 0.  1.
         25    2    1    2    0    0  0.21310848845E+03 -0.85561547816E+02  0.93839194657E+02  0.27783262214E+03  0.12509662329E+03 0.  0.
          5    1    3    3  502    0  0.15594660384E+02 -0.48383884496E+02  0.51326522280E+02  0.72360749034E+02  0.41800000000E+01 0. -1.
         -5    1    3    3    0  502  0.19751382806E+03 -0.37177663320E+02  0.42512672377E+02  0.20547187311E+03  0.41800000000E+01 0. -1.
        -11    1    1    2    0    0 -0.12743186094E+03  0.46234807530E+02  0.37782468297E+03  0.40140755806E+03  0.00000000000E+00 0. -1.
         11    1    1    2    0    0 -0.85676627503E+02  0.39326740286E+02  0.10757487418E+03  0.14303646583E+03  0.00000000000E+00 0.  1.
</event>
<event>
 7    1  0.2601031E-009  0.9962565E+02  0.7561462E-02  0.1281085E+00
          2   -1    0    0  501    0  0.00000000000E+00  0.00000000000E+00  0.33656973427E+03  0.33656973427E+03  0.00000000000E+00 0.  1.
         -2   -1    0    0    0  501 -0.00000000000E+00 -0.00000000000E+00 -0.55048442622E+02  0.55048442622E+02  0.00000000000E+00 0. -1.
         25    2    1    2    0    0  0.38392916088E+02 -0.70428639002E+02  0.15259286880E+03  0.21300535219E+03  0.12510990071E+03 0.  0.
          5    1    3    3  502    0 -0.67583647960E+01 -0.43217005445E+02  0.15395701367E+03  0.16010502651E+03  0.41800000000E+01 0. -1.
         -5    1    3    3    0  502  0.45151280885E+02 -0.27211633557E+02 -0.13641448681E+01  0.52900325685E+02  0.41800000000E+01 0. -1.
        -11    1    1    2    0    0 -0.52299382969E+02  0.31415572109E+02  0.12229386197E+03  0.13666730518E+03  0.00000000000E+00 0.  1.
         11    1    1    2    0    0  0.13906466880E+02  0.39013066893E+02  0.66345608734E+01  0.41945519516E+02  0.00000000000E+00 0. -1.
</event>
<event>
 7    1  0.2601031E-009  0.8069976E+02  0.7561462E-02  0.1327077E+00
          2   -1    0    0  501    0  0.00000000000E+00  0.00000000000E+00  0.63339400524E+02  0.63339400524E+02  0.00000000000E+00 0. -1.
         -2   -1    0    0    0  501 -0.00000000000E+00 -0.00000000000E+00 -0.21098399883E+03  0.21098399883E+03  0.00000000000E+00 0.  1.
         25    2    1    2    0    0  0.11541880016E+02  0.19600588338E+02 -0.41207945146E+02  0.13365314160E+03  0.12509064497E+03 0.  0.
          5    1    3    3  502    0  0.25307097356E+02 -0.32316355405E+02  0.25042020929E+02  0.48263559913E+02  0.41800000000E+01 0.  1.
         -5    1    3    3    0  502 -0.13765217340E+02  0.51916943744E+02 -0.66249966075E+02  0.85389581689E+02  0.41800000000E+01 0.  1.
        -11    1    1    2    0    0 -0.21789021611E+02 -0.38803117049E+02 -0.15436576544E+02  0.47103410184E+02  0.00000000000E+00 0. -1.
         11    1    1    2    0    0  0.10247141595E+02  0.19202528711E+02 -0.91000076617E+02  0.93566847570E+02  0.00000000000E+00 0.  1.
</event>
<event>
 7    1  0.2601031E-009  0.8359578E+02  0.7561462E-02  0.1319146E+00
          2   -1    0    0  501    0  0.00000000000E+00  0.00000000000E+00  0.74312187742E+03  0.74312187742E+03  0.00000000000E+00 0. -1.
         -2   -1    0    0    0  501 -0.00000000000E+00 -0.00000000000E+00 -0.20465558527E+02  0.20465558527E+02  0.00000000000E+00 0.  1.
         25    2    1    2    0    0  0.32028431614E+02  0.53117159294E+02  0.42560765228E+03  0.44792455782E+03  0.12508909934E+03 0.  0.
          5    1    3    3  502    0  0.28852649421E+02  0.55729032416E+02  0.43353000396E+03  0.43806841608E+03  0.41800000000E+01 0.  1.
         -5    1    3    3    0  502  0.31757821925E+01 -0.26118731219E+01 -0.79223516826E+01  0.98561417361E+01  0.41800000000E+01 0.  1.
        -11    1    1    2    0    0  0.16351933407E+01 -0.63255660583E+02  0.24362881950E+03  0.25171204609E+03  0.00000000000E+00 0. -1.
         11    1    1    2    0    0 -0.33663624954E+02  0.10138501288E+02  0.53419847110E+02  0.63950832040E+02  0.00000000000E+00 0.  1.
</event>
<event>
 7    1  0.2601031E-009  0.8941513E+02  0.7561462E-02  0.1304274E+00
          1   -1    0    0  501    0  0.00000000000E+00  0.00000000000E+00  0.92050529279E+02  0.92050529279E+02  0.00000000000E+00 0. -1.
         -1   -1    0    0    0  501 -0.00000000000E+00 -0.00000000000E+00 -0.14417830033E+03  0.14417830033E+03  0.00000000000E+00 0.  1.
         25    2    1    2    0    0 -0.79101199361E+01 -0.22027241645E+02 -0.43873330808E+02  0.13461220987E+03  0.12509120080E+03 0.  0.
          5    1    3    3  502    0 -0.23845666187E+02  0.22039329285E+02  0.31713610026E+02  0.45580404695E+02  0.41800000000E+01 0. -1.
         -5    1    3    3    0  502  0.15935546251E+02 -0.44066570930E+02 -0.75586940834E+02  0.89031805174E+02  0.41800000000E+01 0. -1.
        -11    1    1    2    0    0  0.49676092352E+02  0.27731464028E+02  0.57865706483E+01  0.57185947997E+02  0.00000000000E+00 0. -1.
         11    1    1    2    0    0 -0.41765972416E+02 -0.57042223832E+01 -0.14041010895E+02  0.44430671746E+02  0.00000000000E+00 0.  1.
</event>
<event>
 7    1  0.2601031E-009  0.1208524E+03  0.7561462E-02  0.1241697E+00
          1   -1    0    0  501    0  0.00000000000E+00  0.00000000000E+00  0.29581318641E+03  0.29581318641E+03  0.00000000000E+00 0. -1.
         -1   -1    0    0    0  501 -0.00000000000E+00 -0.00000000000E+00 -0.63484148962E+02  0.63484148962E+02  0.00000000000E+00 0.  1.
         25    2    1    2    0    0  0.67493423398E+02 -0.44347829689E+02  0.15465207082E+03  0.21468143918E+03  0.12509502436E+03 0.  0.
          5    1    3    3  502    0 -0.15054897935E+02  0.30488862627E+02  0.56805184633E+02  0.66336431147E+02  0.41800000000E+01 0. -1.
         -5    1    3    3    0  502  0.82548321333E+02 -0.74836692316E+02  0.97846886189E+02  0.14834500803E+03  0.41800000000E+01 0. -1.
        -11    1    1    2    0    0 -0.75488343169E+02  0.33799113370E+02  0.92939725527E+02  0.12441327341E+03  0.00000000000E+00 0. -1.
         11    1    1    2    0    0  0.79949197709E+01  0.10548716318E+02 -0.15262758901E+02  0.20202622784E+02  0.00000000000E+00 0.  1.
</event>
<event>
 7    1  0.2601031E-009  0.1508688E+03  0.7561462E-02  0.1199409E+00
         -2   -1    0    0    0  501 -0.00000000000E+00  0.00000000000E+00  0.67945347742E+02  0.67945347742E+02  0.00000000000E+00 0.  1.
          2   -1    0    0  501    0  0.00000000000E+00 -0.00000000000E+00 -0.42791225860E+03  0.42791225860E+03  0.00000000000E+00 0. -1.
         25    2    1    2    0    0  0.12245863273E+03  0.20257390143E+02 -0.12655556594E+03  0.21695749293E+03  0.12509102239E+03 0.  0.
          5    1    3    3  502    0  0.10953872442E+03  0.49992503658E+02 -0.13718919540E+03  0.18258239319E+03  0.41800000000E+01 0.  1.
         -5    1    3    3    0  502  0.12919908305E+02 -0.29735113515E+02  0.10633629460E+02  0.34375099736E+02  0.41800000000E+01 0.  1.
        -11    1    1    2    0    0 -0.12758280738E+02 -0.35584496497E+02 -0.34258116008E+02  0.51016160486E+02  0.00000000000E+00 0.  1.
         11    1    1    2    0    0 -0.10970035199E+03  0.15327106354E+02 -0.19915322892E+03  0.22788395293E+03  0.00000000000E+00 0. -1.
</event>
<event>
 7    1  0.2601031E-009  0.4079410E+02  0.7561462E-02  0.1502448E+00
         -2   -1    0    0    0  501 -0.00000000000E+00  0.00000000000E+00  0.11093587351E+03  0.11093587351E+03  0.00000000000E+00 0.  1.
          2   -1    0    0  501    0  0.00000000000E+00 -0.00000000000E+00 -0.13625143175E+03  0.13625143175E+03  0.00000000000E+00 0. -1.
         25    2    1    2    0    0  0.35654376784E+02 -0.28588381617E+01  0.38491685392E+02  0.13567857186E+03  0.12509059709E+03 0.  0.
          5    1    3    3  502    0  0.22238762423E+02  0.47530186861E+01  0.84168572697E+02  0.87286738801E+02  0.41800000000E+01 0.  1.
         -5    1    3    3    0  502  0.13415614360E+02 -0.76118568477E+01 -0.45676887305E+02  0.48391833063E+02  0.41800000000E+01 0.  1.
        -11    1    1    2    0    0 -0.14915550370E+02  0.12644208571E+02 -0.80694683456E+02  0.83030004163E+02  0.00000000000E+00 0. -1.
         11    1    1    2    0    0 -0.20738826414E+02 -0.97853704089E+01  0.16887439822E+02  0.28478729234E+02  0.00000000000E+00 0.  1.
</event>
<event>
 7    1  0.2601031E-009  0.1575669E+03  0.7561462E-02  0.1191471E+00
         -2   -1    0    0    0  501 -0.00000000000E+00  0.00000000000E+00  0.52887818590E+02  0.52887818590E+02  0.00000000000E+00 0.  1.
          2   -1    0    0  501    0  0.00000000000E+00 -0.00000000000E+00 -0.68389277535E+03  0.68389277535E+03  0.00000000000E+00 0. -1.
         25    2    1    2    0    0  0.91255942354E+02  0.10606380259E+03 -0.19019212191E+03  0.26720433664E+03  0.12509171454E+03 0.  0.
          5    1    3    3  502    0  0.18882056404E+02 -0.21136971825E+02 -0.76954873042E+02  0.82114727771E+02  0.41800000000E+01 0.  1.
         -5    1    3    3    0  502  0.72373885950E+02  0.12720077442E+03 -0.11323724887E+03  0.18508960887E+03  0.41800000000E+01 0.  1.
        -11    1    1    2    0    0 -0.16245494616E+02 -0.22957029180E+02 -0.21017681792E+02  0.35109603131E+02  0.00000000000E+00 0.  1.
         11    1    1    2    0    0 -0.75010447738E+02 -0.83106773411E+02 -0.41979515306E+03  0.43446665417E+03  0.00000000000E+00 0. -1.
</event>
<event>
 7    1  0.2601031E-009  0.1064152E+03  0.7561462E-02  0.1267356E+00
          1   -1    0    0  501    0  0.00000000000E+00  0.00000000000E+00  0.76025380811E+02  0.76025380811E+02  0.00000000000E+00 0. -1.
         -1   -1    0    0    0  501 -0.00000000000E+00 -0.00000000000E+00 -0.23241831982E+03  0.23241831982E+03  0.00000000000E+00 0.  1.
         25    2    1    2    0    0 -0.59388796927E+01  0.75668500530E+02 -0.86425442635E+02  0.16993266461E+03  0.12508701412E+03 0.  0.
          5    1    3    3  502    0  0.23291476983E+02  0.21212731250E+02 -0.10134865629E+03  0.10621438414E+03  0.41800000000E+01 0.  1.
         -5    1    3    3    0  502 -0.29230356676E+02  0.54455769280E+02  0.14923213656E+02  0.63718280463E+02  0.41800000000E+01 0.  1.
        -11    1    1    2    0    0 -0.30226242308E+02 -0.77200866785E+02 -0.43167318844E+02  0.93472011708E+02  0.00000000000E+00 0. -1.
         11    1    1    2    0    0  0.36165122001E+02  0.15323662550E+01 -0.26800177525E+02  0.45039024313E+02  0.00000000000E+00 0.  1.
</event>
<event>
 7    1  0.2601031E-009  0.1790185E+03  0.7561462E-02  0.1168756E+00
          2   -1    0    0  501    0  0.00000000000E+00  0.00000000000E+00  0.26415816198E+03  0.26415816198E+03  0.00000000000E+00 0. -1.
         -2   -1    0    0    0  501 -0.00000000000E+00 -0.00000000000E+00 -0.12929076081E+03  0.12929076081E+03  0.00000000000E+00 0.  1.
         25    2    1    2    0    0 -0.14196354269E+03  0.44006306072E+02  0.63171305465E+02  0.20427916390E+03  0.12509660484E+03 0.  0.
          5    1    3    3  502    0 -0.11603150341E+03  0.85537633863E+02  0.55593451200E+02  0.15455775881E+03  0.41800000000E+01 0. -1.
         -5    1    3    3    0  502 -0.25932039279E+02 -0.41531327791E+02  0.75778542646E+01  0.49721405094E+02  0.41800000000E+01 0. -1.
        -11    1    1    2    0    0  0.32303536371E+02 -0.44540791439E+02 -0.51515638939E+01  0.55262457190E+02  0.00000000000E+00 0.  1.
         11    1    1    2    0    0  0.10966000632E+03  0.53448536685E+00  0.76847659607E+02  0.13390730170E+03  0.00000000000E+00 0. -1.
</event>
<event>
 7    1  0.2601031E-009  0.9280301E+02  0.7561462E-02  0.1296202E+00
         -2   -1    0    0    0  501 -0.00000000000E+00  0.00000000000E+00  0.58673001474E+03  0.58673001474E+03  0.00000000000E+00 0.  1.
          2   -1    0    0  501    0  0.00000000000E+00 -0.00000000000E+00 -0.29474690898E+02  0.29474690898E+02  0.00000000000E+00 0. -1.
         25    2    1    2    0    0 -0.33746457439E+02 -0.15387203742E+02  0.15734759979E+03  0.20440440621E+03  0.12508918694E+03 0.  0.
          5    1    3    3  502    0 -0.19904326516E+02  0.33409961467E+02  0.14745891733E+03  0.15255822639E+03  0.41800000000E+01 0. -1.
         -5    1    3    3    0  502 -0.13842130923E+02 -0.48797165209E+02  0.98886824551E+01  0.51846179817E+02  0.41800000000E+01 0. -1.
        -11    1    1    2    0    0  0.17519662827E+02 -0.36901520280E+02  0.21947965198E+03  0.22324869186E+03  0.00000000000E+00 0.  1.
         11    1    1    2    0    0  0.16226794612E+02  0.52288724022E+02  0.18042807208E+03  0.18855160757E+03  0.00000000000E+00 0. -1.
</event>
<event>
 7    1  0.2601031E-009  0.1145219E+03  0.7561462E-02  0.1252418E+00
         -2   -1    0    0    0  501 -0.00000000000E+00  0.00000000000E+00  0.37314021764E+02  0.37314021764E+02  0.00000000000E+00 0. -1.
          2   -1    0    0  501    0  0.00000000000E+00 -0.00000000000E+00 -0.45163065955E+03  0.45163065955E+03  0.00000000000E+00 0.  1.
         25    2    1    2    0    0  0.49919152923E+02  0.32286199146E+02 -0.15729234318E+03  0.20957122487E+03  0.12507956103E+03 0.  0.
          5    1    3    3  502    0  0.19705773373E+02 -0.42426409013E+02 -0.21598093210E+02  0.51693981431E+02  0.41800000000E+01 0.  1.
         -5    1    3    3    0  502  0.30213379550E+02  0.74712608158E+02 -0.13569424997E+03  0.15787724344E+03  0.41800000000E+01 0.  1.
        -11    1    1    2    0    0 -0.20402930586E+02 -0.58467041212E+02 -0.20457148887E+03  0.21373855184E+03  0.00000000000E+00 0.  1.
         11    1    1    2    0    0 -0.29516222337E+02  0.26180842066E+02 -0.52452805733E+02  0.65634904598E+02  0.00000000000E+00 0. -1.
</event>
<event>
 7    1  0.2601031E-009  0.1177949E+03  0.7561462E-02  0.1246780E+00
          1   -1    0    0  501    0  0.00000000000E+00  0.00000000000E+00  0.71113843742E+02  0.71113843742E+02  0.00000000000E+00 0. -1.
         -1   -1    0    0    0  501 -0.00000000000E+00 -0.00000000000E+00 -0.35856333835E+03  0.35856333835E+03  0.00000000000E+00 0.  1.
         25    2    1    2    0    0 -0.19318894697E+02  0.91149939950E+02 -0.24920375447E+03  0.29399250450E+03  0.12509016834E+03 0.  0.
          5    1    3    3  502    0 -0.52275877639E+02  0.14392285145E+02 -0.36660157741E+02  0.65584638600E+02  0.41800000000E+01 0.  1.
         -5    1    3    3    0  502  0.32956982943E+02  0.76757654805E+02 -0.21254359673E+03  0.22840786590E+03  0.41800000000E+01 0.  1.
        -11    1    1    2    0    0 -0.26765863929E+01 -0.56269674862E+02  0.23825419758E+02  0.61164459046E+02  0.00000000000E+00 0. -1.
         11    1    1    2    0    0  0.21995481090E+02 -0.34880265088E+02 -0.62071159901E+02  0.74520218548E+02  0.00000000000E+00 0.  1.
</event>
<event>
 7    1  0.2601031E-009  0.1726959E+03  0.7561462E-02  0.1175065E+00
          2   -1    0    0  501    0  0.00000000000E+00  0.00000000000E+00  0.18553723758E+04  0.18553723758E+04  0.00000000000E+00 0.  1.
         -2   -1    0    0    0  501 -0.00000000000E+00 -0.00000000000E+00 -0.21635472672E+02  0.21635472672E+02  0.00000000000E+00 0. -1.
         25    2    1    2    0    0 -0.15011558332E+03 -0.58345864735E+02  0.11866871775E+04  0.12040822811E+04  0.12509498059E+03 0.  0.
          5    1    3    3  502    0 -0.92847841571E+02 -0.56852981400E+02  0.10524219459E+04  0.10580465055E+04  0.41800000000E+01 0.  1.
         -5    1    3    3    0  502 -0.57267741752E+02 -0.14928833344E+01  0.13426523165E+03  0.14603577567E+03  0.41800000000E+01 0.  1.
        -11    1    1    2    0    0  0.12424236372E+03  0.10598100674E+02  0.52026778377E+03  0.53500191729E+03  0.00000000000E+00 0.  1.
         11    1    1    2    0    0  0.25873219606E+02  0.47747764061E+02  0.12678194188E+03  0.13792365009E+03  0.00000000000E+00 0. -1.
</event>
<event>
 7    1  0.2601031E-009  0.1414687E+03  0.7561462E-02  0.1211366E+00
         -1   -1    0    0    0  501 -0.00000000000E+00  0.00000000000E+00  0.26381892083E+03  0.26381892083E+03  0.00000000000E+00 0.  1.
          1   -1    0    0  501    0  0.00000000000E+00 -0.00000000000E+00 -0.13330308790E+03  0.13330308790E+03  0.00000000000E+00 0. -1.
         25    2    1    2    0    0  0.54787778753E+02 -0.99430408980E+02 -0.40783215765E+02  0.17377696276E+03  0.12508818955E+03 0.  0.
          5    1    3    3  502    0 -0.31320170834E+02 -0.67164851837E+01 -0.34140802771E+02  0.47001394534E+02  0.41800000000E+01 0.  1.
         -5    1    3    3    0  502  0.86107949587E+02 -0.92713923796E+02 -0.66424129938E+01  0.12677556822E+03  0.41800000000E+01 0.  1.
        -11    1    1    2    0    0 -0.27291496921E+01  0.56471123488E+02  0.13576698765E+03  0.14706838879E+03  0.00000000000E+00 0.  1.
         11    1    1    2    0    0 -0.52058629061E+02  0.42959285491E+02  0.35532061037E+02  0.76276657184E+02  0.00000000000E+00 0. -1.
</event>
<event>
 7    1  0.2601031E-009  0.1638014E+03  0.7561462E-02  0.1184471E+00
         -4   -1    0    0    0  501 -0.00000000000E+00  0.00000000000E+00  0.14233832302E+03  0.14233832302E+03  0.00000000000E+00 0.  1.
          4   -1    0    0  501    0  0.00000000000E+00 -0.00000000000E+00 -0.25927165349E+03  0.25927165349E+03  0.00000000000E+00 0. -1.
         25    2    1    2    0    0  0.49059373227E+02 -0.13106193024E+03 -0.13679389127E+03  0.23225828210E+03  0.12508912525E+03 0.  0.
          5    1    3    3  502    0  0.88895012736E+02 -0.10842605616E+03 -0.11481940098E+03  0.18127189574E+03  0.41800000000E+01 0. -1.
         -5    1    3    3    0  502 -0.39835639509E+02 -0.22635874079E+02 -0.21974490286E+02  0.50986386357E+02  0.41800000000E+01 0. -1.
        -11    1    1    2    0    0  0.47372891112E+00  0.16561916725E+02  0.39709646581E+02  0.43027636889E+02  0.00000000000E+00 0.  1.
         11    1    1    2    0    0 -0.49533102138E+02  0.11450001351E+03 -0.19849085782E+02  0.12632405752E+03  0.00000000000E+00 0. -1.
</event>
<event>
 7    1  0.2601031E-009  0.1071079E+03  0.7561462E-02  0.1266021E+00
          2   -1    0    0  501    0  0.00000000000E+00  0.00000000000E+00  0.78894077303E+03  0.78894077303E+03  0.00000000000E+00 0. -1.
         -2   -1    0    0    0  501 -0.00000000000E+00 -0.00000000000E+00 -0.15612923450E+02  0.15612923450E+02  0.00000000000E+00 0.  1.
         25    2    1    2    0    0 -0.18599312478E+02  0.10134847438E+02  0.49021283287E+03  0.50636372486E+03  0.12508777234E+03 0.  0.
          5    1    3    3  502    0 -0.52774564434E+02  0.50832676623E+02  0.29668800086E+03  0.30563108140E+03  0.41800000000E+01 0.  1.
         -5    1    3    3    0  502  0.34175251956E+02 -0.40697829184E+02  0.19352483201E+03  0.20073264346E+03  0.41800000000E+01 0.  1.
        -11    1    1    2    0    0  0.10103339292E+02  0.37649110121E+02  0.18070551303E+03  0.18486215242E+03  0.00000000000E+00 0. -1.
         11    1    1    2    0    0  0.84959731854E+01 -0.47783957559E+02  0.10240950368E+03  0.11332781920E+03  0.00000000000E+00 0.  1.
</event>
<event>
 7    1  0.2601031E-009  0.1219956E+03  0.7561462E-02  0.1239841E+00
         -1   -1    0    0    0  501 -0.00000000000E+00  0.00000000000E+00  0.18632137434E+03  0.18632137434E+03  0.00000000000E+00 0. -1.
          1   -1    0    0  501    0  0.00000000000E+00 -0.00000000000E+00 -0.94813127441E+02  0.94813127441E+02  0.00000000000E+00 0.  1.
         25    2    1    2    0    0 -0.54465853714E+02 -0.53006980226E+02  0.61004827184E+02  0.15858514248E+03  0.12510551268E+03 0.  0.
          5    1    3    3  502    0 -0.87222070426E+02 -0.57703995965E+02  0.21443830739E+02  0.10683983806E+03  0.41800000000E+01 0. -1.
         -5    1    3    3    0  502  0.32756216712E+02  0.46970157395E+01  0.39560996445E+02  0.51745304424E+02  0.41800000000E+01 0. -1.
        -11    1    1    2    0    0  0.47059048565E+02  0.71756823842E+02 -0.20882249853E+00  0.85811650879E+02  0.00000000000E+00 0.  1.
         11    1    1    2    0    0  0.74068051486E+01 -0.18749843617E+02  0.30712242217E+02  0.36737708423E+02  0.00000000000E+00 0. -1.
</event>
<event>
 7    1  0.2601031E-009  0.1000306E+03  0.7561462E-02  0.1280232E+00
          1   -1    0    0  501    0  0.00000000000E+00  0.00000000000E+00  0.31318922688E+03  0.31318922688E+03  0.00000000000E+00 0. -1.
         -1   -1    0    0    0  501 -0.00000000000E+00 -0.00000000000E+00 -0.44299757646E+02  0.44299757646E+02  0.00000000000E+00 0.  1.
         25    2    1    2    0    0  0.40152837377E+02  0.10189780372E+02  0.14136363465E+03  0.19325413185E+03  0.12508956912E+03 0.  0.
          5    1    3    3  502    0  0.22544429418E+02 -0.38413826727E+02  0.13350178121E+03  0.14079798070E+03  0.41800000000E+01 0. -1.
         -5    1    3    3    0  502  0.17608407958E+02  0.48603607099E+02  0.78618534333E+01  0.52456151148E+02  0.41800000000E+01 0. -1.
        -11    1    1    2    0    0  0.20051315179E+02 -0.33384543364E+02  0.46117930361E+02  0.60360968156E+02  0.00000000000E+00 0.  1.
         11    1    1    2    0    0 -0.60204152556E+02  0.23194762992E+02  0.81407904221E+02  0.10387388452E+03  0.00000000000E+00 0. -1.
</event>
<event>
 7    1  0.2601031E-009  0.2441800E+03  0.7561462E-02  0.1117039E+00
         -2   -1    0    0    0  501 -0.00000000000E+00  0.00000000000E+00  0.63213957242E+03  0.63213957242E+03  0.00000000000E+00 0.  1.
          2   -1    0    0  501    0  0.00000000000E+00 -0.00000000000E+00 -0.11427739624E+03  0.11427739624E+03  0.00000000000E+00 0. -1.
         25    2    1    2    0    0 -0.23234733805E+03 -0.51434246544E+02  0.34783851412E+03  0.43962488533E+03  0.12509052996E+03 0.  0.
          5    1    3    3  502    0 -0.11497189504E+03 -0.25832584315E+02  0.27464552230E+03  0.29888709303E+03  0.41800000000E+01 0.  1.
         -5    1    3    3    0  502 -0.11737544302E+03 -0.25601662229E+02  0.73192991821E+02  0.14073779231E+03  0.41800000000E+01 0.  1.
        -11    1    1    2    0    0  0.53649001042E+01 -0.13188037075E+02 -0.24984276444E+01  0.14455055023E+02  0.00000000000E+00 0. -1.
         11    1    1    2    0    0  0.22698243795E+03  0.64622283619E+02  0.17252208972E+03  0.29233702830E+03  0.00000000000E+00 0.  1.
</event>
<event>
 7    1  0.2601031E-009  0.1305855E+03  0.7561462E-02  0.1226590E+00
         -2   -1    0    0    0  501 -0.00000000000E+00  0.00000000000E+00  0.11940742604E+03  0.11940742604E+03  0.00000000000E+00 0.  1.
          2   -1    0    0  501    0  0.00000000000E+00 -0.00000000000E+00 -0.19319602708E+03  0.19319602708E+03  0.00000000000E+00 0. -1.
         25    2    1    2    0    0 -0.94620319198E+02  0.46921283250E+02 -0.51696155613E+02  0.17168072539E+03  0.12508863792E+03 0.  0.
          5    1    3    3  502    0  0.92122037804E+01  0.41158589923E+02  0.18394777271E+02  0.46203186619E+02  0.41800000000E+01 0.  1.
         -5    1    3    3    0  502 -0.10383252298E+03  0.57626933269E+01 -0.70090932884E+02  0.12547753877E+03  0.41800000000E+01 0.  1.
        -11    1    1    2    0    0  0.80629111442E+02 -0.18044771692E+02 -0.51531672286E+02  0.97376489185E+02  0.00000000000E+00 0. -1.
         11    1    1    2    0    0  0.13991207756E+02 -0.28876511558E+02  0.29439226851E+02  0.43546238550E+02  0.00000000000E+00 0.  1.
</event>
<event>
 7    1  0.2601031E-009  0.2210152E+03  0.7561462E-02  0.1133128E+00
         -2   -1    0    0    0  501 -0.00000000000E+00  0.00000000000E+00  0.35699815935E+02  0.35699815935E+02  0.00000000000E+00 0. -1.
          2   -1    0    0  501    0  0.00000000000E+00 -0.00000000000E+00 -0.17994660943E+04  0.17994660943E+04  0.00000000000E+00 0.  1.
         25    2    1    2    0    0 -0.88608388541E+02  0.19461408292E+03 -0.60922957906E+03  0.65767248668E+03  0.12508529866E+03 0.  0.
          5    1    3    3  502    0 -0.25486147112E+01  0.22342446858E+02 -0.24122382559E+03  0.24230577129E+03  0.41800000000E+01 0.  1.
         -5    1    3    3    0  502 -0.86059773830E+02  0.17227163607E+03 -0.36800575347E+03  0.41536671539E+03  0.41800000000E+01 0.  1.
        -11    1    1    2    0    0  0.70737312074E+02 -0.66177497503E+02 -0.37858558664E+03  0.39078162048E+03  0.00000000000E+00 0.  1.
         11    1    1    2    0    0  0.17871076467E+02 -0.12843658542E+03 -0.77595111265E+03  0.78671180306E+03  0.00000000000E+00 0. -1.
</event>
<event>
 7    1  0.2601031E-009  0.1645023E+03  0.7561462E-02  0.1183705E+00
         -1   -1    0    0    0  501 -0.00000000000E+00  0.00000000000E+00  0.18558465646E+03  0.18558465646E+03  0.00000000000E+00 0.  1.
          1   -1    0    0  501    0  0.00000000000E+00 -0.00000000000E+00 -0.18168130551E+03  0.18168130551E+03  0.00000000000E+00 0. -1.
         25    2    1    2    0    0 -0.11210105602E+03  0.61902097461E+02  0.72342113586E+02  0.19307959944E+03  0.12509130222E+03 0.  0.
          5    1    3    3  502    0 -0.12191811265E+03  0.87645224128E+02  0.67965969986E+02  0.16487133462E+03  0.41800000000E+01 0.  1.
         -5    1    3    3    0  502  0.98170566224E+01 -0.25743126667E+02  0.43761435995E+01  0.28208264819E+02  0.41800000000E+01 0.  1.
        -11    1    1    2    0    0  0.25030105518E+02 -0.58681696922E+02 -0.58380320948E+02  0.86477220179E+02  0.00000000000E+00 0. -1.
         11    1    1    2    0    0  0.87070950506E+02 -0.32204005392E+01 -0.10058441685E+02  0.87709142344E+02  0.00000000000E+00 0.  1.
</event>
<event>
 7    1  0.2601031E-009  0.9473299E+02  0.7561462E-02  0.1291779E+00
          1   -1    0    0  501    0  0.00000000000E+00  0.00000000000E+00  0.11935483099E+03  0.11935483099E+03  0.00000000000E+00 0. -1.
         -1   -1    0    0    0  501 -0.00000000000E+00 -0.00000000000E+00 -0.12073162907E+03  0.12073162907E+03  0.00000000000E+00 0.  1.
         25    2    1    2    0    0  0.48482144175E+02  0.18164292198E+02  0.54390234202E+01  0.13549097787E+03  0.12509101604E+03 0.  0.
          5    1    3    3  502    0  0.64674960825E+02  0.72909824903E+01  0.52921191760E+02  0.83988891650E+02  0.41800000000E+01 0.  1.
         -5    1    3    3    0  502 -0.16192816650E+02  0.10873309708E+02 -0.47482168340E+02  0.51502086223E+02  0.41800000000E+01 0.  1.
        -11    1    1    2    0    0 -0.31338946625E+02  0.35857845178E+02 -0.11567272132E+01  0.47636673417E+02  0.00000000000E+00 0.  1.
         11    1    1    2    0    0 -0.17143197550E+02 -0.54022137376E+02 -0.56590942875E+01  0.56958808775E+02  0.00000000000E+00 0. -1.
</event>
<event>
 7    1  0.2601031E-009  0.1349503E+03  0.7561462E-02  0.1220290E+00
         -2   -1    0    0    0  501 -0.00000000000E+00  0.00000000000E+00  0.44754305124E+02  0.44754305124E+02  0.00000000000E+00 0.  1.
          2   -1    0    0  501    0  0.00000000000E+00 -0.00000000000E+00 -0.56714351463E+03  0.56714351463E+03  0.00000000000E+00 0. -1.
         25    2    1    2    0    0 -0.11248155300E+03 -0.19496535624E+01 -0.33687560144E+03  0.37654829274E+03  0.12509014751E+03 0.  0.
          5    1    3    3  502    0  0.64204593918E+01  0.19312098513E+02 -0.24096747101E+01  0.20915505731E+02  0.41800000000E+01 0. -1.
         -5    1    3    3    0  502 -0.11890201239E+03 -0.21261752075E+02 -0.33446592673E+03  0.35563278701E+03  0.41800000000E+01 0. -1.
        -11    1    1    2    0    0  0.45071076229E+02  0.31163401474E+02 -0.13635081448E+03  0.14694932498E+03  0.00000000000E+00 0. -1.
         11    1    1    2    0    0  0.67410476771E+02 -0.29213747912E+02 -0.49162793584E+02  0.88400202028E+02  0.00000000000E+00 0.  1.
</event>
<event>
 7    1  0.2601031E-009  0.1388685E+03  0.7561462E-02  0.1214860E+00
          2   -1    0    0  501    0  0.00000000000E+00  0.00000000000E+00  0.14605725979E+04  0.14605725979E+04  0.00000000000E+00 0.  1.
         -2   -1    0    0    0  501 -0.00000000000E+00 -0.00000000000E+00 -0.20480347005E+02  0.20480347005E+02  0.00000000000E+00 0. -1.
         25    2    1    2    0    0 -0.11456725010E+03  0.59487346372E+02  0.94878777101E+03  0.96566504193E+03  0.12508532933E+03 0.  0.
          5    1    3    3  502    0 -0.20500894668E+02  0.38409909664E+02  0.65456114788E+03  0.65602086595E+03  0.41800000000E+01 0.  1.
         -5    1    3    3    0  502 -0.94066355431E+02  0.21077436708E+02  0.29422662313E+03  0.30964417598E+03  0.41800000000E+01 0.  1.
        -11    1    1    2    0    0  0.82209814441E+02 -0.16741586275E+02  0.40643270870E+03  0.41500154338E+03  0.00000000000E+00 0.  1.
         11    1    1    2    0    0  0.32357435658E+02 -0.42745760097E+02  0.84871771148E+02  0.10038635956E+03  0.00000000000E+00 0. -1.
</event>
<event>
 7    1  0.2601031E-009  0.8660020E+02  0.7561462E-02  0.1311300E+00
         -1   -1    0    0    0  501 -0.00000000000E+00  0.00000000000E+00  0.72807923724E+02  0.72807923724E+02  0.00000000000E+00 0.  1.
          1   -1    0    0  501    0  0.00000000000E+00 -0.00000000000E+00 -0.22565982677E+03  0.22565982677E+03  0.00000000000E+00 0. -1.
         25    2    1    2    0    0  0.38936088390E+02  0.52783636584E+02 -0.10288306538E+03  0.17474209367E+03  0.12509093847E+03 0.  0.
          5    1    3    3  502    0  0.19672925263E+02  0.35214425866E+01 -0.11785511602E+03  0.11961072410E+03  0.41800000000E+01 0. -1.
         -5    1    3    3    0  502  0.19263163127E+02  0.49262193998E+02  0.14972050636E+02  0.55131369577E+02  0.41800000000E+01 0. -1.
        -11    1    1    2    0    0  0.22835625723E+02 -0.14051137677E+02 -0.42744794822E+02  0.50458079200E+02  0.00000000000E+00 0. -1.
         11    1    1    2    0    0 -0.61771714113E+02 -0.38732498907E+02 -0.72240428428E+01  0.73267577625E+02  0.00000000000E+00 0.  1.
</event>
<event>
 7    1  0.2601031E-009  0.1758215E+03  0.7561462E-02  0.1171909E+00
          2   -1    0    0  501    0  0.00000000000E+00  0.00000000000E+00  0.19822173803E+04  0.19822173803E+04  0.00000000000E+00 0. -1.
         -2   -1    0    0    0  501 -0.00000000000E+00 -0.00000000000E+00 -0.17168103307E+02  0.17168103307E+02  0.00000000000E+00 0.  1.
         25    2    1    2    0    0 -0.59982993220E+02  0.12406426423E+03  0.13069486217E+04  0.13201333108E+04  0.12508939821E+03 0.  0.
          5    1    3    3  502    0  0.50052053752E+01  0.12057912652E+03  0.82391941235E+03  0.83272147101E+03  0.41800000000E+01 0.  1.
         -5    1    3    3    0  502 -0.64988198595E+02  0.34851377149E+01  0.48302920932E+03  0.48741183982E+03  0.41800000000E+01 0.  1.
        -11    1    1    2    0    0  0.66084213666E+02 -0.32032980688E+02  0.35098336887E+03  0.35858410501E+03  0.00000000000E+00 0.  1.
         11    1    1    2    0    0 -0.61012204454E+01 -0.92031283546E+02  0.30711728646E+03  0.32066806777E+03  0.00000000000E+00 0. -1.
</event>
<event>
 7    1  0.2601031E-009  0.7519074E+02  0.7561462E-02  0.1343281E+00
          1   -1    0    0  501    0  0.00000000000E+00  0.00000000000E+00  0.18285202674E+03  0.18285202674E+03  0.00000000000E+00 0. -1.
         -1   -1    0    0    0  501 -0.00000000000E+00 -0.00000000000E+00 -0.80159041969E+02  0.80159041969E+02  0.00000000000E+00 0.  1.
         25    2    1    2    0    0 -0.39767350140E+02  0.34008822870E+02  0.62146012565E+02  0.14914579988E+03  0.12507717846E+03 0.  0.
          5    1    3    3  502    0 -0.47501158568E+02  0.62138906306E+01  0.94232921461E+02  0.10579361223E+03  0.41800000000E+01 0.  1.
         -5    1    3    3    0  502  0.77338084278E+01  0.27794932240E+02 -0.32086908896E+02  0.43352187644E+02  0.41800000000E+01 0.  1.
        -11    1    1    2    0    0  0.40954565254E+02 -0.18872497690E+01  0.62638152295E+02  0.74862382074E+02  0.00000000000E+00 0. -1.
         11    1    1    2    0    0 -0.11872151136E+01 -0.32121573101E+02 -0.22091180086E+02  0.39002886762E+02  0.00000000000E+00 0.  1.
</event>
<event>
 7    1  0.2601031E-009  0.1777169E+03  0.7561462E-02  0.1170031E+00
         -1   -1    0    0    0  501 -0.00000000000E+00  0.00000000000E+00  0.52793489211E+02  0.52793489211E+02  0.00000000000E+00 0.  1.
          1   -1    0    0  501    0  0.00000000000E+00 -0.00000000000E+00 -0.86422420373E+03  0.86422420373E+03  0.00000000000E+00 0. -1.
         25    2    1    2    0    0  0.67382477954E+02  0.12864873098E+03 -0.18091277014E+03  0.26356746641E+03  0.12508990620E+03 0.  0.
          5    1    3    3  502    0  0.12837007937E+02 -0.24391559585E+02 -0.38114040573E+02  0.47221705185E+02  0.41800000000E+01 0.  1.
         -5    1    3    3    0  502  0.54545470017E+02  0.15304029057E+03 -0.14279872956E+03  0.21634576123E+03  0.41800000000E+01 0.  1.
        -11    1    1    2    0    0 -0.70965443836E+02 -0.51217948098E+02 -0.24359879213E+03  0.25884308751E+03  0.00000000000E+00 0.  1.
         11    1    1    2    0    0  0.35829658817E+01 -0.77430782883E+02 -0.38691915225E+03  0.39460713902E+03  0.00000000000E+00 0. -1.
</event>
<event>
 7    1  0.2628209E-009  0.1607231E+03  0.7561462E-02  0.1187883E+00
          2   -1    0    0  501    0  0.00000000000E+00  0.00000000000E+00  0.12757271227E+04  0.12757271227E+04  0.00000000000E+00 0. -1.
         -2   -1    0    0    0  501 -0.00000000000E+00 -0.00000000000E+00 -0.26089303875E+02  0.26089303875E+02  0.00000000000E+00 0.  1.
         25    2    1    2    0    0  0.91723472262E+02  0.11261041516E+03  0.59434835154E+03  0.62449326651E+03  0.12509027127E+03 0.  0.
          5    1    3    3  502    0  0.35261043165E+01  0.40573646219E+02  0.35633445898E+02  0.54275860617E+02  0.41800000000E+01 0. -1.
         -5    1    3    3    0  502  0.88197367946E+02  0.72036768940E+02  0.55871490565E+03  0.57021740589E+03  0.41800000000E+01 0. -1.
        -11    1    1    2    0    0 -0.31128354707E+02  0.75022517332E+01  0.73325678538E+02  0.80011957737E+02  0.00000000000E+00 0.  1.
         11    1    1    2    0    0 -0.60595117555E+02 -0.12011266689E+03  0.58196378876E+03  0.59731120234E+03  0.00000000000E+00 0. -1.
</event>
<event>
 7    1  0.2601031E-009  0.1186262E+03  0.7561462E-02  0.1245381E+00
         -1   -1    0    0    0  501 -0.00000000000E+00  0.00000000000E+00  0.18132346918E+03  0.18132346918E+03  0.00000000000E+00 0.  1.
          1   -1    0    0  501    0  0.00000000000E+00 -0.00000000000E+00 -0.99373173482E+02  0.99373173482E+02  0.00000000000E+00 0. -1.
         25    2    1    2    0    0  0.29639005682E+02  0.62629282777E+02  0.84525380836E+02  0.16610868904E+03  0.12508660540E+03 0.  0.
          5    1    3    3  502    0 -0.42539249166E+02  0.51562827422E+02  0.57040285859E+02  0.87973743255E+02  0.41800000000E+01 0. -1.
         -5    1    3    3    0  502  0.72178254848E+02  0.11066455355E+02  0.27485094977E+02  0.78134945785E+02  0.41800000000E+01 0. -1.
        -11    1    1    2    0    0 -0.30225272779E+02  0.40127887383E+01  0.27879014164E+02  0.41314755461E+02  0.00000000000E+00 0.  1.
         11    1    1    2    0    0  0.58626709753E+00 -0.66642071516E+02 -0.30454099299E+02  0.73273198164E+02  0.00000000000E+00 0. -1.
</event>
<event>
 7    1  0.2601031E-009  0.1111496E+03  0.7561462E-02  0.1258456E+00
          2   -1    0    0  501    0  0.00000000000E+00  0.00000000000E+00  0.87605383787E+03  0.87605383787E+03  0.00000000000E+00 0.  1.
         -2   -1    0    0    0  501 -0.00000000000E+00 -0.00000000000E+00 -0.18430620446E+02  0.18430620446E+02  0.00000000000E+00 0. -1.
         25    2    1    2    0    0  0.57550597655E+02  0.32799038296E+02  0.45392078243E+03  0.47547846239E+03  0.12509133974E+03 0.  0.
          5    1    3    3  502    0 -0.23181940600E+02  0.44833934687E+02  0.26247051048E+03  0.26731203740E+03  0.41800000000E+01 0. -1.
         -5    1    3    3    0  502  0.80732538255E+02 -0.12034896391E+02  0.19145027195E+03  0.20816642499E+03  0.41800000000E+01 0. -1.
        -11    1    1    2    0    0 -0.37468505507E+02 -0.50684454249E+02  0.37258358071E+03  0.37787739735E+03  0.00000000000E+00 0.  1.
         11    1    1    2    0    0 -0.20082092149E+02  0.17885415953E+02  0.31118854279E+02  0.41128598573E+02  0.00000000000E+00 0. -1.
</event>
<event>
 7    1  0.2601031E-009  0.1118253E+03  0.7561462E-02  0.1257227E+00
          2   -1    0    0  501    0  0.00000000000E+00  0.00000000000E+00  0.52487181315E+03  0.52487181315E+03  0.00000000000E+00 0. -1.
         -2   -1    0    0    0  501 -0.00000000000E+00 -0.00000000000E+00 -0.26894869097E+02  0.26894869097E+02  0.00000000000E+00 0.  1.
         25    2    1    2    0    0  0.37316937208E+02 -0.17665899888E+02  0.22741700197E+03  0.26281263711E+03  0.12508937453E+03 0.  0.
          5    1    3    3  502    0 -0.16622781444E+02 -0.58531438071E+02  0.80404937723E+02  0.10091913850E+03  0.41800000000E+01 0. -1.
         -5    1    3    3    0  502  0.53939718652E+02  0.40865538183E+02  0.14701206425E+03  0.16189349861E+03  0.41800000000E+01 0. -1.
        -11    1    1    2    0    0 -0.30991030148E+02 -0.32143770685E+02  0.17948678719E+03  0.18495721862E+03  0.00000000000E+00 0. -1.
         11    1    1    2    0    0 -0.63259070599E+01  0.49809670573E+02  0.91073154891E+02  0.10399682651E+03  0.00000000000E+00 0.  1.
</event>
<event>
 7    1  0.2601031E-009  0.1217971E+03  0.7561462E-02  0.1240162E+00
          2   -1    0    0  501    0  0.00000000000E+00  0.00000000000E+00  0.99808945704E+03  0.99808945704E+03  0.00000000000E+00 0. -1.
         -2   -1    0    0    0  501 -0.00000000000E+00 -0.00000000000E+00 -0.23475154498E+02  0.23475154498E+02  0.00000000000E+00 0.  1.
         25    2    1    2    0    0  0.27713451993E+02 -0.76658122117E+02  0.76732959997E+03  0.78172018919E+03  0.12508891277E+03 0.  0.
          5    1    3    3  502    0 -0.39592805317E+02  0.59114314557E+01  0.15281224125E+03  0.15802401314E+03  0.41800000000E+01 0.  1.
         -5    1    3    3    0  502  0.67306257310E+02 -0.82569553573E+02  0.61451735872E+03  0.62369617605E+03  0.41800000000E+01 0.  1.
        -11    1    1    2    0    0  0.87702988509E+01  0.51922620597E+02  0.38058195191E+02  0.64971554489E+02  0.00000000000E+00 0. -1.
         11    1    1    2    0    0 -0.36483750844E+02  0.24735501521E+02  0.16922650738E+03  0.17487286786E+03  0.00000000000E+00 0.  1.
</event>
<event>
 7    1  0.2601031E-009  0.1275740E+03  0.7561462E-02  0.1231101E+00
         -2   -1    0    0    0  501 -0.00000000000E+00  0.00000000000E+00  0.15537759087E+02  0.15537759087E+02  0.00000000000E+00 0.  1.
          2   -1    0    0  501    0  0.00000000000E+00 -0.00000000000E+00 -0.30962240997E+04  0.30962240997E+04  0.00000000000E+00 0. -1.
         25    2    1    2    0    0  0.92512471150E+02 -0.58762445544E+02 -0.26952631343E+04  0.27003892794E+04  0.12508922805E+03 0.  0.
          5    1    3    3  502    0  0.66896360867E+02 -0.57801066865E+02 -0.78891823576E+03  0.79386745843E+03  0.41800000000E+01 0. -1.
         -5    1    3    3    0  502  0.25616110283E+02 -0.96137867843E+00 -0.19063448985E+04  0.19065218210E+04  0.41800000000E+01 0. -1.
        -11    1    1    2    0    0 -0.26824130746E+02  0.69143422696E+02 -0.16016844055E+03  0.17650573997E+03  0.00000000000E+00 0.  1.
         11    1    1    2    0    0 -0.65688340403E+02 -0.10380977152E+02 -0.22525476577E+03  0.23486683941E+03  0.00000000000E+00 0. -1.
</event>
<event>
 7    1  0.2601031E-009  0.7548740E+02  0.7561462E-02  0.1342368E+00
         -1   -1    0    0    0  501 -0.00000000000E+00  0.00000000000E+00  0.12778071150E+03  0.12778071150E+03  0.00000000000E+00 0.  1.
          1   -1    0    0  501    0  0.00000000000E+00 -0.00000000000E+00 -0.95416446854E+02  0.95416446854E+02  0.00000000000E+00 0. -1.
         25    2    1    2    0    0 -0.90918814341E+00 -0.29749364327E+02  0.24981417072E+02  0.13098700513E+03  0.12509065918E+03 0.  0.
          5    1    3    3  502    0  0.32754136162E+02 -0.18064760987E+01 -0.40399302572E+02  0.52207976784E+02  0.41800000000E+01 0. -1.
         -5    1    3    3    0  502 -0.33663324305E+02 -0.27942888229E+02  0.65380719644E+02  0.78779028345E+02  0.41800000000E+01 0. -1.
        -11    1    1    2    0    0 -0.24057083438E+02 -0.10774433072E+02 -0.23630188411E+02  0.35400811797E+02  0.00000000000E+00 0. -1.
         11    1    1    2    0    0  0.24966271582E+02  0.40523797399E+02  0.31013035986E+02  0.56809341428E+02  0.00000000000E+00 0.  1.
</event>
<event>
 7    1  0.2601031E-009  0.1054363E+03  0.7561462E-02  0.1269262E+00
         -1   -1    0    0    0  501 -0.00000000000E+00  0.00000000000E+00  0.29576609862E+03  0.29576609862E+03  0.00000000000E+00 0.  1.
          1   -1    0    0  501    0  0.00000000000E+00 -0.00000000000E+00 -0.65505373685E+02  0.65505373685E+02  0.00000000000E+00 0. -1.
         25    2    1    2    0    0  0.67356713068E+02 -0.48206132610E+02  0.77961975737E+02  0.16907715636E+03  0.12509299391E+03 0.  0.
          5    1    3    3  502    0 -0.34706196306E+01  0.18064484355E+02  0.69052507163E+02  0.71582762878E+02  0.41800000000E+01 0. -1.
         -5    1    3    3    0  502  0.70827332699E+02 -0.66270616966E+02  0.89094685737E+01  0.97494393483E+02  0.41800000000E+01 0. -1.
        -11    1    1    2    0    0 -0.53015959755E+02  0.97840873844E+01  0.13898758685E+03  0.14907705944E+03  0.00000000000E+00 0.  1.
         11    1    1    2    0    0 -0.14340753313E+02  0.38422045226E+02  0.13311162348E+02  0.43117256499E+02  0.00000000000E+00 0. -1.
</event>
<event>
 7    1  0.2601031E-009  0.8814413E+02  0.7561462E-02  0.1307409E+00
         -3   -1    0    0    0  501 -0.00000000000E+00  0.00000000000E+00  0.82089591015E+03  0.82089591015E+03  0.00000000000E+00 0.  1.
          3   -1    0    0  501    0  0.00000000000E+00 -0.00000000000E+00 -0.27642688476E+02  0.27642688476E+02  0.00000000000E+00 0. -1.
         25    2    1    2    0    0  0.46043505613E+01  0.51311569408E+01  0.73016357466E+03  0.74083332970E+03  0.12509055844E+03 0.  0.
          5    1    3    3  502    0 -0.24689098326E+02 -0.42664892725E+02  0.54712727391E+03  0.54935923666E+03  0.41800000000E+01 0.  1.
         -5    1    3    3    0  502  0.29293448887E+02  0.47796049666E+02  0.18303630076E+03  0.19147409304E+03  0.41800000000E+01 0.  1.
        -11    1    1    2    0    0 -0.14153950319E+02 -0.35792576861E+02  0.64992785902E+02  0.75534793885E+02  0.00000000000E+00 0.  1.
         11    1    1    2    0    0  0.95495997580E+01  0.30661419920E+02 -0.19031388879E+01  0.32170475046E+02  0.00000000000E+00 0. -1.
</event>
<event>
 7    1  0.2601031E-009  0.8812060E+02  0.7561462E-02  0.1307468E+00
         -2   -1    0    0    0  501 -0.00000000000E+00  0.00000000000E+00  0.47678952140E+02  0.47678952140E+02  0.00000000000E+00 0.  1.
          2   -1    0    0  501    0  0.00000000000E+00 -0.00000000000E+00 -0.29396260297E+03  0.29396260297E+03  0.00000000000E+00 0. -1.
         25    2    1    2    0    0  0.35333237305E+02  0.44851560529E+01 -0.18172024618E+03  0.22346667197E+03  0.12508617560E+03 0.  0.
          5    1    3    3  502    0 -0.18427912342E+02 -0.13550664681E+02 -0.16142863033E+03  0.16309470733E+03  0.41800000000E+01 0.  1.
         -5    1    3    3    0  502  0.53761149647E+02  0.18035820734E+02 -0.20291615842E+02  0.60371964639E+02  0.41800000000E+01 0.  1.
        -11    1    1    2    0    0 -0.52209244592E+02 -0.33876768299E+02 -0.27772206814E+02  0.68152300934E+02  0.00000000000E+00 0.  1.
         11    1    1    2    0    0  0.16876007287E+02  0.29391612246E+02 -0.36791197839E+02  0.50022582209E+02  0.00000000000E+00 0. -1.
</event>
<event>
 7    1  0.2601031E-009  0.1056643E+03  0.7561462E-02  0.1268816E+00
          3   -1    0    0  501    0  0.00000000000E+00  0.00000000000E+00  0.23216405092E+02  0.23216405092E+02  0.00000000000E+00 0. -1.
         -3   -1    0    0    0  501 -0.00000000000E+00 -0.00000000000E+00 -0.63271717914E+03  0.63271717914E+03  0.00000000000E+00 0.  1.
         25    2    1    2    0    0  0.11336877843E+01 -0.53916162300E+02 -0.37224005052E+03  0.39638144263E+03  0.12508938824E+03 0.  0.
          5    1    3    3  502    0 -0.45416716483E+02 -0.56325571815E+01 -0.53015772084E+02  0.70160874610E+02  0.41800000000E+01 0.  1.
         -5    1    3    3    0  502  0.46550404267E+02 -0.48283605118E+02 -0.31922427843E+03  0.32622056802E+03  0.41800000000E+01 0.  1.
        -11    1    1    2    0    0  0.40450539702E+02  0.27332771053E+02 -0.71329093979E+02  0.86435907952E+02  0.00000000000E+00 0. -1.
         11    1    1    2    0    0 -0.41584227487E+02  0.26583391246E+02 -0.16593162955E+03  0.17311623365E+03  0.00000000000E+00 0.  1.
</event>
<event>
 7    1  0.2601031E-009  0.1254746E+03  0.7561462E-02  0.1234329E+00
          1   -1    0    0  501    0  0.00000000000E+00  0.00000000000E+00  0.23105343910E+03  0.23105343910E+03  0.00000000000E+00 0. -1.
         -1   -1    0    0    0  501 -0.00000000000E+00 -0.00000000000E+00 -0.13741483286E+03  0.13741483286E+03  0.00000000000E+00 0.  1.
         25    2    1    2    0    0  0.16383974604E+02 -0.92037764971E+02 -0.59691532860E+02  0.16718257832E+03  0.12509016985E+03 0.  0.
          5    1    3    3  502    0  0.49718495929E+02  0.80739253164E+01 -0.20634022095E+02  0.54592603668E+02  0.41800000000E+01 0.  1.
         -5    1    3    3    0  502 -0.33334521325E+02 -0.10011169029E+03 -0.39057510765E+02  0.11258997465E+03  0.41800000000E+01 0.  1.
        -11    1    1    2    0    0  0.31635312112E+01  0.14874028494E+02 -0.10948178512E+02  0.18737856497E+02  0.00000000000E+00 0.  1.
         11    1    1    2    0    0 -0.19547505815E+02  0.77163736477E+02  0.16427831761E+03  0.18254783715E+03  0.00000000000E+00 0. -1.
</event>
<event>
 7    1  0.2601031E-009  0.1017334E+03  0.7561462E-02  0.1276692E+00
          1   -1    0    0  501    0  0.00000000000E+00  0.00000000000E+00  0.77762826531E+02  0.77762826531E+02  0.00000000000E+00 0.  1.
         -1   -1    0    0    0  501 -0.00000000000E+00 -0.00000000000E+00 -0.25704336181E+03  0.25704336181E+03  0.00000000000E+00 0. -1.
         25    2    1    2    0    0 -0.17157657212E+02  0.73673962764E+02 -0.13921742417E+03  0.20186695826E+03  0.12508612894E+03 0.  0.
          5    1    3    3  502    0 -0.25911095021E+02  0.61281765665E+02 -0.16142466619E+03  0.17464889036E+03  0.41800000000E+01 0.  1.
         -5    1    3    3    0  502  0.87534378081E+01  0.12392197099E+02  0.22207242016E+02  0.27218067903E+02  0.41800000000E+01 0.  1.
        -11    1    1    2    0    0 -0.37546108709E+02 -0.47138370412E+02 -0.25118405905E+00  0.60264411867E+02  0.00000000000E+00 0.  1.
         11    1    1    2    0    0  0.54703765921E+02 -0.26535592353E+02 -0.39811927050E+02  0.72674818217E+02  0.00000000000E+00 0. -1.
</event>
<event>
 7    1  0.2601031E-009  0.1317385E+03  0.7561462E-02  0.1224899E+00
          2   -1    0    0  501    0  0.00000000000E+00  0.00000000000E+00  0.37452763313E+03  0.37452763313E+03  0.00000000000E+00 0. -1.
         -2   -1    0    0    0  501 -0.00000000000E+00 -0.00000000000E+00 -0.49831063490E+02  0.49831063490E+02  0.00000000000E+00 0.  1.
         25    2    1    2    0    0 -0.22898913975E+02  0.79238274122E+02  0.21165734516E+03  0.25932459640E+03  0.12508936881E+03 0.  0.
          5    1    3    3  502    0  0.13770055647E+02 -0.30386846631E+02  0.38870304928E+02  0.51394045237E+02  0.41800000000E+01 0.  1.
         -5    1    3    3    0  502 -0.36668969622E+02  0.10962512075E+03  0.17278704023E+03  0.20793055116E+03  0.41800000000E+01 0.  1.
        -11    1    1    2    0    0  0.51595489965E+02 -0.62185470226E+02  0.53919649547E+02  0.97141422160E+02  0.00000000000E+00 0.  1.
         11    1    1    2    0    0 -0.28696575990E+02 -0.17052803896E+02  0.59119574932E+02  0.67892678061E+02  0.00000000000E+00 0. -1.
</event>
<event>
 7    1  0.2601031E-009  0.1375176E+03  0.7561462E-02  0.1216709E+00
          4   -1    0    0  501    0  0.00000000000E+00  0.00000000000E+00  0.40536421758E+02  0.40536421758E+02  0.00000000000E+00 0. -1.
         -4   -1    0    0    0  501 -0.00000000000E+00 -0.00000000000E+00 -0.74714676727E+03  0.74714676727E+03  0.00000000000E+00 0.  1.
         25    2    1    2    0    0 -0.40841664136E+02 -0.96060444719E+02 -0.17547905289E+03  0.23944812406E+03  0.12508739162E+03 0.  0.
          5    1    3    3  502    0 -0.43491262005E+02  0.14330502325E+02 -0.23772534986E+02  0.51763490873E+02  0.41800000000E+01 0.  1.
         -5    1    3    3    0  502  0.26495978696E+01 -0.11039094704E+03 -0.15170651790E+03  0.18768463318E+03  0.41800000000E+01 0.  1.
        -11    1    1    2    0    0  0.17117225152E+02  0.93079819882E+02 -0.50053552746E+03  0.50940422703E+03  0.00000000000E+00 0.  1.
         11    1    1    2    0    0  0.23724438984E+02  0.29806248366E+01 -0.30595765166E+02  0.38830837946E+02  0.00000000000E+00 0. -1.
</event>
<event>
 7    1  0.3894296E-009  0.8486939E+02  0.7561462E-02  0.1315774E+00
         -2   -1    0    0    0  501 -0.00000000000E+00  0.00000000000E+00  0.26202729314E+02  0.26202729314E+02  0.00000000000E+00 0.  1.
          2   -1    0    0  501    0  0.00000000000E+00 -0.00000000000E+00 -0.71412703390E+03  0.71412703390E+03  0.00000000000E+00 0. -1.
         25    2    1    2    0    0 -0.67765352531E+02 -0.40631254705E+02 -0.44589963539E+03  0.46980700570E+03  0.12509634646E+03 0.  0.
          5    1    3    3  502    0 -0.18062380973E+02 -0.15378227309E+02 -0.40393480363E+01  0.24423927083E+02  0.41800000000E+01 0.  1.
         -5    1    3    3    0  502 -0.49702971558E+02 -0.25253027396E+02 -0.44186028736E+03  0.44538307861E+03  0.41800000000E+01 0.  1.
        -11    1    1    2    0    0  0.64661589745E+02  0.18303932049E+02 -0.23840051688E+03  0.24769126259E+03  0.00000000000E+00 0. -1.
         11    1    1    2    0    0  0.31037627859E+01  0.22327322657E+02 -0.36241523154E+01  0.22831494924E+02  0.00000000000E+00 0.  1.
</event>
<event>
 7    1  0.2601031E-009  0.3201631E+03  0.7561462E-02  0.1075574E+00
          2   -1    0    0  501    0  0.00000000000E+00  0.00000000000E+00  0.13887019534E+04  0.13887019534E+04  0.00000000000E+00 0.  1.
         -2   -1    0    0    0  501 -0.00000000000E+00 -0.00000000000E+00 -0.11398193598E+03  0.11398193598E+03  0.00000000000E+00 0. -1.
         25    2    1    2    0    0  0.35902317872E+02 -0.30933914710E+03  0.22532894777E+03  0.40422588590E+03  0.12508296356E+03 0.  0.
          5    1    3    3  502    0  0.25233525604E+02 -0.13906967780E+02  0.57016054824E+02  0.64019039941E+02  0.41800000000E+01 0.  1.
         -5    1    3    3    0  502  0.10668792268E+02 -0.29543217932E+03  0.16831289294E+03  0.34020684596E+03  0.41800000000E+01 0.  1.
        -11    1    1    2    0    0 -0.38600459456E+02  0.11705716159E+03  0.29020217092E+03  0.31529299795E+03  0.00000000000E+00 0. -1.
         11    1    1    2    0    0  0.26981415843E+01  0.19228198551E+03  0.75918889877E+03  0.78316500556E+03  0.00000000000E+00 0.  1.
</event>
<event>
 7    1  0.2601031E-009  0.7671068E+02  0.7561462E-02  0.1338654E+00
          2   -1    0    0  501    0  0.00000000000E+00  0.00000000000E+00  0.35500804274E+03  0.35500804274E+03  0.00000000000E+00 0. -1.
         -2   -1    0    0    0  501 -0.00000000000E+00 -0.00000000000E+00 -0.51184460809E+02  0.51184460809E+02  0.00000000000E+00 0.  1.
         25    2    1    2    0    0 -0.17568738673E+02 -0.18528981801E+02  0.52290539186E+02  0.13796348201E+03  0.12509051977E+03 0.  0.
          5    1    3    3  502    0 -0.28233268681E+02 -0.36978782489E+02 -0.28220632760E+02  0.54574942310E+02  0.41800000000E+01 0. -1.
         -5    1    3    3    0  502  0.10664530008E+02  0.18449800688E+02  0.80511171945E+02  0.83388539703E+02  0.41800000000E+01 0. -1.
        -11    1    1    2    0    0 -0.60224008069E+01  0.47359296268E+02  0.19323665264E+03  0.19904666834E+03  0.00000000000E+00 0. -1.
         11    1    1    2    0    0  0.23591139480E+02 -0.28830314467E+02  0.58296390104E+02  0.69182353194E+02  0.00000000000E+00 0.  1.
</event>
<event>
 7    1  0.2601031E-009  0.1878943E+03  0.7561462E-02  0.1160374E+00
          4   -1    0    0  501    0  0.00000000000E+00  0.00000000000E+00  0.35135305958E+03  0.35135305958E+03  0.00000000000E+00 0. -1.
         -4   -1    0    0    0  501 -0.00000000000E+00 -0.00000000000E+00 -0.11691525413E+03  0.11691525413E+03  0.00000000000E+00 0.  1.
         25    2    1    2    0    0 -0.15964427711E+03 -0.30467175983E+02  0.18429852307E+03  0.27573187712E+03  0.12509028111E+03 0.  0.
          5    1    3    3  502    0 -0.23331391357E+02  0.42662783932E+02  0.59336752513E+02  0.76829613785E+02  0.41800000000E+01 0.  1.
         -5    1    3    3    0  502 -0.13631288575E+03 -0.73129959915E+02  0.12496177056E+03  0.19890226334E+03  0.41800000000E+01 0.  1.
        -11    1    1    2    0    0  0.58532923256E+01 -0.11429096085E+02 -0.15523175847E+02  0.20145824796E+02  0.00000000000E+00 0.  1.
         11    1    1    2    0    0  0.15379098478E+03  0.41896272067E+02  0.65662458233E+02  0.17239061180E+03  0.00000000000E+00 0. -1.
</event>
<event>
 7    1  0.2601031E-009  0.1587278E+03  0.7561462E-02  0.1190141E+00
          1   -1    0    0  501    0  0.00000000000E+00  0.00000000000E+00  0.55502641615E+03  0.55502641615E+03  0.00000000000E+00 0. -1.
         -1   -1    0    0    0  501 -0.00000000000E+00 -0.00000000000E+00 -0.56720570289E+02  0.56720570289E+02  0.00000000000E+00 0.  1.
         25    2    1    2    0    0  0.57509154326E+02 -0.12264172550E+03  0.32350268576E+03  0.37235564281E+03  0.12508573610E+03 0.  0.
          5    1    3    3  502    0  0.49427926491E+02 -0.13309149042E+03  0.32828822939E+03  0.35769693694E+03  0.41800000000E+01 0. -1.
         -5    1    3    3    0  502  0.80812278348E+01  0.10449764917E+02 -0.47855436286E+01  0.14658705876E+02  0.41800000000E+01 0. -1.
        -11    1    1    2    0    0 -0.71607602269E+02  0.49437654471E+02  0.75395532050E+02  0.11513564450E+03  0.00000000000E+00 0. -1.
         11    1    1    2    0    0  0.14098447943E+02  0.73204071030E+02  0.99407628056E+02  0.12425569913E+03  0.00000000000E+00 0.  1.
</event>
<event>
 7    1  0.2601031E-009  0.1066166E+03  0.7561462E-02  0.1266967E+00
          1   -1    0    0  501    0  0.00000000000E+00  0.00000000000E+00  0.56748903619E+03  0.56748903619E+03  0.00000000000E+00 0. -1.
         -1   -1    0    0    0  501 -0.00000000000E+00 -0.00000000000E+00 -0.32079041240E+02  0.32079041240E+02  0.00000000000E+00 0.  1.
         25    2    1    2    0    0 -0.69935295600E+02  0.76944211961E+01  0.39160241716E+03  0.41707315306E+03  0.12508961663E+03 0.  0.
          5    1    3    3  502    0  0.67535277313E+01  0.53075832534E+02  0.12841994369E+03  0.13918264429E+03  0.41800000000E+01 0.  1.
         -5    1    3    3    0  502 -0.76688823331E+02 -0.45381411338E+02  0.26318247347E+03  0.27789050876E+03  0.41800000000E+01 0.  1.
        -11    1    1    2    0    0  0.32205121018E+02 -0.33718763285E+01  0.14071449056E+03  0.14439219932E+03  0.00000000000E+00 0. -1.
         11    1    1    2    0    0  0.37730174582E+02 -0.43225448676E+01  0.30930872322E+01  0.38102725057E+02  0.00000000000E+00 0.  1.
</event>
<event>
 7    1  0.2601031E-009  0.1509896E+03  0.7561462E-02  0.1199262E+00
         -1   -1    0    0    0  501 -0.00000000000E+00  0.00000000000E+00  0.16180851777E+03  0.16180851777E+03  0.00000000000E+00 0.  1.
          1   -1    0    0  501    0  0.00000000000E+00 -0.00000000000E+00 -0.16876126184E+03  0.16876126184E+03  0.00000000000E+00 0. -1.
         25    2    1    2    0    0  0.10523674576E+03 -0.68460898699E+02  0.16062101778E+02  0.17796268664E+03  0.12510419423E+03 0.  0.
          5    1    3    3  502    0 -0.16152232946E+02 -0.50934747952E+02  0.13251759354E+02  0.55211635586E+02  0.41800000000E+01 0.  1.
         -5    1    3    3    0  502  0.12138897870E+03 -0.17526150747E+02  0.28103424241E+01  0.12275105106E+03  0.41800000000E+01 0.  1.
        -11    1    1    2    0    0 -0.58233108197E+02  0.41088935017E+02  0.29375857469E+02  0.77086551831E+02  0.00000000000E+00 0.  1.
         11    1    1    2    0    0 -0.47003637560E+02  0.27371963682E+02 -0.52390703323E+02  0.75520541142E+02  0.00000000000E+00 0. -1.
</event>
<event>
 7    1  0.2601031E-009  0.1334054E+03  0.7561462E-02  0.1222488E+00
         -2   -1    0    0    0  501 -0.00000000000E+00  0.00000000000E+00  0.53645117232E+02  0.53645117232E+02  0.00000000000E+00 0.  1.
          2   -1    0    0  501    0  0.00000000000E+00 -0.00000000000E+00 -0.37077914695E+03  0.37077914695E+03  0.00000000000E+00 0. -1.
         25    2    1    2    0    0  0.81673033624E+02  0.12960144830E+02 -0.22404264416E+03  0.26959398393E+03  0.12508940801E+03 0.  0.
          5    1    3    3  502    0  0.98431741122E+02 -0.30176576456E+02 -0.16380133765E+03  0.19351429933E+03  0.41800000000E+01 0.  1.
         -5    1    3    3    0  502 -0.16758707498E+02  0.43136721286E+02 -0.60241306504E+02  0.76079684605E+02  0.41800000000E+01 0.  1.
        -11    1    1    2    0    0 -0.81863111434E+02 -0.39410218293E+02 -0.48515909649E+02  0.10299770778E+03  0.00000000000E+00 0.  1.
         11    1    1    2    0    0  0.19007781001E+00  0.26450073463E+02 -0.44575475912E+02  0.51832572467E+02  0.00000000000E+00 0. -1.
</event>
<event>
 7    1  0.2601031E-009  0.2189388E+03  0.7561462E-02  0.1134677E+00
         -2   -1    0    0    0  501 -0.00000000000E+00  0.00000000000E+00  0.13180163506E+03  0.13180163506E+03  0.00000000000E+00 0.  1.
          2   -1    0    0  501    0  0.00000000000E+00 -0.00000000000E+00 -0.41609537235E+03  0.41609537235E+03  0.00000000000E+00 0. -1.
         25    2    1    2    0    0 -0.73816791952E+02 -0.18675350932E+03 -0.21946092502E+03  0.32270134222E+03  0.12508903485E+03 0.  0.
          5    1    3    3  502    0 -0.20144985842E+02 -0.18124816786E+03 -0.17224852291E+03  0.25088592000E+03  0.41800000000E+01 0. -1.
         -5    1    3    3    0  502 -0.53671806110E+02 -0.55053414620E+01 -0.47212402103E+02  0.71815422216E+02  0.41800000000E+01 0. -1.
        -11    1    1    2    0    0  0.13368147221E+02  0.51438824488E+02 -0.55280806385E+02  0.76685250077E+02  0.00000000000E+00 0. -1.
         11    1    1    2    0    0  0.60448644731E+02  0.13531468484E+03 -0.95520058951E+01  0.14851041512E+03  0.00000000000E+00 0.  1.
</event>
<event>
 7    1  0.2601031E-009  0.1195276E+03  0.7561462E-02  0.1243878E+00
          1   -1    0    0  501    0  0.00000000000E+00  0.00000000000E+00  0.41215673312E+02  0.41215673312E+02  0.00000000000E+00 0. -1.
         -1   -1    0    0    0  501 -0.00000000000E+00 -0.00000000000E+00 -0.79197493277E+03  0.79197493277E+03  0.00000000000E+00 0.  1.
         25    2    1    2    0    0  0.68722845168E+02 -0.25984033618E+02 -0.11066592079E+03  0.18245950213E+03  0.12508606815E+03 0.  0.
          5    1    3    3  502    0  0.32409193863E+02 -0.62304519320E+02 -0.12310448249E+02  0.71422885062E+02  0.41800000000E+01 0. -1.
         -5    1    3    3    0  502  0.36313651305E+02  0.36320485702E+02 -0.98355472538E+02  0.11103661707E+03  0.41800000000E+01 0. -1.
        -11    1    1    2    0    0 -0.59819084810E+02 -0.25424095875E+02 -0.35933481449E+03  0.36516601219E+03  0.00000000000E+00 0. -1.
         11    1    1    2    0    0 -0.89037603582E+01  0.51408129493E+02 -0.28075852419E+03  0.28556509176E+03  0.00000000000E+00 0.  1.
</event>
<event>
 7    1  0.2601031E-009  0.8999162E+02  0.7561462E-02  0.1302872E+00
          3   -1    0    0  501    0  0.00000000000E+00  0.00000000000E+00  0.15134472829E+03  0.15134472829E+03  0.00000000000E+00 0. -1.
         -3   -1    0    0    0  501 -0.00000000000E+00 -0.00000000000E+00 -0.10439769418E+03  0.10439769418E+03  0.00000000000E+00 0.  1.
         25    2    1    2    0    0 -0.40973690667E+02  0.46448223079E+02  0.10692842456E+02  0.13998606379E+03  0.12508189486E+03 0.  0.
          5    1    3    3  502    0 -0.49647352367E+02  0.22828224415E+02  0.61962859979E+02  0.82721556101E+02  0.41800000000E+01 0. -1.
         -5    1    3    3    0  502  0.86736616997E+01  0.23619998664E+02 -0.51270017523E+02  0.57264507690E+02  0.41800000000E+01 0. -1.
        -11    1    1    2    0    0  0.94364155226E+01  0.22202285733E+02 -0.11140561219E+02  0.26572533450E+02  0.00000000000E+00 0.  1.
         11    1    1    2    0    0  0.31537275145E+02 -0.68650508812E+02  0.47394752872E+02  0.89183825235E+02  0.00000000000E+00 0. -1.
</event>
<event>
 7    1  0.2601031E-009  0.1280421E+03  0.7561462E-02  0.1230390E+00
          1   -1    0    0  501    0  0.00000000000E+00  0.00000000000E+00  0.35281185287E+03  0.35281185287E+03  0.00000000000E+00 0. -1.
         -1   -1    0    0    0  501 -0.00000000000E+00 -0.00000000000E+00 -0.55816148967E+02  0.55816148967E+02  0.00000000000E+00 0.  1.
         25    2    1    2    0    0 -0.86372363333E+02 -0.22356813128E+02  0.16318742154E+03  0.22413707328E+03  0.12508909157E+03 0.  0.
          5    1    3    3  502    0  0.11594248749E+02 -0.45297827630E+02  0.25111425021E+02  0.53238856661E+02  0.41800000000E+01 0. -1.
         -5    1    3    3    0  502 -0.97966612081E+02  0.22941014502E+02  0.13807599652E+03  0.17089821662E+03  0.41800000000E+01 0. -1.
        -11    1    1    2    0    0  0.83951267361E+02 -0.19843515221E+01  0.51234904472E+02  0.98370566628E+02  0.00000000000E+00 0.  1.
         11    1    1    2    0    0  0.24210959720E+01  0.24341164650E+02  0.82573377896E+02  0.86120361933E+02  0.00000000000E+00 0. -1.
</event>
<event>
 7    1  0.2601031E-009  0.1050883E+03  0.7561462E-02  0.1269946E+00
         -1   -1    0    0    0  501 -0.00000000000E+00  0.00000000000E+00  0.14693807141E+03  0.14693807141E+03  0.00000000000E+00 0.  1.
          1   -1    0    0  501    0  0.00000000000E+00 -0.00000000000E+00 -0.98622472852E+02  0.98622472852E+02  0.00000000000E+00 0. -1.
         25    2    1    2    0    0 -0.50168034761E+02  0.74004697359E+01  0.18843083434E+02  0.13628594169E+03  0.12508875827E+03 0.  0.
          5    1    3    3  502    0 -0.64246913643E+02 -0.46171281918E+02  0.74065095293E+01  0.79572495060E+02  0.41800000000E+01 0. -1.
         -5    1    3    3    0  502  0.14078878883E+02  0.53571751654E+02  0.11436573904E+02  0.56713446629E+02  0.41800000000E+01 0. -1.
        -11    1    1    2    0    0  0.24576089523E+02  0.24366537170E+02  0.52159927489E+02  0.62596887666E+02  0.00000000000E+00 0.  1.
         11    1    1    2    0    0  0.25591945238E+02 -0.31767006905E+02 -0.22687412367E+02  0.46677714904E+02  0.00000000000E+00 0. -1.
</event>
<event>
 7    1  0.2601031E-009  0.1651752E+03  0.7561462E-02  0.1182975E+00
         -1   -1    0    0    0  501 -0.00000000000E+00  0.00000000000E+00  0.56257999295E+03  0.56257999295E+03  0.00000000000E+00 0.  1.
          1   -1    0    0  501    0  0.00000000000E+00 -0.00000000000E+00 -0.56891416279E+02  0.56891416279E+02  0.00000000000E+00 0. -1.
         25    2    1    2    0    0  0.78886849991E+02  0.95995332740E+02  0.38595011091E+03  0.42431505155E+03  0.12509011092E+03 0.  0.
          5    1    3    3  502    0  0.75120556865E+02 -0.47202629376E+01  0.17029458467E+03  0.18623398432E+03  0.41800000000E+01 0.  1.
         -5    1    3    3    0  502  0.37662931258E+01  0.10071559568E+03  0.21565552623E+03  0.23808106723E+03  0.41800000000E+01 0.  1.
        -11    1    1    2    0    0 -0.37765341027E+02 -0.10535555704E+03  0.85828130569E+02  0.14104071178E+03  0.00000000000E+00 0. -1.
         11    1    1    2    0    0 -0.41121508964E+02  0.93602243014E+01  0.33910335191E+02  0.54115645900E+02  0.00000000000E+00 0.  1.
</event>
<event>
 7    1  0.2601031E-009  0.8927804E+02  0.7561462E-02  0.1304609E+00
          2   -1    0    0  501    0  0.00000000000E+00  0.00000000000E+00  0.31981236482E+03  0.31981236482E+03  0.00000000000E+00 0.  1.
         -2   -1    0    0    0  501 -0.00000000000E+00 -0.00000000000E+00 -0.43490842107E+02  0.43490842107E+02  0.00000000000E+00 0. -1.
         25    2    1    2    0    0 -0.66702967292E+01 -0.45152007406E+02  0.14054902121E+03  0.19360905320E+03  0.12508893431E+03 0.  0.
          5    1    3    3  502    0 -0.65034335634E+02 -0.33382111179E+02  0.83294051572E+02  0.11090176547E+03  0.41800000000E+01 0. -1.
         -5    1    3    3    0  502  0.58364038905E+02 -0.11769896227E+02  0.57254969642E+02  0.82707287727E+02  0.41800000000E+01 0. -1.
        -11    1    1    2    0    0  0.47922815889E+01  0.34834229548E+02  0.14884099064E+03  0.15293799399E+03  0.00000000000E+00 0.  1.
         11    1    1    2    0    0  0.18780151403E+01  0.10317777858E+02 -0.13068489139E+02  0.16756159738E+02  0.00000000000E+00 0. -1.
</event>
<event>
 7    1  0.2601031E-009  0.2393071E+03  0.7561462E-02  0.1120255E+00
         -2   -1    0    0    0  501 -0.00000000000E+00  0.00000000000E+00  0.18236473979E+02  0.18236473979E+02  0.00000000000E+00 0.  1.
          2   -1    0    0  501    0  0.00000000000E+00 -0.00000000000E+00 -0.41022500218E+04  0.41022500218E+04  0.00000000000E+00 0. -1.
         25    2    1    2    0    0  0.18899635549E+03 -0.10209196978E+03 -0.30562420504E+04  0.30663341695E+04  0.12508947123E+03 0.  0.
          5    1    3    3  502    0  0.20522521743E+03 -0.93247605799E+02 -0.29320016746E+04  0.29406570351E+04  0.41800000000E+01 0. -1.
         -5    1    3    3    0  502 -0.16228861940E+02 -0.88443639848E+01 -0.12424037578E+03  0.12567713439E+03  0.41800000000E+01 0. -1.
        -11    1    1    2    0    0 -0.12527523544E+03  0.14817024975E+02 -0.57208780276E+03  0.58583093372E+03  0.00000000000E+00 0.  1.
         11    1    1    2    0    0 -0.63721120056E+02  0.87274944809E+02 -0.45568369471E+03  0.46832139259E+03  0.00000000000E+00 0. -1.
</event>
<event>
 7    1  0.2601031E-009  0.1116188E+03  0.7561462E-02  0.1257601E+00
         -1   -1    0    0    0  501 -0.00000000000E+00  0.00000000000E+00  0.21398689336E+02  0.21398689336E+02  0.00000000000E+00 0.  1.
          1   -1    0    0  501    0  0.00000000000E+00 -0.00000000000E+00 -0.87241299095E+03  0.87241299095E+03  0.00000000000E+00 0. -1.
         25    2    1    2    0    0  0.76919294463E+02  0.14662494404E+02 -0.53970200000E+03  0.55951486276E+03  0.12508823385E+03 0.  0.
          5    1    3    3  502    0  0.10174360787E+03  0.15108117682E+02 -0.51129746336E+03  0.52155784473E+03  0.41800000000E+01 0. -1.
         -5    1    3    3    0  502 -0.24824313409E+02 -0.44562327809E+00 -0.28404536642E+02  0.37957018036E+02  0.41800000000E+01 0. -1.
        -11    1    1    2    0    0 -0.38238946053E+02 -0.34626796049E+02 -0.59497793101E+02  0.78747821454E+02  0.00000000000E+00 0.  1.
         11    1    1    2    0    0 -0.38680348410E+02  0.19964301646E+02 -0.25181450851E+03  0.25554899607E+03  0.00000000000E+00 0. -1.
</event>
<event>
 7    1  0.2601031E-009  0.1105477E+03  0.7561462E-02  0.1259559E+00
         -2   -1    0    0    0  501 -0.00000000000E+00  0.00000000000E+00  0.38501098486E+02  0.38501098486E+02  0.00000000000E+00 0. -1.
          2   -1    0    0  501    0  0.00000000000E+00 -0.00000000000E+00 -0.40167600119E+03  0.40167600119E+03  0.00000000000E+00 0.  1.
         25    2    1    2    0    0  0.14133717516E+02  0.52971195153E+02 -0.15181970256E+03  0.20421655686E+03  0.12509784381E+03 0.  0.
          5    1    3    3  502    0  0.53468844631E+02 -0.24846487552E+01 -0.11469372798E+03  0.12663812405E+03  0.41800000000E+01 0. -1.
         -5    1    3    3    0  502 -0.39335127115E+02  0.55455843908E+02 -0.37125974574E+02  0.77578432807E+02  0.41800000000E+01 0. -1.
        -11    1    1    2    0    0 -0.15364789581E+02 -0.75337195993E+02 -0.19018650973E+03  0.20514063065E+03  0.00000000000E+00 0.  1.
         11    1    1    2    0    0  0.12310720656E+01  0.22366000840E+02 -0.21168690414E+02  0.30819912165E+02  0.00000000000E+00 0. -1.
</event>
<event>
 7    1  0.2601031E-009  0.8644766E+02  0.7561462E-02  0.1311690E+00
          2   -1    0    0  501    0  0.00000000000E+00  0.00000000000E+00  0.35249000168E+02  0.35249000168E+02  0.00000000000E+00 0. -1.
         -2   -1    0    0    0  501 -0.00000000000E+00 -0.00000000000E+00 -0.34919568470E+03  0.34919568470E+03  0.00000000000E+00 0.  1.
         25    2    1    2    0    0 -0.12825831914E+02 -0.55321918595E+01 -0.21874556538E+03  0.25238073302E+03  0.12510517542E+03 0.  0.
          5    1    3    3  502    0  0.14662304144E+02  0.33721536226E+02 -0.19546944524E+03  0.19894195533E+03  0.41800000000E+01 0. -1.
         -5    1    3    3    0  502 -0.27488136058E+02 -0.39253728085E+02 -0.23276120141E+02  0.53438777694E+02  0.41800000000E+01 0. -1.
        -11    1    1    2    0    0 -0.36995882896E+02  0.81893927748E+01 -0.60149437062E+02  0.71089494893E+02  0.00000000000E+00 0. -1.
         11    1    1    2    0    0  0.49821714810E+02 -0.26572009154E+01 -0.35051682094E+02  0.60974456955E+02  0.00000000000E+00 0.  1.
</event>
<event>
 7    1  0.2601031E-009  0.1211119E+03  0.7561462E-02  0.1241274E+00
          1   -1    0    0  501    0  0.00000000000E+00  0.00000000000E+00  0.92149878866E+02  0.92149878866E+02  0.00000000000E+00 0. -1.
         -1   -1    0    0    0  501 -0.00000000000E+00 -0.00000000000E+00 -0.19137291960E+03  0.19137291960E+03  0.00000000000E+00 0.  1.
         25    2    1    2    0    0 -0.15661379054E+02 -0.75596036062E+02 -0.50171191770E+02  0.15531654669E+03  0.12508413860E+03 0.  0.
          5    1    3    3  502    0 -0.58128630163E+02 -0.27783221323E+02 -0.62722052483E+02  0.90013184031E+02  0.41800000000E+01 0. -1.
         -5    1    3    3    0  502  0.42467251109E+02 -0.47812814739E+02  0.12550860713E+02  0.65303362659E+02  0.41800000000E+01 0. -1.
        -11    1    1    2    0    0 -0.34531800442E+02  0.32467220238E+02 -0.38770516660E+02  0.61234945855E+02  0.00000000000E+00 0.  1.
         11    1    1    2    0    0  0.50193179496E+02  0.43128815824E+02 -0.10281332299E+02  0.66971305917E+02  0.00000000000E+00 0. -1.
</event>
<event>
 7    1  0.2601031E-009  0.1554830E+03  0.7561462E-02  0.1193893E+00
         -3   -1    0    0    0  501 -0.00000000000E+00  0.00000000000E+00  0.91910605611E+02  0.91910605611E+02  0.00000000000E+00 0.  1.
          3   -1    0    0  501    0  0.00000000000E+00 -0.00000000000E+00 -0.30178478567E+03  0.30178478567E+03  0.00000000000E+00 0. -1.
         25    2    1    2    0    0 -0.74515174676E+01  0.12005163146E+03 -0.67948753211E+02  0.18636851611E+03  0.12509305098E+03 0.  0.
          5    1    3    3  502    0 -0.56580842787E+02  0.36751390457E+02  0.86234228810E+00  0.67603790613E+02  0.41800000000E+01 0. -1.
         -5    1    3    3    0  502  0.49129325320E+02  0.83300241002E+02 -0.68811095499E+02  0.11876472549E+03  0.41800000000E+01 0. -1.
        -11    1    1    2    0    0 -0.36905139946E+02 -0.36135634846E+02 -0.27030983864E+02  0.58296205269E+02  0.00000000000E+00 0.  1.
         11    1    1    2    0    0  0.44356657413E+02 -0.83915996613E+02 -0.11489444299E+03  0.14903066991E+03  0.00000000000E+00 0. -1.
</event>
<event>
 7    1  0.2601031E-009  0.1226794E+03  0.7561462E-02  0.1238741E+00
         -2   -1    0    0    0  501 -0.00000000000E+00  0.00000000000E+00  0.47743628929E+02  0.47743628929E+02  0.00000000000E+00 0.  1.
          2   -1    0    0  501    0  0.00000000000E+00 -0.00000000000E+00 -0.49110723259E+03  0.49110723259E+03  0.00000000000E+00 0. -1.
         25    2    1    2    0    0 -0.52484594287E+02  0.86876020280E+02 -0.30255062375E+03  0.34276312806E+03  0.12509039326E+03 0.  0.
          5    1    3    3  502    0 -0.15324059502E+02  0.66945653394E+02 -0.29074435088E+03  0.29877465970E+03  0.41800000000E+01 0.  1.
         -5    1    3    3    0  502 -0.37160534785E+02  0.19930366886E+02 -0.11806272875E+02  0.43988468362E+02  0.41800000000E+01 0.  1.
        -11    1    1    2    0    0  0.68060450305E+02 -0.28543033060E+02 -0.94989587810E+02  0.12029111116E+03  0.00000000000E+00 0.  1.
         11    1    1    2    0    0 -0.15575856018E+02 -0.58332987221E+02 -0.45823392094E+02  0.75796622298E+02  0.00000000000E+00 0. -1.
</event>
<event>
 7    1  0.2601031E-009  0.1219444E+03  0.7561462E-02  0.1239923E+00
          2   -1    0    0  501    0  0.00000000000E+00  0.00000000000E+00  0.12013005433E+04  0.12013005433E+04  0.00000000000E+00 0. -1.
         -2   -1    0    0    0  501 -0.00000000000E+00 -0.00000000000E+00 -0.18955408407E+02  0.18955408407E+02  0.00000000000E+00 0.  1.
         25    2    1    2    0    0 -0.60226700804E+02 -0.55230621267E+02  0.90363512069E+03  0.91590480112E+03  0.12508995306E+03 0.  0.
          5    1    3    3  502    0 -0.41229926547E+02 -0.80846611249E+02  0.83696925262E+03  0.84188543378E+03  0.41800000000E+01 0. -1.
         -5    1    3    3    0  502 -0.18996774257E+02  0.25615989982E+02  0.66665868078E+02  0.74019367341E+02  0.41800000000E+01 0. -1.
        -11    1    1    2    0    0 -0.57700123442E+01  0.54571368593E+02  0.10398606076E+03  0.11757732836E+03  0.00000000000E+00 0.  1.
         11    1    1    2    0    0  0.65996713148E+02  0.65925267442E+00  0.17472395341E+03  0.18677382219E+03  0.00000000000E+00 0. -1.
</event>
<event>
 7    1  0.2601031E-009  0.1570743E+03  0.7561462E-02  0.1192040E+00
         -2   -1    0    0    0  501 -0.00000000000E+00  0.00000000000E+00  0.57497485249E+02  0.57497485249E+02  0.00000000000E+00 0.  1.
          2   -1    0    0  501    0  0.00000000000E+00 -0.00000000000E+00 -0.64068863620E+03  0.64068863620E+03  0.00000000000E+00 0. -1.
         25    2    1    2    0    0 -0.79504906594E+01 -0.11503308966E+03 -0.50073372382E+03  0.52884460157E+03  0.12508608404E+03 0.  0.
          5    1    3    3  502    0 -0.58554456738E+02 -0.97407333894E+02 -0.38074473225E+03  0.39736738245E+03  0.41800000000E+01 0.  1.
         -5    1    3    3    0  502  0.50603966078E+02 -0.17625755768E+02 -0.11998899157E+03  0.13147721912E+03  0.41800000000E+01 0.  1.
        -11    1    1    2    0    0  0.44751960806E+02  0.94423413538E+02 -0.48535106566E+02  0.11521360853E+03  0.00000000000E+00 0.  1.
         11    1    1    2    0    0 -0.36801470147E+02  0.20609676124E+02 -0.33922320565E+02  0.54127911353E+02  0.00000000000E+00 0. -1.
</event>
<event>
 7    1  0.2601031E-009  0.7127561E+02  0.7561462E-02  0.1355808E+00
         -1   -1    0    0    0  501 -0.00000000000E+00  0.00000000000E+00  0.54366111977E+02  0.54366111977E+02  0.00000000000E+00 0.  1.
          1   -1    0    0  501    0  0.00000000000E+00 -0.00000000000E+00 -0.23339186198E+03  0.23339186198E+03  0.00000000000E+00 0. -1.
         25    2    1    2    0    0 -0.13688189550E+02 -0.22498536829E+02 -0.85032381844E+02  0.15353171522E+03  0.12509169006E+03 0.  0.
          5    1    3    3  502    0 -0.15974549836E+02  0.18054157558E+02  0.25716369803E+02  0.35495674715E+02  0.41800000000E+01 0.  1.
         -5    1    3    3    0  502  0.22863602857E+01 -0.40552694387E+02 -0.11074875165E+03  0.11803604050E+03  0.41800000000E+01 0.  1.
        -11    1    1    2    0    0  0.38847787317E+02  0.32029025067E+02 -0.17767724100E+02  0.53391956753E+02  0.00000000000E+00 0.  1.
         11    1    1    2    0    0 -0.25159597767E+02 -0.95304882385E+01 -0.76225644063E+02  0.80834301993E+02  0.00000000000E+00 0. -1.
</event>
<event>
 7    1  0.2601031E-009  0.1401516E+03  0.7561462E-02  0.1213125E+00
          1   -1    0    0  501    0  0.00000000000E+00  0.00000000000E+00  0.19833228925E+03  0.19833228925E+03  0.00000000000E+00 0. -1.
         -1   -1    0    0    0  501 -0.00000000000E+00 -0.00000000000E+00 -0.12361102545E+03  0.12361102545E+03  0.00000000000E+00 0.  1.
         25    2    1    2    0    0 -0.50897871625E+02  0.84592408154E+02 -0.13160629944E+02  0.15989775426E+03  0.12509045040E+03 0.  0.
          5    1    3    3  502    0 -0.83498226913E+02  0.65125145019E+02  0.21709501663E+02  0.10817584423E+03  0.41800000000E+01 0.  1.
         -5    1    3    3    0  502  0.32600355288E+02  0.19467263135E+02 -0.34870131607E+02  0.51721910030E+02  0.41800000000E+01 0.  1.
        -11    1    1    2    0    0  0.15066288015E+02 -0.97035147022E+02  0.64535704631E+02  0.11750604225E+03  0.00000000000E+00 0. -1.
         11    1    1    2    0    0  0.35831583610E+02  0.12442738868E+02  0.23346189113E+02  0.44539518191E+02  0.00000000000E+00 0.  1.
</event>
<event>
 7    1  0.2601031E-009  0.6653892E+02  0.7561462E-02  0.1372274E+00
         -1   -1    0    0    0  501 -0.00000000000E+00  0.00000000000E+00  0.93666458143E+02  0.93666458143E+02  0.00000000000E+00 0.  1.
          1   -1    0    0  501    0  0.00000000000E+00 -0.00000000000E+00 -0.15273006174E+03  0.15273006174E+03  0.00000000000E+00 0. -1.
         25    2    1    2    0    0 -0.62056221070E+01 -0.19693246703E+02 -0.82467999122E+02  0.15123064251E+03  0.12507358891E+03 0.  0.
          5    1    3    3  502    0  0.67041406885E+01  0.73067964553E+01 -0.10989558088E+03  0.11042122022E+03  0.41800000000E+01 0.  1.
         -5    1    3    3    0  502 -0.12909762796E+02 -0.27000043158E+02  0.27427581763E+02  0.40809422286E+02  0.41800000000E+01 0.  1.
        -11    1    1    2    0    0 -0.41872587429E+02  0.82643208848E+01  0.81914625551E+01  0.43459321629E+02  0.00000000000E+00 0. -1.
         11    1    1    2    0    0  0.48078209536E+02  0.11428925818E+02  0.15212932972E+02  0.51706555746E+02  0.00000000000E+00 0.  1.
</event>
<event>
 7    1  0.2601031E-009  0.1408426E+03  0.7561462E-02  0.1212200E+00
          1   -1    0    0  501    0  0.00000000000E+00  0.00000000000E+00  0.61893133221E+02  0.61893133221E+02  0.00000000000E+00 0. -1.
         -1   -1    0    0    0  501 -0.00000000000E+00 -0.00000000000E+00 -0.33331722856E+03  0.33331722856E+03  0.00000000000E+00 0.  1.
         25    2    1    2    0    0 -0.28379756333E+02  0.89038236806E+02 -0.15858895191E+03  0.22255598706E+03  0.12508994174E+03 0.  0.
          5    1    3    3  502    0  0.48647039530E+02  0.23479063574E+02 -0.65754808536E+02  0.85199578209E+02  0.41800000000E+01 0.  1.
         -5    1    3    3    0  502 -0.77026795863E+02  0.65559173232E+02 -0.92834143372E+02  0.13735640885E+03  0.41800000000E+01 0.  1.
        -11    1    1    2    0    0  0.51568467399E+02 -0.89255590309E+02 -0.10734261342E+03  0.14882306235E+03  0.00000000000E+00 0.  1.
         11    1    1    2    0    0 -0.23188711066E+02  0.21735350275E+00 -0.54925300081E+01  0.23831312371E+02  0.00000000000E+00 0. -1.
</event>
<event>
 7    1  0.2601031E-009  0.7714356E+02  0.7561462E-02  0.1337359E+00
          2   -1    0    0  501    0  0.00000000000E+00  0.00000000000E+00  0.74790979573E+03  0.74790979573E+03  0.00000000000E+00 0. -1.
         -2   -1    0    0    0  501 -0.00000000000E+00 -0.00000000000E+00 -0.19983485635E+02  0.19983485635E+02  0.00000000000E+00 0.  1.
         25    2    1    2    0    0  0.55637308969E+02 -0.24351269434E+02  0.43603843010E+03  0.45767437177E+03  0.12509126100E+03 0.  0.
          5    1    3    3  502    0 -0.81568604573E+01 -0.80518926264E+01  0.34514360361E+03  0.34535915633E+03  0.41800000000E+01 0. -1.
         -5    1    3    3    0  502  0.63794169426E+02 -0.16299376808E+02  0.90894826494E+02  0.11231521545E+03  0.41800000000E+01 0. -1.
        -11    1    1    2    0    0 -0.95649834515E+01  0.28297230399E+02  0.23855564026E+02  0.38227085838E+02  0.00000000000E+00 0.  1.
         11    1    1    2    0    0 -0.46072325517E+02 -0.39459609648E+01  0.26803231596E+03  0.27199182375E+03  0.00000000000E+00 0. -1.
</event>
<event>
 7    1  0.2601031E-009  0.1225921E+03  0.7561462E-02  0.1238881E+00
         -1   -1    0    0    0  501 -0.00000000000E+00  0.00000000000E+00  0.54396978962E+02  0.54396978962E+02  0.00000000000E+00 0.  1.
          1   -1    0    0  501    0  0.00000000000E+00 -0.00000000000E+00 -0.32877068510E+03  0.32877068510E+03  0.00000000000E+00 0. -1.
         25    2    1    2    0    0  0.48048411055E+02  0.55602710374E+02 -0.18752690527E+03  0.23709492331E+03  0.12508937307E+03 0.  0.
          5    1    3    3  502    0  0.14875922170E+01  0.82659557496E+02 -0.72586141862E+02  0.11009557560E+03  0.41800000000E+01 0. -1.
         -5    1    3    3    0  502  0.46560818838E+02 -0.27056847122E+02 -0.11494076341E+03  0.12699934771E+03  0.41800000000E+01 0. -1.
        -11    1    1    2    0    0  0.19031682616E+02 -0.32092966279E+02 -0.49616477033E+01  0.37640156425E+02  0.00000000000E+00 0.  1.
         11    1    1    2    0    0 -0.67080093671E+02 -0.23509744095E+02 -0.81885153164E+02  0.10843258432E+03  0.00000000000E+00 0. -1.
</event>
<event>
 7    1  0.2601031E-009  0.9914621E+02  0.7561462E-02  0.1282102E+00
         -1   -1    0    0    0  501 -0.00000000000E+00  0.00000000000E+00  0.15042515234E+02  0.15042515234E+02  0.00000000000E+00 0.  1.
          1   -1    0    0  501    0  0.00000000000E+00 -0.00000000000E+00 -0.98894543544E+03  0.98894543544E+03  0.00000000000E+00 0. -1.
         25    2    1    2    0    0  0.37449473076E+02  0.95159777240E+01 -0.71673140630E+03  0.72859086731E+03  0.12509087208E+03 0.  0.
          5    1    3    3  502    0  0.72719998434E+01  0.52140106742E+02 -0.57612620891E+03  0.57854157474E+03  0.41800000000E+01 0. -1.
         -5    1    3    3    0  502  0.30177473232E+02 -0.42624129018E+02 -0.14060519739E+03  0.15004929257E+03  0.41800000000E+01 0. -1.
        -11    1    1    2    0    0 -0.62926408809E+02  0.60776133623E+01 -0.21213878204E+03  0.22135838172E+03  0.00000000000E+00 0. -1.
         11    1    1    2    0    0  0.25476935733E+02 -0.15593591086E+02 -0.45032731866E+02  0.54038701655E+02  0.00000000000E+00 0.  1.
</event>
<event>
 7    1  0.2601031E-009  0.2252268E+03  0.7561462E-02  0.1130045E+00
         -1   -1    0    0    0  501 -0.00000000000E+00  0.00000000000E+00  0.11624268498E+04  0.11624268498E+04  0.00000000000E+00 0.  1.
          1   -1    0    0  501    0  0.00000000000E+00 -0.00000000000E+00 -0.54378047911E+02  0.54378047911E+02  0.00000000000E+00 0. -1.
         25    2    1    2    0    0  0.21632930974E+03 -0.25008880786E+02  0.72112622546E+03  0.76360634646E+03  0.12509118645E+03 0.  0.
          5    1    3    3  502    0  0.12872714066E+03 -0.14520215956E+02  0.22485074342E+03  0.25953196842E+03  0.41800000000E+01 0.  1.
         -5    1    3    3    0  502  0.87602169077E+02 -0.10488664831E+02  0.49627548205E+03  0.50407437804E+03  0.41800000000E+01 0.  1.
        -11    1    1    2    0    0 -0.18410020875E+03 -0.10703231927E+02  0.33509464691E+03  0.38248642907E+03  0.00000000000E+00 0.  1.
         11    1    1    2    0    0 -0.32229100987E+02  0.35712112713E+02  0.51827929489E+02  0.70712122157E+02  0.00000000000E+00 0. -1.
</event>
<event>
 7    1  0.2601031E-009  0.1283945E+03  0.7561462E-02  0.1229858E+00
         -3   -1    0    0    0  501 -0.00000000000E+00  0.00000000000E+00  0.12562517006E+03  0.12562517006E+03  0.00000000000E+00 0.  1.
          3   -1    0    0  501    0  0.00000000000E+00 -0.00000000000E+00 -0.13305509642E+03  0.13305509642E+03  0.00000000000E+00 0. -1.
         25    2    1    2    0    0 -0.72637073649E+02 -0.24445724600E+02 -0.18482382745E+02  0.14786087034E+03  0.12508996996E+03 0.  0.
          5    1    3    3  502    0 -0.70557824834E+02  0.40578876152E+02 -0.95244032707E+01  0.82056312936E+02  0.41800000000E+01 0. -1.
         -5    1    3    3    0  502 -0.20792488154E+01 -0.65024600752E+02 -0.89579794739E+01  0.65804557402E+02  0.41800000000E+01 0. -1.
        -11    1    1    2    0    0  0.64986522252E+02 -0.17625395657E+02  0.37441505609E+01  0.67438277780E+02  0.00000000000E+00 0.  1.
         11    1    1    2    0    0  0.76505513969E+01  0.42071120257E+02  0.73083058154E+01  0.43381118361E+02  0.00000000000E+00 0. -1.
</event>
<event>
 7    1  0.2601031E-009  0.1190630E+03  0.7561462E-02  0.1244651E+00
          1   -1    0    0  501    0  0.00000000000E+00  0.00000000000E+00  0.16791137451E+03  0.16791137451E+03  0.00000000000E+00 0. -1.
         -1   -1    0    0    0  501 -0.00000000000E+00 -0.00000000000E+00 -0.14269738906E+03  0.14269738906E+03  0.00000000000E+00 0.  1.
         25    2    1    2    0    0  0.77533721798E+02 -0.51052523193E+02  0.73927802962E+02  0.17242778065E+03  0.12509269103E+03 0.  0.
          5    1    3    3  502    0  0.16676315536E+00  0.12136575839E+02  0.71265449458E+02  0.72412436567E+02  0.41800000000E+01 0. -1.
         -5    1    3    3    0  502  0.77366958643E+02 -0.63189099032E+02  0.26623535036E+01  0.10001534408E+03  0.41800000000E+01 0. -1.
        -11    1    1    2    0    0  0.37532873796E+01  0.43511222413E+02 -0.33728703197E+02  0.55180966478E+02  0.00000000000E+00 0.  1.
         11    1    1    2    0    0 -0.81287009178E+02  0.75413007793E+01 -0.14985114317E+02  0.83000016443E+02  0.00000000000E+00 0. -1.
</event>
<event>
 7    1  0.2601031E-009  0.1117877E+03  0.7561462E-02  0.1257295E+00
         -1   -1    0    0    0  501 -0.00000000000E+00  0.00000000000E+00  0.17053849422E+03  0.17053849422E+03  0.00000000000E+00 0.  1.
          1   -1    0    0  501    0  0.00000000000E+00 -0.00000000000E+00 -0.10860188698E+03  0.10860188698E+03  0.00000000000E+00 0. -1.
         25    2    1    2    0    0  0.55968100611E+02 -0.47496819841E+02  0.77510045417E+02  0.16444833071E+03  0.12508824946E+03 0.  0.
          5    1    3    3  502    0  0.35446996217E+01  0.25792721391E+02 -0.18881581093E+02  0.32431710975E+02  0.41800000000E+01 0. -1.
         -5    1    3    3    0  502  0.52423400989E+02 -0.73289541232E+02  0.96391626510E+02  0.13201661974E+03  0.41800000000E+01 0. -1.
        -11    1    1    2    0    0 -0.56721590343E+00  0.51455998353E+02 -0.26810564558E+02  0.58024545429E+02  0.00000000000E+00 0. -1.
         11    1    1    2    0    0 -0.55400884707E+02 -0.39591785112E+01  0.11237126373E+02  0.56667505062E+02  0.00000000000E+00 0.  1.
</event>
<event>
 7    1  0.2601031E-009  0.1844725E+03  0.7561462E-02  0.1163543E+00
          1   -1    0    0  501    0  0.00000000000E+00  0.00000000000E+00  0.77530624217E+03  0.77530624217E+03  0.00000000000E+00 0. -1.
         -1   -1    0    0    0  501 -0.00000000000E+00 -0.00000000000E+00 -0.56015653962E+02  0.56015653962E+02  0.00000000000E+00 0.  1.
         25    2    1    2    0    0  0.30617987447E+02  0.17190587402E+03  0.44765740589E+03  0.49652186876E+03  0.12509085669E+03 0.  0.
          5    1    3    3  502    0  0.26082385364E+02  0.15056973747E+03  0.44896173398E+03  0.47427381084E+03  0.41800000000E+01 0.  1.
         -5    1    3    3    0  502  0.45356020834E+01  0.21336136557E+02 -0.13043280911E+01  0.22248057920E+02  0.41800000000E+01 0.  1.
        -11    1    1    2    0    0 -0.16767650926E+02  0.41439371920E+01  0.12952792113E+02  0.21589376012E+02  0.00000000000E+00 0. -1.
         11    1    1    2    0    0 -0.13850336521E+02 -0.17604981122E+03  0.25868039020E+03  0.31321065136E+03  0.00000000000E+00 0.  1.
</event>
<event>
 7    1  0.2601031E-009  0.1298811E+03  0.7561462E-02  0.1227632E+00
         -1   -1    0    0    0  501 -0.00000000000E+00  0.00000000000E+00  0.14150109704E+03  0.14150109704E+03  0.00000000000E+00 0.  1.
          1   -1    0    0  501    0  0.00000000000E+00 -0.00000000000E+00 -0.20200965627E+03  0.20200965627E+03  0.00000000000E+00 0. -1.
         25    2    1    2    0    0  0.30710938572E+02 -0.12585823439E+03 -0.43429805876E+02  0.18524723946E+03  0.12508770834E+03 0.  0.
          5    1    3    3  502    0  0.13963184313E+02 -0.50844189857E+02  0.43971257024E+02  0.68782599563E+02  0.41800000000E+01 0. -1.
         -5    1    3    3    0  502  0.16747754259E+02 -0.75014044529E+02 -0.87401062900E+02  0.11646463989E+03  0.41800000000E+01 0. -1.
        -11    1    1    2    0    0 -0.12652419479E+02  0.71653568824E+02 -0.53672015915E+02  0.90415722838E+02  0.00000000000E+00 0. -1.
         11    1    1    2    0    0 -0.18058519093E+02  0.54204665561E+02  0.36593262566E+02  0.67847791015E+02  0.00000000000E+00 0.  1.
</event>
<event>
 7    1  0.2601031E-009  0.2386939E+03  0.7561462E-02  0.1120666E+00
          2   -1    0    0  501    0  0.00000000000E+00  0.00000000000E+00  0.27090719348E+03  0.27090719348E+03  0.00000000000E+00 0. -1.
         -2   -1    0    0    0  501 -0.00000000000E+00 -0.00000000000E+00 -0.28113155262E+03  0.28113155262E+03  0.00000000000E+00 0.  1.
         25    2    1    2    0    0 -0.20732259673E+03 -0.48975392849E+02 -0.14204502800E+03  0.28496491661E+03  0.12508783113E+03 0.  0.
          5    1    3    3  502    0 -0.41863089990E+02  0.39264896328E+02 -0.49034237558E+02  0.75604756729E+02  0.41800000000E+01 0.  1.
         -5    1    3    3    0  502 -0.16545950674E+03 -0.88240289177E+02 -0.93010790444E+02  0.20936015988E+03  0.41800000000E+01 0.  1.
        -11    1    1    2    0    0  0.79620946449E+02 -0.26526268949E+02  0.47737975349E+02  0.96550776010E+02  0.00000000000E+00 0.  1.
         11    1    1    2    0    0  0.12770165029E+03  0.75501661798E+02  0.84082693516E+02  0.17052305348E+03  0.00000000000E+00 0. -1.
</event>
<event>
 7    1  0.2601031E-009  0.1437527E+03  0.7561462E-02  0.1208367E+00
          1   -1    0    0  501    0  0.00000000000E+00  0.00000000000E+00  0.45370449110E+03  0.45370449110E+03  0.00000000000E+00 0. -1.
         -1   -1    0    0    0  501 -0.00000000000E+00 -0.00000000000E+00 -0.46773855558E+02  0.46773855558E+02  0.00000000000E+00 0.  1.
         25    2    1    2    0    0  0.33540782683E+02  0.87427645200E+02  0.24200081608E+03  0.28806575214E+03  0.12509558475E+03 0.  0.
          5    1    3    3  502    0 -0.16776602492E+02  0.10214912717E+03  0.15652996245E+03  0.18770988284E+03  0.41800000000E+01 0. -1.
         -5    1    3    3    0  502  0.50317385175E+02 -0.14721481968E+02  0.85470853629E+02  0.10035586930E+03  0.41800000000E+01 0. -1.
        -11    1    1    2    0    0  0.15791496305E+02 -0.79853572253E+02  0.12152957994E+03  0.14627167586E+03  0.00000000000E+00 0.  1.
         11    1    1    2    0    0 -0.49332278988E+02 -0.75740729474E+01  0.43400239524E+02  0.66140918665E+02  0.00000000000E+00 0. -1.
</event>
<event>
 7    1  0.2601031E-009  0.1111744E+03  0.7561462E-02  0.1258410E+00
         -2   -1    0    0    0  501 -0.00000000000E+00  0.00000000000E+00  0.34612176483E+03  0.34612176483E+03  0.00000000000E+00 0. -1.
          2   -1    0    0  501    0  0.00000000000E+00 -0.00000000000E+00 -0.10734537727E+03  0.10734537727E+03  0.00000000000E+00 0.  1.
         25    2    1    2    0    0 -0.10778159696E+02 -0.21644198154E+02  0.30931293549E+03  0.33452442973E+03  0.12508981569E+03 0.  0.
          5    1    3    3  502    0  0.56381717645E+02 -0.17677737144E+01  0.15535870816E+03  0.16533548835E+03  0.41800000000E+01 0.  1.
         -5    1    3    3    0  502 -0.67159877341E+02 -0.19876424440E+02  0.15395422733E+03  0.16918894138E+03  0.41800000000E+01 0.  1.
        -11    1    1    2    0    0  0.45042858486E+02  0.36789725903E+02 -0.46123144069E+02  0.74227268921E+02  0.00000000000E+00 0. -1.
         11    1    1    2    0    0 -0.34264698790E+02 -0.15145527749E+02 -0.24413403864E+02  0.44715443442E+02  0.00000000000E+00 0.  1.
</event>
<event>
 7    1  0.2601031E-009  0.8086783E+02  0.7561462E-02  0.1326607E+00
         -1   -1    0    0    0  501 -0.00000000000E+00  0.00000000000E+00  0.50009449358E+03  0.50009449358E+03  0.00000000000E+00 0.  1.
          1   -1    0    0  501    0  0.00000000000E+00 -0.00000000000E+00 -0.27358684336E+02  0.27358684336E+02  0.00000000000E+00 0. -1.
         25    2    1    2    0    0  0.25045898528E+02 -0.25640706553E+01  0.34746716978E+03  0.37015347919E+03  0.12508514135E+03 0.  0.
          5    1    3    3  502    0  0.60159200749E+02  0.23231939934E+02  0.29417828181E+03  0.30119293875E+03  0.41800000000E+01 0.  1.
         -5    1    3    3    0  502 -0.35113302222E+02 -0.25796010590E+02  0.53288887977E+02  0.68960540435E+02  0.41800000000E+01 0.  1.
        -11    1    1    2    0    0 -0.10894606437E+01 -0.20238059658E+02 -0.66249135828E+01  0.21322651411E+02  0.00000000000E+00 0. -1.
         11    1    1    2    0    0 -0.23956437884E+02  0.22802130313E+02  0.13189355304E+03  0.13597704732E+03  0.00000000000E+00 0.  1.
</event>
<event>
 7    1  0.2601031E-009  0.1066260E+03  0.7561462E-02  0.1266949E+00
          2   -1    0    0  501    0  0.00000000000E+00  0.00000000000E+00  0.49434702256E+03  0.49434702256E+03  0.00000000000E+00 0. -1.
         -2   -1    0    0    0  501 -0.00000000000E+00 -0.00000000000E+00 -0.43009011132E+02  0.43009011132E+02  0.00000000000E+00 0.  1.
         25    2    1    2    0    0 -0.57793515801E+02  0.78289954372E+02  0.22362375137E+03  0.27408827781E+03  0.12508954565E+03 0.  0.
          5    1    3    3  502    0 -0.12266496685E+02  0.60973707457E+02  0.21574451275E+03  0.22456942606E+03  0.41800000000E+01 0.  1.
         -5    1    3    3    0  502 -0.45527019115E+02  0.17316246915E+02  0.78792386202E+01  0.49518851743E+02  0.41800000000E+01 0.  1.
        -11    1    1    2    0    0  0.18575106571E+02 -0.50924167416E+02  0.34570604110E+02  0.64291773033E+02  0.00000000000E+00 0.  1.
         11    1    1    2    0    0  0.39218409229E+02 -0.27365786956E+02  0.19314365595E+03  0.19897598285E+03  0.00000000000E+00 0. -1.
</event>
<event>
 7    1  0.2601031E-009  0.1170445E+03  0.7561462E-02  0.1248054E+00
         -2   -1    0    0    0  501 -0.00000000000E+00  0.00000000000E+00  0.48060260393E+02  0.48060260393E+02  0.00000000000E+00 0.  1.
          2   -1    0    0  501    0  0.00000000000E+00 -0.00000000000E+00 -0.45915115043E+03  0.45915115043E+03  0.00000000000E+00 0. -1.
         25    2    1    2    0    0 -0.83414196425E+02 -0.94654148479E+01 -0.31766839446E+03  0.35158029563E+03  0.12509185903E+03 0.  0.
          5    1    3    3  502    0 -0.11221612793E+03 -0.25269567493E+02 -0.27026124149E+03  0.29375095142E+03  0.41800000000E+01 0. -1.
         -5    1    3    3    0  502  0.28801931504E+02  0.15804152645E+02 -0.47407152960E+02  0.57829344203E+02  0.41800000000E+01 0. -1.
        -11    1    1    2    0    0  0.34571018336E+02  0.12913890020E+02  0.12479593265E+02  0.38957208733E+02  0.00000000000E+00 0.  1.
         11    1    1    2    0    0  0.48843178090E+02 -0.34484751725E+01 -0.10590208884E+03  0.11667390646E+03  0.00000000000E+00 0. -1.
</event>
<event>
 7    1  0.2601031E-009  0.1396250E+03  0.7561462E-02  0.1213834E+00
         -1   -1    0    0    0  501 -0.00000000000E+00  0.00000000000E+00  0.60217944151E+02  0.60217944151E+02  0.00000000000E+00 0.  1.
          1   -1    0    0  501    0  0.00000000000E+00 -0.00000000000E+00 -0.39558778275E+03  0.39558778275E+03  0.00000000000E+00 0. -1.
         25    2    1    2    0    0 -0.85612039993E+02 -0.47549311047E+02 -0.22938558850E+03  0.27902495871E+03  0.12508725353E+03 0.  0.
          5    1    3    3  502    0 -0.58596589501E+02  0.23145686385E+02 -0.17413468498E+03  0.18522862633E+03  0.41800000000E+01 0. -1.
         -5    1    3    3    0  502 -0.27015450492E+02 -0.70694997432E+02 -0.55250903529E+02  0.93796332380E+02  0.41800000000E+01 0. -1.
        -11    1    1    2    0    0  0.54357040778E+02  0.79051412618E+02 -0.82728566113E+02  0.12668002751E+03  0.00000000000E+00 0. -1.
         11    1    1    2    0    0  0.31254999215E+02 -0.31502101572E+02 -0.23255683977E+02  0.50100740679E+02  0.00000000000E+00 0.  1.
</event>
<event>
 7    1  0.2601031E-009  0.8668617E+02  0.7561462E-02  0.1311081E+00
          1   -1    0    0  501    0  0.00000000000E+00  0.00000000000E+00  0.39209892678E+03  0.39209892678E+03  0.00000000000E+00 0. -1.
         -1   -1    0    0    0  501 -0.00000000000E+00 -0.00000000000E+00 -0.32434173678E+02  0.32434173678E+02  0.00000000000E+00 0.  1.
         25    2    1    2    0    0  0.74172138565E+01 -0.18810144767E+02  0.24690682699E+03  0.27752323939E+03  0.12508929043E+03 0.  0.
          5    1    3    3  502    0  0.26450083651E+02  0.21532987381E+02  0.22507754357E+03  0.22768541782E+03  0.41800000000E+01 0. -1.
         -5    1    3    3    0  502 -0.19032869794E+02 -0.40343132148E+02  0.21829283427E+02  0.49837821572E+02  0.41800000000E+01 0. -1.
        -11    1    1    2    0    0  0.41858676053E+02  0.11885346442E+01  0.46463985694E+02  0.62549686986E+02  0.00000000000E+00 0.  1.
         11    1    1    2    0    0 -0.49275889909E+02  0.17621610123E+02  0.66293940411E+02  0.84460174076E+02  0.00000000000E+00 0. -1.
</event>
<event>
 7    1  0.2601031E-009  0.1139063E+03  0.7561462E-02  0.1253502E+00
          1   -1    0    0  501    0  0.00000000000E+00  0.00000000000E+00  0.55238466471E+03  0.55238466471E+03  0.00000000000E+00 0. -1.
         -1   -1    0    0    0  501 -0.00000000000E+00 -0.00000000000E+00 -0.30757591416E+02  0.30757591416E+02  0.00000000000E+00 0.  1.
         25    2    1    2    0    0 -0.37835979359E+01 -0.66667645744E+02  0.25745806032E+03  0.29392648123E+03  0.12509689421E+03 0.  0.
          5    1    3    3  502    0  0.41644745614E+02 -0.35076820999E+02  0.22072372426E+03  0.22737876563E+03  0.41800000000E+01 0. -1.
         -5    1    3    3    0  502 -0.45428343549E+02 -0.31590824745E+02  0.36734336065E+02  0.66547715602E+02  0.41800000000E+01 0. -1.
        -11    1    1    2    0    0 -0.14424171920E+02 -0.22488486300E+02  0.57894525600E+02  0.63761782018E+02  0.00000000000E+00 0.  1.
         11    1    1    2    0    0  0.18207769856E+02  0.89156132043E+02  0.20627448737E+03  0.22545399287E+03  0.00000000000E+00 0. -1.
</event>
<event>
 7    1  0.3015245E-009  0.1138748E+03  0.7561462E-02  0.1253558E+00
         -2   -1    0    0    0  501 -0.00000000000E+00  0.00000000000E+00  0.25590965909E+02  0.25590965909E+02  0.00000000000E+00 0.  1.
          2   -1    0    0  501    0  0.00000000000E+00 -0.00000000000E+00 -0.10514333282E+04  0.10514333282E+04  0.00000000000E+00 0. -1.
         25    2    1    2    0    0 -0.13365393543E+01  0.10795221984E+03 -0.74195098338E+03  0.76012779546E+03  0.12509010987E+03 0.  0.
          5    1    3    3  502    0 -0.13068052908E+02  0.23429717975E+02 -0.54212040181E+03  0.54279989697E+03  0.41800000000E+01 0. -1.
         -5    1    3    3    0  502  0.11731513554E+02  0.84522501868E+02 -0.19983058157E+03  0.21732789849E+03  0.41800000000E+01 0. -1.
        -11    1    1    2    0    0 -0.18547099875E+02 -0.35772157868E+02 -0.25053141124E+02  0.47447887967E+02  0.00000000000E+00 0.  1.
         11    1    1    2    0    0  0.19883639230E+02 -0.72180061975E+02 -0.25883823774E+03  0.26944861063E+03  0.00000000000E+00 0. -1.
</event>
<event>
 7    1  0.2601031E-009  0.1130863E+03  0.7561462E-02  0.1254959E+00
         -2   -1    0    0    0  501 -0.00000000000E+00  0.00000000000E+00  0.11905190481E+03  0.11905190481E+03  0.00000000000E+00 0.  1.
          2   -1    0    0  501    0  0.00000000000E+00 -0.00000000000E+00 -0.12928542068E+03  0.12928542068E+03  0.00000000000E+00 0. -1.
         25    2    1    2    0    0  0.43745364353E+02 -0.30738286312E+01 -0.47000884833E+02  0.14063713208E+03  0.12508642780E+03 0.  0.
          5    1    3    3  502    0  0.18369376572E+02 -0.63291257475E+02 -0.14824243189E+02  0.67679006010E+02  0.41800000000E+01 0. -1.
         -5    1    3    3    0  502  0.25375987781E+02  0.60217428844E+02 -0.32176641644E+02  0.72958126072E+02  0.41800000000E+01 0. -1.
        -11    1    1    2    0    0 -0.31323002810E+02 -0.39440592919E+02  0.36244999789E+00  0.50366876465E+02  0.00000000000E+00 0. -1.
         11    1    1    2    0    0 -0.12422361543E+02  0.42514421550E+02  0.36404918971E+02  0.57333316940E+02  0.00000000000E+00 0.  1.
</event>
<event>
 7    1  0.2601031E-009  0.1455114E+03  0.7561462E-02  0.1206100E+00
         -2   -1    0    0    0  501 -0.00000000000E+00  0.00000000000E+00  0.57492094693E+02  0.57492094693E+02  0.00000000000E+00 0.  1.
          2   -1    0    0  501    0  0.00000000000E+00 -0.00000000000E+00 -0.40095929701E+03  0.40095929701E+03  0.00000000000E+00 0. -1.
         25    2    1    2    0    0 -0.82906323973E+02  0.63163047804E+02 -0.15892505753E+03  0.22752261320E+03  0.12508531667E+03 0.  0.
          5    1    3    3  502    0 -0.10696638892E+02  0.86090351710E+02 -0.81113897858E+02  0.11883982315E+03  0.41800000000E+01 0.  1.
         -5    1    3    3    0  502 -0.72209685081E+02 -0.22927303906E+02 -0.77811159671E+02  0.10868279005E+03  0.41800000000E+01 0.  1.
        -11    1    1    2    0    0  0.42456995725E+02  0.10961794114E+02 -0.25149367156E+02  0.50549461763E+02  0.00000000000E+00 0.  1.
         11    1    1    2    0    0  0.40449328247E+02 -0.74124841918E+02 -0.15939277763E+03  0.18037931674E+03  0.00000000000E+00 0. -1.
</event>
<event>
 7    1  0.2601031E-009  0.1446476E+03  0.7561462E-02  0.1207209E+00
          1   -1    0    0  501    0  0.00000000000E+00  0.00000000000E+00  0.15679449849E+03  0.15679449849E+03  0.00000000000E+00 0. -1.
         -1   -1    0    0    0  501 -0.00000000000E+00 -0.00000000000E+00 -0.13484275779E+03  0.13484275779E+03  0.00000000000E+00 0.  1.
         25    2    1    2    0    0 -0.14672012716E+02  0.93696943241E+02 -0.27812079326E+01  0.15700253390E+03  0.12509066874E+03 0.  0.
          5    1    3    3  502    0 -0.45694019273E+02 -0.11422064029E+02 -0.17349149971E+01  0.47316902626E+02  0.41800000000E+01 0.  1.
         -5    1    3    3    0  502  0.31022006558E+02  0.10511900727E+03 -0.10462929355E+01  0.10968563128E+03  0.41800000000E+01 0.  1.
        -11    1    1    2    0    0  0.59564811319E+01 -0.11194692087E+03  0.20249419648E+02  0.11391940904E+03  0.00000000000E+00 0.  1.
         11    1    1    2    0    0  0.87155315838E+01  0.18249977633E+02  0.44835289895E+01  0.20715313336E+02  0.00000000000E+00 0. -1.
</event>
<event>
 7    1  0.2601031E-009  0.1095566E+03  0.7561462E-02  0.1261393E+00
          4   -1    0    0  501    0  0.00000000000E+00  0.00000000000E+00  0.83768072105E+02  0.83768072105E+02  0.00000000000E+00 0. -1.
         -4   -1    0    0    0  501 -0.00000000000E+00 -0.00000000000E+00 -0.15052390103E+03  0.15052390103E+03  0.00000000000E+00 0.  1.
         25    2    1    2    0    0  0.77782374347E+01  0.27458518601E+02 -0.18396973848E+02  0.12961623620E+03  0.12508976304E+03 0.  0.
          5    1    3    3  502    0  0.49489824798E+02  0.57804325396E+02 -0.63045268616E+01  0.76470924226E+02  0.41800000000E+01 0. -1.
         -5    1    3    3    0  502 -0.41711587363E+02 -0.30345806796E+02 -0.12092446986E+02  0.53145311972E+02  0.41800000000E+01 0. -1.
        -11    1    1    2    0    0 -0.47330503008E+02 -0.13679230098E+02 -0.16175254592E+02  0.51854958414E+02  0.00000000000E+00 0. -1.
         11    1    1    2    0    0  0.39552265573E+02 -0.13779288503E+02 -0.32183600486E+02  0.52820778524E+02  0.00000000000E+00 0.  1.
</event>
<event>
 7    1  0.2601031E-009  0.2856272E+03  0.7561462E-02  0.1092655E+00
          2   -1    0    0  501    0  0.00000000000E+00  0.00000000000E+00  0.14627907340E+04  0.14627907340E+04  0.00000000000E+00 0. -1.
         -2   -1    0    0    0  501 -0.00000000000E+00 -0.00000000000E+00 -0.58502474539E+02  0.58502474539E+02  0.00000000000E+00 0.  1.
         25    2    1    2    0    0 -0.26811737224E+03 -0.35475197126E+02  0.65843436953E+03  0.72272329845E+03  0.12509089587E+03 0.  0.
          5    1    3    3  502    0  0.86093156053E+01  0.13875047031E+02  0.36571612189E+02  0.40269001271E+02  0.41800000000E+01 0. -1.
         -5    1    3    3    0  502 -0.27672668785E+03 -0.49350244157E+02  0.62186275734E+03  0.68245429717E+03  0.41800000000E+01 0. -1.
        -11    1    1    2    0    0  0.57053883604E+02 -0.84874216037E+01  0.27092451976E+03  0.27699689054E+03  0.00000000000E+00 0. -1.
         11    1    1    2    0    0  0.21106348864E+03  0.43962618729E+02  0.47492937022E+03  0.52157301960E+03  0.00000000000E+00 0.  1.
</event>
<event>
 7    1  0.2601031E-009  0.2913535E+03  0.7561462E-02  0.1089645E+00
          2   -1    0    0  501    0  0.00000000000E+00  0.00000000000E+00  0.57760678562E+03  0.57760678562E+03  0.00000000000E+00 0. -1.
         -2   -1    0    0    0  501 -0.00000000000E+00 -0.00000000000E+00 -0.15678310749E+03  0.15678310749E+03  0.00000000000E+00 0.  1.
         25    2    1    2    0    0  0.21526895977E+03 -0.17741144977E+03  0.25212093878E+03  0.39626820656E+03  0.12509187108E+03 0.  0.
          5    1    3    3  502    0  0.13600062000E+02  0.75778159868E+01  0.59350420040E+02  0.61500648293E+02  0.41800000000E+01 0. -1.
         -5    1    3    3    0  502  0.20166889777E+03 -0.18498926576E+03  0.19277051874E+03  0.33476755827E+03  0.41800000000E+01 0. -1.
        -11    1    1    2    0    0 -0.16236484726E+03  0.77664383442E+02  0.98630797075E+02  0.20523677598E+03  0.00000000000E+00 0. -1.
         11    1    1    2    0    0 -0.52904112507E+02  0.99747066331E+02  0.70071942274E+02  0.13288491056E+03  0.00000000000E+00 0.  1.
</event>
<event>
 7    1  0.2601031E-009  0.1752208E+03  0.7561462E-02  0.1172510E+00
         -2   -1    0    0    0  501 -0.00000000000E+00  0.00000000000E+00  0.86995190192E+02  0.86995190192E+02  0.00000000000E+00 0.  1.
          2   -1    0    0  501    0  0.00000000000E+00 -0.00000000000E+00 -0.47341372194E+03  0.47341372194E+03  0.00000000000E+00 0. -1.
         25    2    1    2    0    0 -0.12039774463E+03 -0.82303364223E+02 -0.80362486554E+02  0.20827103310E+03  0.12509689567E+03 0.  0.
          5    1    3    3  502    0  0.21751641112E+02  0.81470108187E+01 -0.10288156554E+02  0.25745412050E+02  0.41800000000E+01 0.  1.
         -5    1    3    3    0  502 -0.14214938575E+03 -0.90450375042E+02 -0.70074330000E+02  0.18252562105E+03  0.41800000000E+01 0.  1.
        -11    1    1    2    0    0  0.23973524928E+02  0.51948633554E+02 -0.46954023116E+02  0.74013989977E+02  0.00000000000E+00 0.  1.
         11    1    1    2    0    0  0.96424219707E+02  0.30354730669E+02 -0.25910202208E+03  0.27812388906E+03  0.00000000000E+00 0. -1.
</event>
<event>
 7    1  0.2601031E-009  0.1186606E+03  0.7561462E-02  0.1245323E+00
         -2   -1    0    0    0  501 -0.00000000000E+00  0.00000000000E+00  0.90186478232E+02  0.90186478232E+02  0.00000000000E+00 0.  1.
          2   -1    0    0  501    0  0.00000000000E+00 -0.00000000000E+00 -0.23474542243E+03  0.23474542243E+03  0.00000000000E+00 0. -1.
         25    2    1    2    0    0  0.44616635759E+02  0.63149519329E+02 -0.12814025992E+02  0.14760866450E+03  0.12508242321E+03 0.  0.
          5    1    3    3  502    0  0.30528907139E+02 -0.19514512284E+02 -0.44793366370E+02  0.57764594966E+02  0.41800000000E+01 0. -1.
         -5    1    3    3    0  502  0.14087728620E+02  0.82664031613E+02  0.31979340379E+02  0.89844069538E+02  0.41800000000E+01 0. -1.
        -11    1    1    2    0    0  0.11376170519E+01 -0.70532638341E+02 -0.64038251460E+02  0.95273526722E+02  0.00000000000E+00 0.  1.
         11    1    1    2    0    0 -0.45754252811E+02  0.73831190115E+01 -0.67706666743E+02  0.82049709434E+02  0.00000000000E+00 0. -1.
</event>
<event>
 7    1  0.2601031E-009  0.9334896E+02  0.7561462E-02  0.1294939E+00
          1   -1    0    0  501    0  0.00000000000E+00  0.00000000000E+00  0.49445649531E+02  0.49445649531E+02  0.00000000000E+00 0. -1.
         -1   -1    0    0    0  501 -0.00000000000E+00 -0.00000000000E+00 -0.24570009894E+03  0.24570009894E+03  0.00000000000E+00 0.  1.
         25    2    1    2    0    0  0.12802099515E+02  0.15361689697E+02 -0.12676752588E+03  0.17921428053E+03  0.12509147639E+03 0.  0.
          5    1    3    3  502    0  0.24319055744E+01  0.56331432302E+02 -0.12444077509E+03  0.13668256412E+03  0.41800000000E+01 0.  1.
         -5    1    3    3    0  502  0.10370193940E+02 -0.40969742605E+02 -0.23267507917E+01  0.42531716410E+02  0.41800000000E+01 0.  1.
        -11    1    1    2    0    0 -0.30262323843E+02  0.27824047655E+02 -0.51740257508E+02  0.66083584340E+02  0.00000000000E+00 0.  1.
         11    1    1    2    0    0  0.17460224328E+02 -0.43185737352E+02 -0.17746666016E+02  0.49847883595E+02  0.00000000000E+00 0. -1.
</event>
<event>
 7    1  0.2601031E-009  0.1020403E+03  0.7561462E-02  0.1276063E+00
         -1   -1    0    0    0  501 -0.00000000000E+00  0.00000000000E+00  0.52621414433E+02  0.52621414433E+02  0.00000000000E+00 0.  1.
          1   -1    0    0  501    0  0.00000000000E+00 -0.00000000000E+00 -0.24591628901E+03  0.24591628901E+03  0.00000000000E+00 0. -1.
         25    2    1    2    0    0 -0.20525408108E+02 -0.19444581783E+02 -0.13618084241E+03  0.18706037234E+03  0.12508787680E+03 0.  0.
          5    1    3    3  502    0 -0.50736027684E+02 -0.48679105022E+02 -0.37679137278E+02  0.79881096368E+02  0.41800000000E+01 0.  1.
         -5    1    3    3    0  502  0.30210619576E+02  0.29234523240E+02 -0.98501705135E+02  0.10717927598E+03  0.41800000000E+01 0.  1.
        -11    1    1    2    0    0  0.32109018356E+02  0.49604302555E+02 -0.52109380422E+02  0.78784284091E+02  0.00000000000E+00 0. -1.
         11    1    1    2    0    0 -0.11583610248E+02 -0.30159720772E+02 -0.50046517391E+01  0.32693047005E+02  0.00000000000E+00 0.  1.
</event>
<event>
 7    1  0.2601031E-009  0.9573832E+02  0.7561462E-02  0.1289522E+00
         -2   -1    0    0    0  501 -0.00000000000E+00  0.00000000000E+00  0.82125648585E+02  0.82125648585E+02  0.00000000000E+00 0.  1.
          2   -1    0    0  501    0  0.00000000000E+00 -0.00000000000E+00 -0.28504658949E+03  0.28504658949E+03  0.00000000000E+00 0. -1.
         25    2    1    2    0    0  0.12390560129E+02  0.63058419973E+02 -0.21451887968E+03  0.25650832851E+03  0.12509309553E+03 0.  0.
          5    1    3    3  502    0 -0.33146518286E+02  0.39305595656E+02 -0.19450358114E+03  0.20122807210E+03  0.41800000000E+01 0.  1.
         -5    1    3    3    0  502  0.45537078414E+02  0.23752824317E+02 -0.20015298535E+02  0.55280256412E+02  0.41800000000E+01 0.  1.
        -11    1    1    2    0    0  0.93601459124E+00  0.12046706794E+02  0.29875425716E+02  0.32226391818E+02  0.00000000000E+00 0.  1.
         11    1    1    2    0    0 -0.13326574720E+02 -0.75105126767E+02 -0.18277486942E+02  0.78437517741E+02  0.00000000000E+00 0. -1.
</event>
<event>
 7    1  0.2601031E-009  0.4872133E+03  0.7561462E-02  0.1017171E+00
         -1   -1    0    0    0  501 -0.00000000000E+00  0.00000000000E+00  0.11758635935E+03  0.11758635935E+03  0.00000000000E+00 0.  1.
          1   -1    0    0  501    0  0.00000000000E+00 -0.00000000000E+00 -0.21050574870E+04  0.21050574870E+04  0.00000000000E+00 0. -1.
         25    2    1    2    0    0 -0.48400082461E+03  0.22787411096E+02 -0.10538823975E+04  0.11666584634E+04  0.12509115994E+03 0.  0.
          5    1    3    3  502    0 -0.45197086651E+03  0.11901757196E+02 -0.87886278439E+03  0.98835043491E+03  0.41800000000E+01 0.  1.
         -5    1    3    3    0  502 -0.32029958099E+02  0.10885653900E+02 -0.17501961308E+03  0.17830802853E+03  0.41800000000E+01 0.  1.
        -11    1    1    2    0    0  0.38626385410E+03 -0.42149870556E+02 -0.79962468963E+03  0.88903094481E+03  0.00000000000E+00 0.  1.
         11    1    1    2    0    0  0.97736970512E+02  0.19362459460E+02 -0.13396404058E+03  0.16695443812E+03  0.00000000000E+00 0. -1.
</event>
<event>
 7    1  0.2601031E-009  0.2241374E+03  0.7561462E-02  0.1130836E+00
          3   -1    0    0  501    0  0.00000000000E+00  0.00000000000E+00  0.40074693255E+02  0.40074693255E+02  0.00000000000E+00 0. -1.
         -3   -1    0    0    0  501 -0.00000000000E+00 -0.00000000000E+00 -0.21022565197E+04  0.21022565197E+04  0.00000000000E+00 0.  1.
         25    2    1    2    0    0 -0.20119166375E+03  0.48036529925E+02 -0.17052659946E+04  0.17223138042E+04  0.12508850519E+03 0.  0.
          5    1    3    3  502    0 -0.67463035157E+02  0.63258018699E+02 -0.10023446440E+04  0.10066106972E+04  0.41800000000E+01 0. -1.
         -5    1    3    3    0  502 -0.13372862859E+03 -0.15221488775E+02 -0.70292135059E+03  0.71570310698E+03  0.41800000000E+01 0. -1.
        -11    1    1    2    0    0  0.17140641552E+03 -0.86012640577E+01 -0.26658475155E+03  0.31705136932E+03  0.00000000000E+00 0. -1.
         11    1    1    2    0    0  0.29785248225E+02 -0.39435265867E+02 -0.90331080329E+02  0.10296603945E+03  0.00000000000E+00 0.  1.
</event>
<event>
 7    1  0.2601031E-009  0.9486931E+02  0.7561462E-02  0.1291471E+00
         -2   -1    0    0    0  501 -0.00000000000E+00  0.00000000000E+00  0.90022881931E+02  0.90022881931E+02  0.00000000000E+00 0.  1.
          2   -1    0    0  501    0  0.00000000000E+00 -0.00000000000E+00 -0.16927619747E+03  0.16927619747E+03  0.00000000000E+00 0. -1.
         25    2    1    2    0    0  0.31650090669E+02 -0.49282747615E+02 -0.55955762137E+02  0.14902509784E+03  0.12508762936E+03 0.  0.
          5    1    3    3  502    0 -0.23490205695E+01  0.31546390663E+02 -0.52171031546E+02  0.61155388921E+02  0.41800000000E+01 0. -1.
         -5    1    3    3    0  502  0.33999111238E+02 -0.80829138278E+02 -0.37847305910E+01  0.87869708918E+02  0.41800000000E+01 0. -1.
        -11    1    1    2    0    0  0.39016831436E+01  0.28695148136E+02  0.30845237487E+02  0.42309140071E+02  0.00000000000E+00 0.  1.
         11    1    1    2    0    0 -0.35551773812E+02  0.20587599479E+02 -0.54142790889E+02  0.67964841490E+02  0.00000000000E+00 0. -1.
</event>
<event>
 7    1  0.2601031E-009  0.1474428E+03  0.7561462E-02  0.1203651E+00
         -2   -1    0    0    0  501 -0.00000000000E+00  0.00000000000E+00  0.10822819958E+02  0.10822819958E+02  0.00000000000E+00 0.  1.
          2   -1    0    0  501    0  0.00000000000E+00 -0.00000000000E+00 -0.25421884717E+04  0.25421884717E+04  0.00000000000E+00 0. -1.
         25    2    1    2    0    0  0.23446269937E+02 -0.11478483927E+03 -0.16918832991E+04  0.17005415431E+04  0.12508858825E+03 0.  0.
          5    1    3    3  502    0 -0.15373188327E+02 -0.10607744304E+03 -0.73124378771E+03  0.73906948814E+03  0.41800000000E+01 0.  1.
         -5    1    3    3    0  502  0.38819458264E+02 -0.87073962312E+01 -0.96063951143E+03  0.96147205493E+03  0.41800000000E+01 0.  1.
        -11    1    1    2    0    0 -0.29712067966E+02  0.12884282636E+03 -0.77316339242E+03  0.78438824078E+03  0.00000000000E+00 0. -1.
         11    1    1    2    0    0  0.62657980295E+01 -0.14057987086E+02 -0.66318960162E+02  0.68081507789E+02  0.00000000000E+00 0.  1.
</event>
<event>
 7    1  0.2601031E-009  0.1030990E+03  0.7561462E-02  0.1273911E+00
          3   -1    0    0  501    0  0.00000000000E+00  0.00000000000E+00  0.74814601534E+02  0.74814601534E+02  0.00000000000E+00 0. -1.
         -3   -1    0    0    0  501 -0.00000000000E+00 -0.00000000000E+00 -0.15561577204E+03  0.15561577204E+03  0.00000000000E+00 0.  1.
         25    2    1    2    0    0  0.33498345193E+02 -0.10973667402E+02 -0.34963193189E+02  0.13459081385E+03  0.12509876813E+03 0.  0.
          5    1    3    3  502    0 -0.28805835609E+02 -0.43429484227E+02 -0.37223920614E+02  0.64179349726E+02  0.41800000000E+01 0. -1.
         -5    1    3    3    0  502  0.62304180802E+02  0.32455816825E+02  0.22607274247E+01  0.70411464121E+02  0.41800000000E+01 0. -1.
        -11    1    1    2    0    0 -0.23104768190E+02  0.43575914009E+02 -0.32739530685E+02  0.59199387364E+02  0.00000000000E+00 0.  1.
         11    1    1    2    0    0 -0.10393577003E+02 -0.32602246608E+02 -0.13098446634E+02  0.36640172366E+02  0.00000000000E+00 0. -1.
</event>
<event>
 7    1  0.2601031E-009  0.1245552E+03  0.7561462E-02  0.1235766E+00
          1   -1    0    0  501    0  0.00000000000E+00  0.00000000000E+00  0.82992378272E+02  0.82992378272E+02  0.00000000000E+00 0. -1.
         -1   -1    0    0    0  501 -0.00000000000E+00 -0.00000000000E+00 -0.23644282548E+03  0.23644282548E+03  0.00000000000E+00 0.  1.
         25    2    1    2    0    0 -0.31548839086E+02  0.82490951125E+02 -0.73148059438E+02  0.16969936770E+03  0.12508857076E+03 0.  0.
          5    1    3    3  502    0 -0.63170173006E+02  0.47178710452E+02  0.40009183051E+01  0.79055557836E+02  0.41800000000E+01 0.  1.
         -5    1    3    3    0  502  0.31621333919E+02  0.35312240673E+02 -0.77148977743E+02  0.90643809866E+02  0.41800000000E+01 0.  1.
        -11    1    1    2    0    0 -0.25332378950E+02 -0.52443546592E+02 -0.20050397918E+02  0.61596050677E+02  0.00000000000E+00 0.  1.
         11    1    1    2    0    0  0.56881218036E+02 -0.30047404533E+02 -0.60251989852E+02  0.88139785373E+02  0.00000000000E+00 0. -1.
</event>
<event>
 7    1  0.2601031E-009  0.1704023E+03  0.7561462E-02  0.1177429E+00
         -1   -1    0    0    0  501 -0.00000000000E+00  0.00000000000E+00  0.10926624341E+03  0.10926624341E+03  0.00000000000E+00 0.  1.
          1   -1    0    0  501    0  0.00000000000E+00 -0.00000000000E+00 -0.31688877709E+03  0.31688877709E+03  0.00000000000E+00 0. -1.
         25    2    1    2    0    0 -0.13605456538E+03 -0.43631225673E+02 -0.32675631975E+02  0.19269274525E+03  0.12509303950E+03 0.  0.
          5    1    3    3  502    0 -0.39043362976E+02  0.42093171765E+02 -0.25520028774E+02  0.62967956695E+02  0.41800000000E+01 0.  1.
         -5    1    3    3    0  502 -0.97011202408E+02 -0.85724397438E+02 -0.71556032011E+01  0.12972478856E+03  0.41800000000E+01 0.  1.
        -11    1    1    2    0    0  0.12965434170E+03  0.54863868465E+02 -0.16639154935E+03  0.21795972123E+03  0.00000000000E+00 0. -1.
         11    1    1    2    0    0  0.64002236863E+01 -0.11232642792E+02 -0.85553523538E+01  0.15502554023E+02  0.00000000000E+00 0.  1.
</event>
<event>
 7    1  0.2601031E-009  0.1069837E+03  0.7561462E-02  0.1266260E+00
          4   -1    0    0  501    0  0.00000000000E+00  0.00000000000E+00  0.24869827817E+03  0.24869827817E+03  0.00000000000E+00 0. -1.
         -4   -1    0    0    0  501 -0.00000000000E+00 -0.00000000000E+00 -0.79398394873E+02  0.79398394873E+02  0.00000000000E+00 0.  1.
         25    2    1    2    0    0  0.58247963753E+02 -0.55910989063E+02  0.13774841997E+03  0.20283340698E+03  0.12509156568E+03 0.  0.
          5    1    3    3  502    0  0.60525388982E+02 -0.87687446745E+01  0.45616531177E+01  0.61469461310E+02  0.41800000000E+01 0. -1.
         -5    1    3    3    0  502 -0.22774252288E+01 -0.47142244388E+02  0.13318676685E+03  0.14136394567E+03  0.41800000000E+01 0. -1.
        -11    1    1    2    0    0 -0.51828678317E+02  0.29241451691E+01 -0.15431526202E+02  0.54156204834E+02  0.00000000000E+00 0.  1.
         11    1    1    2    0    0 -0.64192854360E+01  0.52986843894E+02  0.46982989531E+02  0.71107061229E+02  0.00000000000E+00 0. -1.
</event>
<event>
 7    1  0.2601031E-009  0.1419244E+03  0.7561462E-02  0.1210763E+00
         -2   -1    0    0    0  501 -0.00000000000E+00  0.00000000000E+00  0.67499720492E+03  0.67499720492E+03  0.00000000000E+00 0.  1.
          2   -1    0    0  501    0  0.00000000000E+00 -0.00000000000E+00 -0.40415297046E+02  0.40415297046E+02  0.00000000000E+00 0. -1.
         25    2    1    2    0    0 -0.46872500400E+02  0.10710963067E+03  0.42872432763E+03  0.46165057384E+03  0.12508876428E+03 0.  0.
          5    1    3    3  502    0  0.20980342070E+02  0.31901864336E+02  0.26051115690E+02  0.46411601245E+02  0.41800000000E+01 0.  1.
         -5    1    3    3    0  502 -0.67852842470E+02  0.75207766338E+02  0.40267321194E+03  0.41523897260E+03  0.41800000000E+01 0.  1.
        -11    1    1    2    0    0 -0.21316552773E+00 -0.95583106277E+02  0.10581740353E+03  0.14259557684E+03  0.00000000000E+00 0. -1.
         11    1    1    2    0    0  0.47085665927E+02 -0.11526524397E+02  0.10004017671E+03  0.11116635128E+03  0.00000000000E+00 0.  1.
</event>
<event>
 7    1  0.2601031E-009  0.3675981E+03  0.7561462E-02  0.1055615E+00
          1   -1    0    0  501    0  0.00000000000E+00  0.00000000000E+00  0.33403249318E+03  0.33403249318E+03  0.00000000000E+00 0. -1.
         -1   -1    0    0    0  501 -0.00000000000E+00 -0.00000000000E+00 -0.41140390484E+03  0.41140390484E+03  0.00000000000E+00 0.  1.
         25    2    1    2    0    0  0.25417405898E+03 -0.24490641553E+03 -0.78571172187E+02  0.38262767703E+03  0.12508759134E+03 0.  0.
          5    1    3    3  502    0  0.22212080194E+03 -0.13954531780E+03 -0.37510833550E+02  0.26501902084E+03  0.41800000000E+01 0. -1.
         -5    1    3    3    0  502  0.32053257035E+02 -0.10536109773E+03 -0.41060338637E+02  0.11760865619E+03  0.41800000000E+01 0. -1.
        -11    1    1    2    0    0 -0.52456410525E+02  0.10430721404E+03 -0.47966692823E+01  0.11685323248E+03  0.00000000000E+00 0.  1.
         11    1    1    2    0    0 -0.20171764845E+03  0.14059920149E+03  0.59964298053E+01  0.24595548851E+03  0.00000000000E+00 0. -1.
</event>
<event>
 7    1  0.2601031E-009  0.1063807E+03  0.7561462E-02  0.1267423E+00
         -2   -1    0    0    0  501 -0.00000000000E+00  0.00000000000E+00  0.25671724345E+02  0.25671724345E+02  0.00000000000E+00 0.  1.
          2   -1    0    0  501    0  0.00000000000E+00 -0.00000000000E+00 -0.53523883623E+03  0.53523883623E+03  0.00000000000E+00 0. -1.
         25    2    1    2    0    0 -0.12822078847E+02 -0.39621333231E+02 -0.25887875577E+03  0.29051703526E+03  0.12509069445E+03 0.  0.
          5    1    3    3  502    0  0.27860445123E+02  0.28846105433E+02 -0.15142510060E+03  0.15670142211E+03  0.41800000000E+01 0.  1.
         -5    1    3    3    0  502 -0.40682523970E+02 -0.68467438664E+02 -0.10745365517E+03  0.13381561315E+03  0.41800000000E+01 0.  1.
        -11    1    1    2    0    0  0.19818595746E+02 -0.22609474846E+02 -0.14024389584E+03  0.14343052468E+03  0.00000000000E+00 0. -1.
         11    1    1    2    0    0 -0.69965168997E+01  0.62230808077E+02 -0.11044446028E+03  0.12696300063E+03  0.00000000000E+00 0.  1.
</event>
<event>
 7    1  0.2601031E-009  0.7882868E+02  0.7561462E-02  0.1332409E+00
         -3   -1    0    0    0  501 -0.00000000000E+00  0.00000000000E+00  0.10096965927E+03  0.10096965927E+03  0.00000000000E+00 0.  1.
          3   -1    0    0  501    0  0.00000000000E+00 -0.00000000000E+00 -0.14102603081E+03  0.14102603081E+03  0.00000000000E+00 0. -1.
         25    2    1    2    0    0  0.70959835720E+01  0.42925916220E+02 -0.42233368066E+02  0.13902499275E+03  0.12510517162E+03 0.  0.
          5    1    3    3  502    0  0.38713217040E+02  0.10330738178E+02 -0.73442500867E+02  0.83765808410E+02  0.41800000000E+01 0. -1.
         -5    1    3    3    0  502 -0.31617233468E+02  0.32595178043E+02  0.31209132802E+02  0.55259184341E+02  0.41800000000E+01 0. -1.
        -11    1    1    2    0    0  0.24976632539E+02 -0.14301983858E+02  0.37541895694E+02  0.47305103821E+02  0.00000000000E+00 0.  1.
         11    1    1    2    0    0 -0.32072616111E+02 -0.28623932362E+02 -0.35364899168E+02  0.55665593514E+02  0.00000000000E+00 0. -1.
</event>
<event>
 7    1  0.2601031E-009  0.1239647E+03  0.7561462E-02  0.1236696E+00
         -1   -1    0    0    0  501 -0.00000000000E+00  0.00000000000E+00  0.12259899813E+03  0.12259899813E+03  0.00000000000E+00 0.  1.
          1   -1    0    0  501    0  0.00000000000E+00 -0.00000000000E+00 -0.12785140758E+03  0.12785140758E+03  0.00000000000E+00 0. -1.
         25    2    1    2    0    0 -0.58490669522E+02  0.12654674913E+02 -0.13068270966E+02  0.13928245190E+03  0.12509005749E+03 0.  0.
          5    1    3    3  502    0 -0.66627912780E+02  0.59686233870E+02  0.25942240481E+00  0.89550348826E+02  0.41800000000E+01 0.  1.
         -5    1    3    3    0  502  0.81372432581E+01 -0.47031558956E+02 -0.13327693371E+02  0.49732103075E+02  0.41800000000E+01 0.  1.
        -11    1    1    2    0    0 -0.21019922338E+02 -0.21977310027E+02 -0.21894203475E+01  0.30489881150E+02  0.00000000000E+00 0.  1.
         11    1    1    2    0    0  0.79510591859E+02  0.93226351136E+01  0.10005281864E+02  0.80678072662E+02  0.00000000000E+00 0. -1.
</event>
<event>
 7    1  0.2601031E-009  0.1525365E+03  0.7561462E-02  0.1197390E+00
         -3   -1    0    0    0  501 -0.00000000000E+00  0.00000000000E+00  0.59464227057E+02  0.59464227057E+02  0.00000000000E+00 0.  1.
          3   -1    0    0  501    0  0.00000000000E+00 -0.00000000000E+00 -0.60709601457E+03  0.60709601457E+03  0.00000000000E+00 0. -1.
         25    2    1    2    0    0  0.51844259942E+02 -0.10611640905E+03 -0.46501481245E+03  0.49581677729E+03  0.12508789424E+03 0.  0.
          5    1    3    3  502    0  0.60502397720E+02 -0.96477552574E+01 -0.28307875430E+03  0.28966303328E+03  0.41800000000E+01 0.  1.
         -5    1    3    3    0  502 -0.86581377786E+01 -0.96468653798E+02 -0.18193605815E+03  0.20615374401E+03  0.41800000000E+01 0.  1.
        -11    1    1    2    0    0 -0.67914794924E+02  0.40309238828E+02 -0.28226033037E+02  0.83868725073E+02  0.00000000000E+00 0.  1.
         11    1    1    2    0    0  0.16070534982E+02  0.65807170227E+02 -0.54390942030E+02  0.86874739268E+02  0.00000000000E+00 0. -1.
</event>
<event>
 7    1  0.2601031E-009  0.1709465E+03  0.7561462E-02  0.1176864E+00
          2   -1    0    0  501    0  0.00000000000E+00  0.00000000000E+00  0.42818574130E+03  0.42818574130E+03  0.00000000000E+00 0. -1.
         -2   -1    0    0    0  501 -0.00000000000E+00 -0.00000000000E+00 -0.75223710720E+02  0.75223710720E+02  0.00000000000E+00 0.  1.
         25    2    1    2    0    0 -0.63986290430E+02 -0.12756280464E+03  0.18913854186E+03  0.26793257170E+03  0.12509180817E+03 0.  0.
          5    1    3    3  502    0 -0.27301371895E+02  0.17041667976E+02  0.83690944704E+01  0.33515630637E+02  0.41800000000E+01 0.  1.
         -5    1    3    3    0  502 -0.36684918535E+02 -0.14460447262E+03  0.18076944739E+03  0.23441694106E+03  0.41800000000E+01 0.  1.
        -11    1    1    2    0    0  0.14878412668E+02  0.10517971169E+03  0.14182754567E+03  0.17719817049E+03  0.00000000000E+00 0. -1.
         11    1    1    2    0    0  0.49107877762E+02  0.22383092954E+02  0.21995943049E+02  0.58278709827E+02  0.00000000000E+00 0.  1.
</event>
<event>
 7    1  0.2601031E-009  0.6143522E+02  0.7561462E-02  0.1391906E+00
          2   -1    0    0  501    0  0.00000000000E+00  0.00000000000E+00  0.30566593874E+03  0.30566593874E+03  0.00000000000E+00 0. -1.
         -2   -1    0    0    0  501 -0.00000000000E+00 -0.00000000000E+00 -0.44331168778E+02  0.44331168778E+02  0.00000000000E+00 0.  1.
         25    2    1    2    0    0 -0.74484943439E+01  0.38243230287E+02  0.11883917455E+03  0.17688477046E+03  0.12508975930E+03 0.  0.
          5    1    3    3  502    0 -0.41911634262E+00  0.26003496937E+02 -0.22584455098E+02  0.34697082349E+02  0.41800000000E+01 0. -1.
         -5    1    3    3    0  502 -0.70293780013E+01  0.12239733350E+02  0.14142362964E+03  0.14218768811E+03  0.41800000000E+01 0. -1.
        -11    1    1    2    0    0  0.27597434472E+02  0.10137503905E+02  0.10714007851E+02  0.31291809456E+02  0.00000000000E+00 0. -1.
         11    1    1    2    0    0 -0.20148940128E+02 -0.48380734192E+02  0.13178158757E+03  0.14182052761E+03  0.00000000000E+00 0.  1.
</event>
<event>
 7    1  0.2601031E-009  0.1089367E+03  0.7561462E-02  0.1262552E+00
          1   -1    0    0  501    0  0.00000000000E+00  0.00000000000E+00  0.53532331461E+03  0.53532331461E+03  0.00000000000E+00 0. -1.
         -1   -1    0    0    0  501 -0.00000000000E+00 -0.00000000000E+00 -0.31690139059E+02  0.31690139059E+02  0.00000000000E+00 0.  1.
         25    2    1    2    0    0 -0.53271808387E+02 -0.52895619225E+01  0.17271089863E+03  0.21987058245E+03  0.12509257966E+03 0.  0.
          5    1    3    3  502    0 -0.43101650075E+02 -0.52959242237E+02  0.41925712709E+02  0.80235100571E+02  0.41800000000E+01 0.  1.
         -5    1    3    3    0  502 -0.10170158311E+02  0.47669680315E+02  0.13078518593E+03  0.13963548188E+03  0.41800000000E+01 0.  1.
        -11    1    1    2    0    0 -0.23255548519E+02 -0.34782564108E+01  0.12697979160E+03  0.12913863202E+03  0.00000000000E+00 0. -1.
         11    1    1    2    0    0  0.76527356905E+02  0.87678183332E+01  0.20394248531E+03  0.21800423920E+03  0.00000000000E+00 0.  1.
</event>
<event>
 7    1  0.2601031E-009  0.1439581E+03  0.7561462E-02  0.1208100E+00
         -1   -1    0    0    0  501 -0.00000000000E+00  0.00000000000E+00  0.58193984494E+02  0.58193984494E+02  0.00000000000E+00 0.  1.
          1   -1    0    0  501    0  0.00000000000E+00 -0.00000000000E+00 -0.52214299585E+03  0.52214299585E+03  0.00000000000E+00 0. -1.
         25    2    1    2    0    0 -0.11748129730E+03 -0.65407542025E+02 -0.19452222570E+03  0.26751272958E+03  0.12507662624E+03 0.  0.
          5    1    3    3  502    0 -0.11144866583E+03 -0.42464739006E+02 -0.20807908879E+03  0.23987171314E+03  0.41800000000E+01 0.  1.
         -5    1    3    3    0  502 -0.60326314715E+01 -0.22942803019E+02  0.13556863096E+02  0.27641016440E+02  0.41800000000E+01 0.  1.
        -11    1    1    2    0    0  0.19547482039E+02  0.38097650299E+02 -0.28811095213E+02  0.51610214297E+02  0.00000000000E+00 0.  1.
         11    1    1    2    0    0  0.97933815258E+02  0.27309891726E+02 -0.24061569045E+03  0.26121403647E+03  0.00000000000E+00 0. -1.
</event>
<event>
 7    1  0.2601031E-009  0.1980215E+03  0.7561462E-02  0.1151419E+00
         -2   -1    0    0    0  501 -0.00000000000E+00  0.00000000000E+00  0.23980621761E+02  0.23980621761E+02  0.00000000000E+00 0.  1.
          2   -1    0    0  501    0  0.00000000000E+00 -0.00000000000E+00 -0.20708648248E+04  0.20708648248E+04  0.00000000000E+00 0. -1.
         25    2    1    2    0    0 -0.96414911393E+02 -0.15251417570E+03 -0.14115330456E+04  0.14285058011E+04  0.12508747282E+03 0.  0.
          5    1    3    3  502    0 -0.77468687611E+01 -0.80583294299E+02 -0.93332838955E+03  0.93684205522E+03  0.41800000000E+01 0.  1.
         -5    1    3    3    0  502 -0.88668042632E+02 -0.71930881403E+02 -0.47820465608E+03  0.49166374585E+03  0.41800000000E+01 0.  1.
        -11    1    1    2    0    0  0.78056836320E+02  0.41881858248E+02 -0.29155557703E+03  0.30471562849E+03  0.00000000000E+00 0.  1.
         11    1    1    2    0    0  0.18358075074E+02  0.11063231745E+03 -0.34379558038E+03  0.36162401700E+03  0.00000000000E+00 0. -1.
</event>
<event>
 7    1  0.2601031E-009  0.1266771E+03  0.7561462E-02  0.1232471E+00
          4   -1    0    0  501    0  0.00000000000E+00  0.00000000000E+00  0.81098315212E+02  0.81098315212E+02  0.00000000000E+00 0. -1.
         -4   -1    0    0    0  501 -0.00000000000E+00 -0.00000000000E+00 -0.20393211715E+03  0.20393211715E+03  0.00000000000E+00 0.  1.
         25    2    1    2    0    0  0.33571815571E+02  0.55336576891E+02 -0.52418579316E+02  0.15028196977E+03  0.12509100463E+03 0.  0.
          5    1    3    3  502    0  0.62396516609E+02 -0.14528458415E+02 -0.32763189693E+02  0.72078432195E+02  0.41800000000E+01 0.  1.
         -5    1    3    3    0  502 -0.28824701039E+02  0.69865035306E+02 -0.19655389623E+02  0.78203537577E+02  0.41800000000E+01 0.  1.
        -11    1    1    2    0    0 -0.66296847972E+02 -0.35779860373E+02 -0.36454151042E+02  0.83692147705E+02  0.00000000000E+00 0. -1.
         11    1    1    2    0    0  0.32725032402E+02 -0.19556716518E+02 -0.33961071576E+02  0.51056314881E+02  0.00000000000E+00 0.  1.
</event>
<event>
 7    1  0.2601031E-009  0.1062517E+03  0.7561462E-02  0.1267673E+00
         -1   -1    0    0    0  501 -0.00000000000E+00  0.00000000000E+00  0.40701681304E+03  0.40701681304E+03  0.00000000000E+00 0.  1.
          1   -1    0    0  501    0  0.00000000000E+00 -0.00000000000E+00 -0.45419699000E+02  0.45419699000E+02  0.00000000000E+00 0. -1.
         25    2    1    2    0    0 -0.60518260443E+01 -0.73043158004E+02  0.13626520651E+03  0.19896683952E+03  0.12509064391E+03 0.  0.
          5    1    3    3  502    0  0.34509263949E+02 -0.78616353258E+02  0.41090084141E+02  0.95274801037E+02  0.41800000000E+01 0. -1.
         -5    1    3    3    0  502 -0.40561089994E+02  0.55731952542E+01  0.95175122371E+02  0.10369203849E+03  0.41800000000E+01 0. -1.
        -11    1    1    2    0    0 -0.19076104848E+02  0.32909532031E+02  0.20450070493E+02  0.43187271942E+02  0.00000000000E+00 0. -1.
         11    1    1    2    0    0  0.25127930892E+02  0.40133625973E+02  0.20488183703E+03  0.21028240057E+03  0.00000000000E+00 0.  1.
</event>
<event>
 7    1  0.6652310E-009  0.9760146E+02  0.7561462E-02  0.1285422E+00
         -2   -1    0    0    0  501 -0.00000000000E+00  0.00000000000E+00  0.26628203742E+02  0.26628203742E+02  0.00000000000E+00 0.  1.
          2   -1    0    0  501    0  0.00000000000E+00 -0.00000000000E+00 -0.60286818022E+03  0.60286818022E+03  0.00000000000E+00 0. -1.
         25    2    1    2    0    0  0.30860187349E+02 -0.29633636741E+02 -0.44384728734E+03  0.46311795589E+03  0.12508926011E+03 0.  0.
          5    1    3    3  502    0  0.69060947033E+02  0.15267669391E+02 -0.19893249660E+03  0.21117321501E+03  0.41800000000E+01 0. -1.
         -5    1    3    3    0  502 -0.38200759685E+02 -0.44901306132E+02 -0.24491479074E+03  0.25194474087E+03  0.41800000000E+01 0. -1.
        -11    1    1    2    0    0 -0.18697595322E+02 -0.11772332624E+02 -0.11923057304E+03  0.12126053535E+03  0.00000000000E+00 0. -1.
         11    1    1    2    0    0 -0.12162592027E+02  0.41405969365E+02 -0.13162116100E+02  0.45117892726E+02  0.00000000000E+00 0.  1.
</event>
<event>
 7    1  0.2601031E-009  0.8586694E+02  0.7561462E-02  0.1313181E+00
         -1   -1    0    0    0  501 -0.00000000000E+00  0.00000000000E+00  0.71304412166E+03  0.71304412166E+03  0.00000000000E+00 0.  1.
          1   -1    0    0  501    0  0.00000000000E+00 -0.00000000000E+00 -0.17948096751E+02  0.17948096751E+02  0.00000000000E+00 0. -1.
         25    2    1    2    0    0 -0.29727677154E+02 -0.73852734779E+01  0.40283932956E+03  0.42292450268E+03  0.12508929800E+03 0.  0.
          5    1    3    3  502    0 -0.59162953524E+02  0.20921863956E+02  0.35202951654E+03  0.35760345689E+03  0.41800000000E+01 0.  1.
         -5    1    3    3    0  502  0.29435276369E+02 -0.28307137434E+02  0.50809813016E+02  0.65321045792E+02  0.41800000000E+01 0.  1.
        -11    1    1    2    0    0  0.47961590456E+02 -0.40158179038E+00  0.28140907940E+03  0.28546724049E+03  0.00000000000E+00 0.  1.
         11    1    1    2    0    0 -0.18233913302E+02  0.77868552682E+01  0.10847615957E+02  0.22600475243E+02  0.00000000000E+00 0. -1.
</event>
<event>
 7    1  0.2601031E-009  0.1881115E+03  0.7561462E-02  0.1160176E+00
         -2   -1    0    0    0  501 -0.00000000000E+00  0.00000000000E+00  0.25582806250E+03  0.25582806250E+03  0.00000000000E+00 0.  1.
          2   -1    0    0  501    0  0.00000000000E+00 -0.00000000000E+00 -0.19339330024E+03  0.19339330024E+03  0.00000000000E+00 0. -1.
         25    2    1    2    0    0  0.14578610027E+03 -0.74392860133E+02  0.13721635096E+03  0.24751943592E+03  0.12509859919E+03 0.  0.
          5    1    3    3  502    0  0.66259303037E+02 -0.10192920497E+03  0.77325606508E+02  0.14414083352E+03  0.41800000000E+01 0. -1.
         -5    1    3    3    0  502  0.79526797233E+02  0.27536344837E+02  0.59890744450E+02  0.10337860241E+03  0.41800000000E+01 0. -1.
        -11    1    1    2    0    0 -0.14053325554E+03  0.56156070419E+02 -0.31695288362E+02  0.15462112230E+03  0.00000000000E+00 0.  1.
         11    1    1    2    0    0 -0.52528447291E+01  0.18236789714E+02 -0.43086300336E+02  0.47080804511E+02  0.00000000000E+00 0. -1.
</event>
<event>
 7    1  0.2601031E-009  0.9271319E+02  0.7561462E-02  0.1296411E+00
         -1   -1    0    0    0  501 -0.00000000000E+00  0.00000000000E+00  0.70823551981E+03  0.70823551981E+03  0.00000000000E+00 0.  1.
          1   -1    0    0  501    0  0.00000000000E+00 -0.00000000000E+00 -0.31819782366E+02  0.31819782366E+02  0.00000000000E+00 0. -1.
         25    2    1    2    0    0  0.58664555280E+02 -0.12534407257E+02  0.56982566782E+03  0.58647030096E+03  0.12508989086E+03 0.  0.
          5    1    3    3  502    0  0.71961800084E+02 -0.62457994193E+01  0.56613477439E+03  0.57073949036E+03  0.41800000000E+01 0.  1.
         -5    1    3    3    0  502 -0.13297244804E+02 -0.62886078376E+01  0.36908934263E+01  0.15730810602E+02  0.41800000000E+01 0.  1.
        -11    1    1    2    0    0 -0.76775979062E+02  0.19430688817E+01  0.46133885069E+02  0.89591639281E+02  0.00000000000E+00 0.  1.
         11    1    1    2    0    0  0.18111423782E+02  0.10591338375E+02  0.60456184557E+02  0.63993361930E+02  0.00000000000E+00 0. -1.
</event>
<event>
 7    1  0.2601031E-009  0.1044855E+03  0.7561462E-02  0.1271137E+00
          2   -1    0    0  501    0  0.00000000000E+00  0.00000000000E+00  0.60486798193E+03  0.60486798193E+03  0.00000000000E+00 0. -1.
         -2   -1    0    0    0  501 -0.00000000000E+00 -0.00000000000E+00 -0.24205535028E+02  0.24205535028E+02  0.00000000000E+00 0.  1.
         25    2    1    2    0    0 -0.49930255329E+02  0.17116692563E+02  0.33108452242E+03  0.35784014915E+03  0.12508636934E+03 0.  0.
          5    1    3    3  502    0  0.13200261487E+02  0.45628418073E+02  0.53289674158E+02  0.71508469505E+02  0.41800000000E+01 0. -1.
         -5    1    3    3    0  502 -0.63130516816E+02 -0.28511725510E+02  0.27779484826E+03  0.28633167964E+03  0.41800000000E+01 0. -1.
        -11    1    1    2    0    0  0.16243373952E+02  0.29914861530E+02  0.34325400204E+02  0.48342313110E+02  0.00000000000E+00 0.  1.
         11    1    1    2    0    0  0.33686881376E+02 -0.47031554093E+02  0.21525252428E+03  0.22289105470E+03  0.00000000000E+00 0. -1.
</event>
<event>
 7    1  0.2601031E-009  0.9355324E+02  0.7561462E-02  0.1294468E+00
          2   -1    0    0  501    0  0.00000000000E+00  0.00000000000E+00  0.35245331146E+03  0.35245331146E+03  0.00000000000E+00 0. -1.
         -2   -1    0    0    0  501 -0.00000000000E+00 -0.00000000000E+00 -0.53858501407E+02  0.53858501407E+02  0.00000000000E+00 0.  1.
         25    2    1    2    0    0 -0.41748623469E+02  0.61241345092E+02  0.22519534365E+03  0.26805625860E+03  0.12509102711E+03 0.  0.
          5    1    3    3  502    0 -0.27800504807E+02 -0.15590982039E-01 -0.57385679974E+01  0.28692714637E+02  0.41800000000E+01 0. -1.
         -5    1    3    3    0  502 -0.13948118663E+02  0.61256936074E+02  0.23093391164E+03  0.23936354396E+03  0.41800000000E+01 0. -1.
        -11    1    1    2    0    0  0.28713459968E+02 -0.73019125102E+02  0.18499453312E+02  0.80613182463E+02  0.00000000000E+00 0.  1.
         11    1    1    2    0    0  0.13035163501E+02  0.11777780010E+02  0.54900013096E+02  0.57642371806E+02  0.00000000000E+00 0. -1.
</event>
<event>
 7    1  0.2601031E-009  0.1091214E+03  0.7561462E-02  0.1262206E+00
         -1   -1    0    0    0  501 -0.00000000000E+00  0.00000000000E+00  0.28417675283E+02  0.28417675283E+02  0.00000000000E+00 0.  1.
          1   -1    0    0  501    0  0.00000000000E+00 -0.00000000000E+00 -0.47434796658E+03  0.47434796658E+03  0.00000000000E+00 0. -1.
         25    2    1    2    0    0  0.10086494521E+02 -0.29099856070E+02 -0.31205703308E+03  0.33760644023E+03  0.12509987051E+03 0.  0.
          5    1    3    3  502    0  0.12862871728E+02  0.47972816064E+02 -0.96162536225E+02  0.10831228150E+03  0.41800000000E+01 0.  1.
         -5    1    3    3    0  502 -0.27763772069E+01 -0.77072672134E+02 -0.21589449685E+03  0.22929415874E+03  0.41800000000E+01 0.  1.
        -11    1    1    2    0    0  0.33022988128E+02  0.34452972765E+02 -0.97297555913E+02  0.10837130369E+03  0.00000000000E+00 0. -1.
         11    1    1    2    0    0 -0.43109482649E+02 -0.53531166952E+01 -0.36575702306E+02  0.56787897934E+02  0.00000000000E+00 0.  1.
</event>
<event>
 7    1  0.2601031E-009  0.7420876E+02  0.7561462E-02  0.1346339E+00
          1   -1    0    0  501    0  0.00000000000E+00  0.00000000000E+00  0.23537547693E+03  0.23537547693E+03  0.00000000000E+00 0. -1.
         -1   -1    0    0    0  501 -0.00000000000E+00 -0.00000000000E+00 -0.67340555549E+02  0.67340555549E+02  0.00000000000E+00 0.  1.
         25    2    1    2    0    0  0.53993301053E+02  0.43972650263E+01  0.13347044623E+03  0.19077837807E+03  0.12508963596E+03 0.  0.
          5    1    3    3  502    0  0.48769540693E+02 -0.16248351101E+02 -0.38832607300E+01  0.51720683743E+02  0.41800000000E+01 0.  1.
         -5    1    3    3    0  502  0.52237603593E+01  0.20645616127E+02  0.13735370696E+03  0.13905769433E+03  0.41800000000E+01 0.  1.
        -11    1    1    2    0    0  0.62458594845E+01  0.11280650013E+02 -0.23505703221E+02  0.26810108343E+02  0.00000000000E+00 0.  1.
         11    1    1    2    0    0 -0.60239160537E+02 -0.15677915039E+02  0.58070178374E+02  0.85127546062E+02  0.00000000000E+00 0. -1.
</event>
<event>
 7    1  0.2601031E-009  0.1166550E+03  0.7561462E-02  0.1248720E+00
         -2   -1    0    0    0  501 -0.00000000000E+00  0.00000000000E+00  0.63980482531E+02  0.63980482531E+02  0.00000000000E+00 0. -1.
          2   -1    0    0  501    0  0.00000000000E+00 -0.00000000000E+00 -0.31688813111E+03  0.31688813111E+03  0.00000000000E+00 0.  1.
         25    2    1    2    0    0 -0.56398397572E+02  0.39689999192E+02 -0.56106232211E+02  0.15346803077E+03  0.12509377239E+03 0.  0.
          5    1    3    3  502    0 -0.80937137356E+02  0.64992124056E+02 -0.55906032137E+02  0.11797352763E+03  0.41800000000E+01 0.  1.
         -5    1    3    3    0  502  0.24538739784E+02 -0.25302124864E+02 -0.20020007459E+00  0.35494503136E+02  0.41800000000E+01 0.  1.
        -11    1    1    2    0    0 -0.34615049642E+01  0.13448643899E+02  0.10943982727E+01  0.13930030399E+02  0.00000000000E+00 0. -1.
         11    1    1    2    0    0  0.59859902536E+02 -0.53138643091E+02 -0.19789581464E+03  0.21347055247E+03  0.00000000000E+00 0.  1.
</event>
<event>
 7    1  0.2601031E-009  0.2169070E+03  0.7561462E-02  0.1136210E+00
         -1   -1    0    0    0  501 -0.00000000000E+00  0.00000000000E+00  0.40306024846E+02  0.40306024846E+02  0.00000000000E+00 0.  1.
          1   -1    0    0  501    0  0.00000000000E+00 -0.00000000000E+00 -0.13434428559E+04  0.13434428559E+04  0.00000000000E+00 0. -1.
         25    2    1    2    0    0  0.31315021166E+02 -0.19603790243E+03 -0.83688161956E+03  0.86915448705E+03  0.12508871835E+03 0.  0.
          5    1    3    3  502    0 -0.44735055447E+02 -0.11174641262E+03 -0.46164328850E+03  0.47709588568E+03  0.41800000000E+01 0. -1.
         -5    1    3    3    0  502  0.76050076613E+02 -0.84291489814E+02 -0.37523833106E+03  0.39205860137E+03  0.41800000000E+01 0. -1.
        -11    1    1    2    0    0 -0.25405529984E+02  0.88670416854E+02 -0.32022928114E+03  0.33324867033E+03  0.00000000000E+00 0.  1.
         11    1    1    2    0    0 -0.59094911827E+01  0.10736748558E+03 -0.14602593035E+03  0.18134572336E+03  0.00000000000E+00 0. -1.
</event>
<event>
 7    1  0.2601031E-009  0.1225413E+03  0.7561462E-02  0.1238963E+00
          4   -1    0    0  501    0  0.00000000000E+00  0.00000000000E+00  0.24782642551E+03  0.24782642551E+03  0.00000000000E+00 0. -1.
         -4   -1    0    0    0  501 -0.00000000000E+00 -0.00000000000E+00 -0.79628616481E+02  0.79628616481E+02  0.00000000000E+00 0.  1.
         25    2    1    2    0    0 -0.53567394569E+02  0.40997589696E+02  0.16324064499E+03  0.21643905638E+03  0.12509232123E+03 0.  0.
          5    1    3    3  502    0 -0.52714594627E+02  0.79510321814E+02  0.79812767846E+02  0.12445187854E+03  0.41800000000E+01 0. -1.
         -5    1    3    3    0  502 -0.85279994178E+00 -0.38512732118E+02  0.83427877142E+02  0.91987177842E+02  0.41800000000E+01 0. -1.
        -11    1    1    2    0    0  0.50459040986E+02  0.16633712442E+02  0.42033413765E+01  0.53295996900E+02  0.00000000000E+00 0. -1.
         11    1    1    2    0    0  0.31083535830E+01 -0.57631302139E+02  0.75382266981E+00  0.57719988711E+02  0.00000000000E+00 0.  1.
</event>
<event>
 7    1  0.2601031E-009  0.1136178E+03  0.7561462E-02  0.1254013E+00
         -2   -1    0    0    0  501 -0.00000000000E+00  0.00000000000E+00  0.22620067574E+02  0.22620067574E+02  0.00000000000E+00 0.  1.
          2   -1    0    0  501    0  0.00000000000E+00 -0.00000000000E+00 -0.88027489513E+03  0.88027489513E+03  0.00000000000E+00 0. -1.
         25    2    1    2    0    0  0.15425030129E+02 -0.36565531180E+02 -0.72050851013E+03  0.73236256214E+03  0.12508972633E+03 0.  0.
          5    1    3    3  502    0 -0.35642464136E+02 -0.63741901404E+02 -0.41491687595E+03  0.42131567926E+03  0.41800000000E+01 0.  1.
         -5    1    3    3    0  502  0.51067494265E+02  0.27176370223E+02 -0.30559163417E+03  0.31104688287E+03  0.41800000000E+01 0.  1.
        -11    1    1    2    0    0 -0.48426020171E+02  0.22511040869E+01 -0.42007220983E+02  0.64146344510E+02  0.00000000000E+00 0.  1.
         11    1    1    2    0    0  0.33000990042E+02  0.34314427094E+02 -0.95139096451E+02  0.10638605606E+03  0.00000000000E+00 0. -1.
</event>
<event>
 7    1  0.2601031E-009  0.1582018E+03  0.7561462E-02  0.1190742E+00
          2   -1    0    0  501    0  0.00000000000E+00  0.00000000000E+00  0.14175849676E+03  0.14175849676E+03  0.00000000000E+00 0. -1.
         -2   -1    0    0    0  501 -0.00000000000E+00 -0.00000000000E+00 -0.23932150440E+03  0.23932150440E+03  0.00000000000E+00 0.  1.
         25    2    1    2    0    0  0.14330818262E+03  0.43999827633E+02 -0.73693307973E+02  0.20869104159E+03  0.12509207474E+03 0.  0.
          5    1    3    3  502    0 -0.43805535798E+01  0.14548037286E+02 -0.54603407995E+02  0.56831674296E+02  0.41800000000E+01 0.  1.
         -5    1    3    3    0  502  0.14768873620E+03  0.29451790347E+02 -0.19089899977E+02  0.15185936730E+03  0.41800000000E+01 0.  1.
        -11    1    1    2    0    0 -0.12303700346E+03 -0.35967198881E+02 -0.50671258070E+02  0.13783802091E+03  0.00000000000E+00 0.  1.
         11    1    1    2    0    0 -0.20271179162E+02 -0.80326287513E+01  0.26801558406E+02  0.34550938659E+02  0.00000000000E+00 0. -1.
</event>
<event>
 7    1  0.2601031E-009  0.1652930E+03  0.7561462E-02  0.1182847E+00
          2   -1    0    0  501    0  0.00000000000E+00  0.00000000000E+00  0.11036449360E+03  0.11036449360E+03  0.00000000000E+00 0. -1.
         -2   -1    0    0    0  501 -0.00000000000E+00 -0.00000000000E+00 -0.31636011426E+03  0.31636011426E+03  0.00000000000E+00 0.  1.
         25    2    1    2    0    0 -0.43469180864E+02  0.14565962454E+03 -0.10956985484E+03  0.22529882942E+03  0.12509082118E+03 0.  0.
          5    1    3    3  502    0 -0.36471430759E+02  0.38511271658E+02  0.20113488311E+02  0.56879768973E+02  0.41800000000E+01 0. -1.
         -5    1    3    3    0  502 -0.69977501047E+01  0.10714835288E+03 -0.12968334315E+03  0.16841906045E+03  0.41800000000E+01 0. -1.
        -11    1    1    2    0    0 -0.13747013864E+02 -0.86633566842E+02 -0.77545843498E+02  0.11707994336E+03  0.00000000000E+00 0.  1.
         11    1    1    2    0    0  0.57216194727E+02 -0.59026057698E+02 -0.18879922323E+02  0.84345835068E+02  0.00000000000E+00 0. -1.
</event>
<event>
 7    1  0.2601031E-009  0.1083627E+03  0.7561462E-02  0.1263632E+00
          2   -1    0    0  501    0  0.00000000000E+00  0.00000000000E+00  0.13642351963E+03  0.13642351963E+03  0.00000000000E+00 0. -1.
         -2   -1    0    0    0  501 -0.00000000000E+00 -0.00000000000E+00 -0.15867390806E+03  0.15867390806E+03  0.00000000000E+00 0.  1.
         25    2    1    2    0    0  0.31730684678E+02 -0.87732225394E+02 -0.52096692541E+02  0.16451583147E+03  0.12509042212E+03 0.  0.
          5    1    3    3  502    0  0.47712155620E+02 -0.64571393972E+02 -0.87679838071E+02  0.11895856891E+03  0.41800000000E+01 0. -1.
         -5    1    3    3    0  502 -0.15981470942E+02 -0.23160831423E+02  0.35583145530E+02  0.45557262555E+02  0.41800000000E+01 0. -1.
        -11    1    1    2    0    0  0.72629160392E+01  0.59001734643E+02  0.50428368584E+02  0.77954954931E+02  0.00000000000E+00 0. -1.
         11    1    1    2    0    0 -0.38993600717E+02  0.28730490752E+02 -0.20582064479E+02  0.52626641295E+02  0.00000000000E+00 0.  1.
</event>
<event>
 7    1  0.2601031E-009  0.1009192E+03  0.7561462E-02  0.1278375E+00
         -1   -1    0    0    0  501 -0.00000000000E+00  0.00000000000E+00  0.20760002921E+03  0.20760002921E+03  0.00000000000E+00 0.  1.
          1   -1    0    0  501    0  0.00000000000E+00 -0.00000000000E+00 -0.10947631203E+03  0.10947631203E+03  0.00000000000E+00 0. -1.
         25    2    1    2    0    0 -0.32060784946E+02 -0.53043468809E+02  0.14597070611E+03  0.20198238763E+03  0.12509170379E+03 0.  0.
          5    1    3    3  502    0 -0.66287694520E+02 -0.18543394263E+02  0.13558177845E+03  0.15211116647E+03  0.41800000000E+01 0.  1.
         -5    1    3    3    0  502  0.34226909574E+02 -0.34500074547E+02  0.10388927657E+02  0.49871221166E+02  0.41800000000E+01 0.  1.
        -11    1    1    2    0    0  0.40427923331E+02  0.11938096835E+02  0.10301155453E+02  0.43394111865E+02  0.00000000000E+00 0.  1.
         11    1    1    2    0    0 -0.83671383844E+01  0.41105371975E+02 -0.58148144388E+02  0.71699841741E+02  0.00000000000E+00 0. -1.
</event>
<event>
 7    1  0.2601031E-009  0.1112616E+03  0.7561462E-02  0.1258251E+00
          2   -1    0    0  501    0  0.00000000000E+00  0.00000000000E+00  0.51171422052E+03  0.51171422052E+03  0.00000000000E+00 0. -1.
         -2   -1    0    0    0  501 -0.00000000000E+00 -0.00000000000E+00 -0.25184256967E+02  0.25184256967E+02  0.00000000000E+00 0.  1.
         25    2    1    2    0    0  0.19316873604E+02  0.33586429633E+02  0.29601652065E+03  0.32368942708E+03  0.12509146593E+03 0.  0.
          5    1    3    3  502    0  0.68072800803E+02  0.91885627864E+00  0.19743674338E+03  0.20888631009E+03  0.41800000000E+01 0.  1.
         -5    1    3    3    0  502 -0.48755927199E+02  0.32667573354E+02  0.98579777269E+02  0.11480311700E+03  0.41800000000E+01 0.  1.
        -11    1    1    2    0    0 -0.24779112345E+01  0.29795498700E+02  0.66884304055E+02  0.73262691158E+02  0.00000000000E+00 0. -1.
         11    1    1    2    0    0 -0.16838962370E+02 -0.63381928333E+02  0.12362913885E+03  0.13994635924E+03  0.00000000000E+00 0.  1.
</event>
<event>
 7    1  0.2601031E-009  0.1109734E+03  0.7561462E-02  0.1258778E+00
          1   -1    0    0  501    0  0.00000000000E+00  0.00000000000E+00  0.18984156237E+03  0.18984156237E+03  0.00000000000E+00 0. -1.
         -1   -1    0    0    0  501 -0.00000000000E+00 -0.00000000000E+00 -0.96839311829E+02  0.96839311829E+02  0.00000000000E+00 0.  1.
         25    2    1    2    0    0  0.60532080898E+02  0.53564869730E+02  0.39321918469E+02  0.15403542949E+03  0.12508945670E+03 0.  0.
          5    1    3    3  502    0  0.86643494783E+02  0.12256257137E+02  0.53909866240E+02  0.10286426544E+03  0.41800000000E+01 0. -1.
         -5    1    3    3    0  502 -0.26111413885E+02  0.41308612593E+02 -0.14587947771E+02  0.51171164044E+02  0.41800000000E+01 0. -1.
        -11    1    1    2    0    0 -0.32135064680E+02 -0.45627143118E+02  0.76968885621E+02  0.95072119598E+02  0.00000000000E+00 0. -1.
         11    1    1    2    0    0 -0.28397016218E+02 -0.79377266123E+01 -0.23288553547E+02  0.37573325114E+02  0.00000000000E+00 0.  1.
</event>
<event>
 7    1  0.2601031E-009  0.1115536E+03  0.7561462E-02  0.1257720E+00
         -3   -1    0    0    0  501 -0.00000000000E+00  0.00000000000E+00  0.97288951406E+02  0.97288951406E+02  0.00000000000E+00 0.  1.
          3   -1    0    0  501    0  0.00000000000E+00 -0.00000000000E+00 -0.17152734265E+03  0.17152734265E+03  0.00000000000E+00 0. -1.
         25    2    1    2    0    0  0.36243853054E+01  0.55696638535E+02 -0.83599820216E+02  0.16045924769E+03  0.12507193336E+03 0.  0.
          5    1    3    3  502    0  0.52855641429E+02  0.35935413686E+01 -0.40515526503E+01  0.53296527554E+02  0.41800000000E+01 0.  1.
         -5    1    3    3    0  502 -0.49231256123E+02  0.52103097166E+02 -0.79548267566E+02  0.10716272013E+03  0.41800000000E+01 0.  1.
        -11    1    1    2    0    0  0.36913084005E+02 -0.40678807346E+02  0.27555623899E+02  0.61454483533E+02  0.00000000000E+00 0.  1.
         11    1    1    2    0    0 -0.40537469310E+02 -0.15017831189E+02 -0.18194194931E+02  0.46902562839E+02  0.00000000000E+00 0. -1.
</event>
<event>
 7    1  0.2601031E-009  0.2766361E+03  0.7561462E-02  0.1097541E+00
          1   -1    0    0  501    0  0.00000000000E+00  0.00000000000E+00  0.39443882269E+03  0.39443882269E+03  0.00000000000E+00 0. -1.
         -1   -1    0    0    0  501 -0.00000000000E+00 -0.00000000000E+00 -0.21210295114E+03  0.21210295114E+03  0.00000000000E+00 0.  1.
         25    2    1    2    0    0  0.82314662259E+02  0.24969210891E+03  0.15188713478E+03  0.32838941467E+03  0.12509217834E+03 0.  0.
          5    1    3    3  502    0  0.80776961535E+02  0.60670115581E+02  0.65829289494E+02  0.12065134974E+03  0.41800000000E+01 0. -1.
         -5    1    3    3    0  502  0.15377007233E+01  0.18902199333E+03  0.86057845282E+02  0.20773806493E+03  0.41800000000E+01 0. -1.
        -11    1    1    2    0    0 -0.59954533597E+02 -0.19475324856E+03  0.59253848313E+02  0.21221308269E+03  0.00000000000E+00 0. -1.
         11    1    1    2    0    0 -0.22360128662E+02 -0.54938860351E+02 -0.28805111541E+02  0.65939276469E+02  0.00000000000E+00 0.  1.
</event>
<event>
 7    1  0.2601031E-009  0.9543799E+02  0.7561462E-02  0.1290193E+00
         -2   -1    0    0    0  501 -0.00000000000E+00  0.00000000000E+00  0.12344274379E+03  0.12344274379E+03  0.00000000000E+00 0.  1.
          2   -1    0    0  501    0  0.00000000000E+00 -0.00000000000E+00 -0.17750439283E+03  0.17750439283E+03  0.00000000000E+00 0. -1.
         25    2    1    2    0    0 -0.43947764615E+02  0.21014217177E+02  0.60038700246E+02  0.14705681932E+03  0.12509220297E+03 0.  0.
          5    1    3    3  502    0 -0.31433409834E+02 -0.50988360994E+02  0.18199304521E+02  0.62742005831E+02  0.41800000000E+01 0. -1.
         -5    1    3    3    0  502 -0.12514354780E+02  0.72002578172E+02  0.41839395725E+02  0.84314813489E+02  0.41800000000E+01 0. -1.
        -11    1    1    2    0    0  0.66916061370E+01 -0.19196688457E+02  0.11162006979E+02  0.23192258196E+02  0.00000000000E+00 0.  1.
         11    1    1    2    0    0  0.37256158478E+02 -0.18175287203E+01 -0.12526235627E+03  0.13069805910E+03  0.00000000000E+00 0. -1.
</event>
<event>
 7    1  0.2601031E-009  0.1190391E+03  0.7561462E-02  0.1244691E+00
          3   -1    0    0  501    0  0.00000000000E+00  0.00000000000E+00  0.19825123482E+03  0.19825123482E+03  0.00000000000E+00 0. -1.
         -3   -1    0    0    0  501 -0.00000000000E+00 -0.00000000000E+00 -0.10983117957E+03  0.10983117957E+03  0.00000000000E+00 0.  1.
         25    2    1    2    0    0  0.29970566426E-01  0.93682844246E+02  0.13990130396E+02  0.15690968970E+03  0.12509376791E+03 0.  0.
          5    1    3    3  502    0 -0.25751171527E+02  0.57380928010E+02  0.63994504764E+02  0.89824622316E+02  0.41800000000E+01 0. -1.
         -5    1    3    3    0  502  0.25781142093E+02  0.36301916236E+02 -0.50004374368E+02  0.67085067385E+02  0.41800000000E+01 0. -1.
        -11    1    1    2    0    0 -0.45312187220E+02 -0.46319743383E+02  0.26591273086E+02  0.70041478725E+02  0.00000000000E+00 0.  1.
         11    1    1    2    0    0  0.45282216653E+02 -0.47363100863E+02  0.47838651773E+02  0.81131245965E+02  0.00000000000E+00 0. -1.
</event>
<event>
 7    1  0.2601031E-009  0.1055930E+03  0.7561462E-02  0.1268956E+00
          4   -1    0    0  501    0  0.00000000000E+00  0.00000000000E+00  0.34112637880E+02  0.34112637880E+02  0.00000000000E+00 0. -1.
         -4   -1    0    0    0  501 -0.00000000000E+00 -0.00000000000E+00 -0.46639031033E+03  0.46639031033E+03  0.00000000000E+00 0.  1.
         25    2    1    2    0    0 -0.49950792847E+02  0.43313935688E+01 -0.23316607526E+03  0.26931075851E+03  0.12509205938E+03 0.  0.
          5    1    3    3  502    0 -0.50870112716E+02  0.58046201649E+02 -0.16668079777E+03  0.18373102797E+03  0.41800000000E+01 0.  1.
         -5    1    3    3    0  502  0.91931986908E+00 -0.53714808080E+02 -0.66485277497E+02  0.85579730543E+02  0.41800000000E+01 0.  1.
        -11    1    1    2    0    0  0.58816463431E+02  0.13272132795E+02 -0.20241743503E+03  0.21120687462E+03  0.00000000000E+00 0.  1.
         11    1    1    2    0    0 -0.88656705842E+01 -0.17603526364E+02  0.33058378424E+01  0.19985315089E+02  0.00000000000E+00 0. -1.
</event>
<event>
 7    1  0.2601031E-009  0.1013326E+03  0.7561462E-02  0.1277518E+00
         -2   -1    0    0    0  501 -0.00000000000E+00  0.00000000000E+00  0.99792940363E+02  0.99792940363E+02  0.00000000000E+00 0.  1.
          2   -1    0    0  501    0  0.00000000000E+00 -0.00000000000E+00 -0.15123720674E+03  0.15123720674E+03  0.00000000000E+00 0. -1.
         25    2    1    2    0    0 -0.16689657079E+02 -0.34175625777E+02 -0.57542921035E+02  0.14284954379E+03  0.12509311072E+03 0.  0.
          5    1    3    3  502    0  0.24346005847E+02  0.19145742719E+02  0.22270232026E+02  0.38376074570E+02  0.41800000000E+01 0. -1.
         -5    1    3    3    0  502 -0.41035662926E+02 -0.53321368496E+02 -0.79813153061E+02  0.10447346922E+03  0.41800000000E+01 0. -1.
        -11    1    1    2    0    0 -0.32101691766E+02 -0.14369612424E+02  0.16009098758E+02  0.38643183338E+02  0.00000000000E+00 0. -1.
         11    1    1    2    0    0  0.48791348844E+02  0.48545238201E+02 -0.99104440991E+01  0.69537419971E+02  0.00000000000E+00 0.  1.
</event>
<event>
 7    1  0.2601031E-009  0.9417194E+02  0.7561462E-02  0.1293052E+00
         -2   -1    0    0    0  501 -0.00000000000E+00  0.00000000000E+00  0.17806781734E+02  0.17806781734E+02  0.00000000000E+00 0.  1.
          2   -1    0    0  501    0  0.00000000000E+00 -0.00000000000E+00 -0.73767047491E+03  0.73767047491E+03  0.00000000000E+00 0. -1.
         25    2    1    2    0    0  0.34190929508E+02  0.14840953285E+02 -0.47342022953E+03  0.49108246098E+03  0.12508395662E+03 0.  0.
          5    1    3    3  502    0 -0.21964518709E+02 -0.17170570642E+02 -0.24015044622E+02  0.37033273505E+02  0.41800000000E+01 0. -1.
         -5    1    3    3    0  502  0.56155448217E+02  0.32011523927E+02 -0.44940518491E+03  0.45404918748E+03  0.41800000000E+01 0. -1.
        -11    1    1    2    0    0 -0.60893713583E+02 -0.26288314897E+02 -0.16012007206E+03  0.17331346552E+03  0.00000000000E+00 0.  1.
         11    1    1    2    0    0  0.26702784075E+02  0.11447361613E+02 -0.86323391587E+02  0.91081330142E+02  0.00000000000E+00 0. -1.
</event>
<event>
 7    1  0.2601031E-009  0.1375967E+03  0.7561462E-02  0.1216600E+00
          2   -1    0    0  501    0  0.00000000000E+00  0.00000000000E+00  0.22656652687E+02  0.22656652687E+02  0.00000000000E+00 0. -1.
         -2   -1    0    0    0  501 -0.00000000000E+00 -0.00000000000E+00 -0.12454019874E+04  0.12454019874E+04  0.00000000000E+00 0.  1.
         25    2    1    2    0    0 -0.81713594565E+02 -0.53159320849E+02 -0.10114481562E+04  0.10238052888E+04  0.12508745690E+03 0.  0.
          5    1    3    3  502    0 -0.85092223568E+01  0.39385562520E+02 -0.26195906267E+03  0.26507291886E+03  0.41800000000E+01 0.  1.
         -5    1    3    3    0  502 -0.73204372209E+02 -0.92544883369E+02 -0.74948909351E+03  0.75873236997E+03  0.41800000000E+01 0.  1.
        -11    1    1    2    0    0  0.71797104810E+02  0.10194914733E+02 -0.92502152371E+02  0.11753896689E+03  0.00000000000E+00 0. -1.
         11    1    1    2    0    0  0.99164897557E+01  0.42964406116E+02 -0.11879502613E+03  0.12671438432E+03  0.00000000000E+00 0.  1.
</event>
<event>
 7    1  0.2601031E-009  0.1384819E+03  0.7561462E-02  0.1215386E+00
         -1   -1    0    0    0  501 -0.00000000000E+00  0.00000000000E+00  0.81637528771E+02  0.81637528771E+02  0.00000000000E+00 0.  1.
          1   -1    0    0  501    0  0.00000000000E+00 -0.00000000000E+00 -0.42910742215E+03  0.42910742215E+03  0.00000000000E+00 0. -1.
         25    2    1    2    0    0  0.11519331607E+03 -0.51794018406E+02 -0.29941708714E+03  0.34820447394E+03  0.12507455054E+03 0.  0.
          5    1    3    3  502    0  0.49520733215E+02 -0.56448991557E+02 -0.26153019311E+03  0.27212920823E+03  0.41800000000E+01 0. -1.
         -5    1    3    3    0  502  0.65672582852E+02  0.46549731515E+01 -0.37886894032E+02  0.76075265711E+02  0.41800000000E+01 0. -1.
        -11    1    1    2    0    0 -0.35407170361E+02 -0.77312843141E+01  0.20534830129E+02  0.41654768257E+02  0.00000000000E+00 0.  1.
         11    1    1    2    0    0 -0.79786145706E+02  0.59525302720E+02 -0.68587636367E+02  0.12088570872E+03  0.00000000000E+00 0. -1.
</event>
<event>
 7    1  0.2601031E-009  0.1220136E+03  0.7561462E-02  0.1239812E+00
          1   -1    0    0  501    0  0.00000000000E+00  0.00000000000E+00  0.34824225535E+03  0.34824225535E+03  0.00000000000E+00 0. -1.
         -1   -1    0    0    0  501 -0.00000000000E+00 -0.00000000000E+00 -0.67479680370E+02  0.67479680370E+02  0.00000000000E+00 0.  1.
         25    2    1    2    0    0 -0.73781808770E+02 -0.72820411222E+02  0.10585510777E+03  0.19390582061E+03  0.12509035067E+03 0.  0.
          5    1    3    3  502    0 -0.11269099422E+02 -0.29940053891E+02 -0.26213972330E+02  0.41569750710E+02  0.41800000000E+01 0.  1.
         -5    1    3    3    0  502 -0.62512709348E+02 -0.42880357331E+02  0.13206908010E+03  0.15233606990E+03  0.41800000000E+01 0.  1.
        -11    1    1    2    0    0  0.66511661381E+02  0.39912401071E+01  0.75642415506E+02  0.10080429614E+03  0.00000000000E+00 0.  1.
         11    1    1    2    0    0  0.72701473889E+01  0.68829171115E+02  0.99265051709E+02  0.12101181897E+03  0.00000000000E+00 0. -1.
</event>
<event>
 7    1  0.2601031E-009  0.1336040E+03  0.7561462E-02  0.1222204E+00
          1   -1    0    0  501    0  0.00000000000E+00  0.00000000000E+00  0.94218374146E+03  0.94218374146E+03  0.00000000000E+00 0. -1.
         -1   -1    0    0    0  501 -0.00000000000E+00 -0.00000000000E+00 -0.28962384329E+02  0.28962384329E+02  0.00000000000E+00 0.  1.
         25    2    1    2    0    0 -0.14426186188E+02  0.10892725093E+03  0.65858618673E+03  0.67930615719E+03  0.12509128272E+03 0.  0.
          5    1    3    3  502    0  0.24479140052E+02  0.44598143393E+01  0.23443024055E+02  0.34440761003E+02  0.41800000000E+01 0. -1.
         -5    1    3    3    0  502 -0.38905326240E+02  0.10446743659E+03  0.63514316267E+03  0.64486539619E+03  0.41800000000E+01 0. -1.
        -11    1    1    2    0    0  0.21479161840E+02 -0.11742806865E+03  0.25414273964E+03  0.28078325771E+03  0.00000000000E+00 0. -1.
         11    1    1    2    0    0 -0.70529756526E+01  0.85008177175E+01  0.49243076313E+00  0.11056710880E+02  0.00000000000E+00 0.  1.
</event>
<event>
 7    1  0.2601031E-009  0.1168909E+03  0.7561462E-02  0.1248316E+00
          2   -1    0    0  501    0  0.00000000000E+00  0.00000000000E+00  0.62916350509E+02  0.62916350509E+02  0.00000000000E+00 0. -1.
         -2   -1    0    0    0  501 -0.00000000000E+00 -0.00000000000E+00 -0.34200926920E+03  0.34200926920E+03  0.00000000000E+00 0.  1.
         25    2    1    2    0    0 -0.66114579737E+02 -0.69905795990E+02 -0.12777962814E+03  0.20306157065E+03  0.12509360552E+03 0.  0.
          5    1    3    3  502    0 -0.15741779090E+02 -0.82301493728E+02 -0.24486080219E+02  0.87397826079E+02  0.41800000000E+01 0.  1.
         -5    1    3    3    0  502 -0.50372800647E+02  0.12395697738E+02 -0.10329354792E+03  0.11566374457E+03  0.41800000000E+01 0.  1.
        -11    1    1    2    0    0  0.61002856629E+02  0.55194834057E+02 -0.16287206775E+03  0.18246952807E+03  0.00000000000E+00 0.  1.
         11    1    1    2    0    0  0.51117231082E+01  0.14710961933E+02  0.11558777189E+02  0.19394520985E+02  0.00000000000E+00 0. -1.
</event>
<event>
 7    1  0.2871449E-009  0.6828186E+02  0.7561462E-02  0.1366035E+00
         -1   -1    0    0    0  501 -0.00000000000E+00  0.00000000000E+00  0.19404355668E+03  0.19404355668E+03  0.00000000000E+00 0.  1.
          1   -1    0    0  501    0  0.00000000000E+00 -0.00000000000E+00 -0.74001610349E+02  0.74001610349E+02  0.00000000000E+00 0. -1.
         25    2    1    2    0    0  0.11065447819E+02  0.22600280140E+02  0.18156165658E+02  0.12887572594E+03  0.12508432990E+03 0.  0.
          5    1    3    3  502    0 -0.25967677421E+02 -0.27799718682E+02 -0.30973576923E+02  0.49233926279E+02  0.41800000000E+01 0.  1.
         -5    1    3    3    0  502  0.37033125241E+02  0.50399998822E+02  0.49129742582E+02  0.79641799656E+02  0.41800000000E+01 0.  1.
        -11    1    1    2    0    0 -0.18657188342E+02 -0.10735812169E+02  0.11673463799E+03  0.11870267076E+03  0.00000000000E+00 0.  1.
         11    1    1    2    0    0  0.75917405228E+01 -0.11864467971E+02 -0.14848857313E+02  0.20466770334E+02  0.00000000000E+00 0. -1.
</event>
<event>
 7    1  0.2601031E-009  0.1047544E+03  0.7561462E-02  0.1270604E+00
         -2   -1    0    0    0  501 -0.00000000000E+00  0.00000000000E+00  0.19264587546E+02  0.19264587546E+02  0.00000000000E+00 0.  1.
          2   -1    0    0  501    0  0.00000000000E+00 -0.00000000000E+00 -0.75208619563E+03  0.75208619563E+03  0.00000000000E+00 0. -1.
         25    2    1    2    0    0  0.27700858833E+02  0.42702169899E+02 -0.44600971616E+03  0.46600884355E+03  0.12509501374E+03 0.  0.
          5    1    3    3  502    0  0.50822796565E+02 -0.10902522655E+02 -0.80984974353E+02  0.96321649289E+02  0.41800000000E+01 0. -1.
         -5    1    3    3    0  502 -0.23121937732E+02  0.53604692554E+02 -0.36502474181E+03  0.36968719426E+03  0.41800000000E+01 0. -1.
        -11    1    1    2    0    0  0.22173672792E+02  0.11665315472E+02 -0.35690816564E+02  0.43607175294E+02  0.00000000000E+00 0.  1.
         11    1    1    2    0    0 -0.49874531625E+02 -0.54367485371E+02 -0.25112107536E+03  0.26173476433E+03  0.00000000000E+00 0. -1.
</event>
<event>
 7    1  0.2601031E-009  0.1143223E+03  0.7561462E-02  0.1252769E+00
          2   -1    0    0  501    0  0.00000000000E+00  0.00000000000E+00  0.68309432288E+03  0.68309432288E+03  0.00000000000E+00 0. -1.
         -2   -1    0    0    0  501 -0.00000000000E+00 -0.00000000000E+00 -0.27301015084E+02  0.27301015084E+02  0.00000000000E+00 0.  1.
         25    2    1    2    0    0 -0.17882103367E+02 -0.55601147366E+02  0.31998044434E+03  0.34849073980E+03  0.12508818393E+03 0.  0.
          5    1    3    3  502    0 -0.57556790721E+02 -0.63423832732E+02  0.14162868369E+03  0.16556425689E+03  0.41800000000E+01 0.  1.
         -5    1    3    3    0  502  0.39674687354E+02  0.78226853666E+01  0.17835176065E+03  0.18292648291E+03  0.41800000000E+01 0.  1.
        -11    1    1    2    0    0  0.30937722480E+02 -0.12154708569E+02  0.20330247487E+02  0.38964067749E+02  0.00000000000E+00 0.  1.
         11    1    1    2    0    0 -0.13055619113E+02  0.67755855934E+02  0.31548261598E+03  0.32294053042E+03  0.00000000000E+00 0. -1.
</event>
<event>
 7    1  0.2601031E-009  0.1332334E+03  0.7561462E-02  0.1222735E+00
          1   -1    0    0  501    0  0.00000000000E+00  0.00000000000E+00  0.25198297480E+03  0.25198297480E+03  0.00000000000E+00 0. -1.
         -1   -1    0    0    0  501 -0.00000000000E+00 -0.00000000000E+00 -0.93745543932E+02  0.93745543932E+02  0.00000000000E+00 0.  1.
         25    2    1    2    0    0 -0.89554552722E+02 -0.20248986080E+02  0.12428302497E+03  0.19880430576E+03  0.12508733885E+03 0.  0.
          5    1    3    3  502    0 -0.68620104027E+02 -0.71768635403E+02  0.81026220496E+02  0.12822705063E+03  0.41800000000E+01 0.  1.
         -5    1    3    3    0  502 -0.20934448694E+02  0.51519649323E+02  0.43256804474E+02  0.70577255131E+02  0.41800000000E+01 0.  1.
        -11    1    1    2    0    0  0.72712810625E+02  0.41873158505E+02 -0.20132194119E+02  0.86289161963E+02  0.00000000000E+00 0.  1.
         11    1    1    2    0    0  0.16841742097E+02 -0.21624172425E+02  0.54086600017E+02  0.60635051013E+02  0.00000000000E+00 0. -1.
</event>
<event>
 7    1  0.2601031E-009  0.8986150E+02  0.7561462E-02  0.1303187E+00
         -1   -1    0    0    0  501 -0.00000000000E+00  0.00000000000E+00  0.22917421962E+03  0.22917421962E+03  0.00000000000E+00 0.  1.
          1   -1    0    0  501    0  0.00000000000E+00 -0.00000000000E+00 -0.58783672160E+02  0.58783672160E+02  0.00000000000E+00 0. -1.
         25    2    1    2    0    0 -0.35075786469E+02 -0.12585475974E+02  0.12305615275E+03  0.17938457809E+03  0.12508918868E+03 0.  0.
          5    1    3    3  502    0  0.46284068891E+02 -0.22208744919E+01  0.59553153843E+02  0.75572467534E+02  0.41800000000E+01 0.  1.
         -5    1    3    3    0  502 -0.81359855360E+02 -0.10364601482E+02  0.63502998904E+02  0.10381211055E+03  0.41800000000E+01 0.  1.
        -11    1    1    2    0    0  0.20199721615E+02 -0.11141723987E+02  0.69263551158E+02  0.73004152524E+02  0.00000000000E+00 0.  1.
         11    1    1    2    0    0  0.14876064854E+02  0.23727199961E+02 -0.21929156447E+02  0.35569161165E+02  0.00000000000E+00 0. -1.
</event>
<event>
 7    1  0.2601031E-009  0.9984610E+02  0.7561462E-02  0.1280620E+00
         -1   -1    0    0    0  501 -0.00000000000E+00  0.00000000000E+00  0.31548054153E+02  0.31548054153E+02  0.00000000000E+00 0.  1.
          1   -1    0    0  501    0  0.00000000000E+00 -0.00000000000E+00 -0.40955897894E+03  0.40955897894E+03  0.00000000000E+00 0. -1.
         25    2    1    2    0    0 -0.30400038261E+02 -0.12134016636E+02 -0.20010083036E+03  0.23824185655E+03  0.12508974065E+03 0.  0.
          5    1    3    3  502    0 -0.26798827697E+01  0.42000283121E+02 -0.15946350254E+03  0.16497662440E+03  0.41800000000E+01 0.  1.
         -5    1    3    3    0  502 -0.27720155491E+02 -0.54134299756E+02 -0.40637327815E+02  0.73265232153E+02  0.41800000000E+01 0.  1.
        -11    1    1    2    0    0 -0.23905510459E+02 -0.21840003546E+02 -0.74348892945E+02  0.81093878112E+02  0.00000000000E+00 0. -1.
         11    1    1    2    0    0  0.54305548720E+02  0.33974020181E+02 -0.10356120149E+03  0.12177129844E+03  0.00000000000E+00 0.  1.
</event>
<event>
 7    1  0.2809855E-009  0.1319063E+03  0.7561462E-02  0.1224654E+00
         -1   -1    0    0    0  501 -0.00000000000E+00  0.00000000000E+00  0.32566841321E+02  0.32566841321E+02  0.00000000000E+00 0.  1.
          1   -1    0    0  501    0  0.00000000000E+00 -0.00000000000E+00 -0.89230830237E+03  0.89230830237E+03  0.00000000000E+00 0. -1.
         25    2    1    2    0    0 -0.12201244333E+02  0.12337277501E+03 -0.34070962793E+03  0.38353660062E+03  0.12509021333E+03 0.  0.
          5    1    3    3  502    0  0.22445193715E+01  0.75883452127E+02 -0.32113861449E+03  0.33001639094E+03  0.41800000000E+01 0.  1.
         -5    1    3    3    0  502 -0.14445763704E+02  0.47489322883E+02 -0.19571013445E+02  0.53520209679E+02  0.41800000000E+01 0.  1.
        -11    1    1    2    0    0 -0.13157089973E+02 -0.10694870533E+03 -0.48018095862E+03  0.49212283793E+03  0.00000000000E+00 0. -1.
         11    1    1    2    0    0  0.25358334306E+02 -0.16424069682E+02 -0.38850874494E+02  0.49215705142E+02  0.00000000000E+00 0.  1.
</event>
<event>
 7    1  0.2601031E-009  0.1430440E+03  0.7561462E-02  0.1209291E+00
          1   -1    0    0  501    0  0.00000000000E+00  0.00000000000E+00  0.14406454666E+03  0.14406454666E+03  0.00000000000E+00 0. -1.
         -1   -1    0    0    0  501 -0.00000000000E+00 -0.00000000000E+00 -0.28371129536E+03  0.28371129536E+03  0.00000000000E+00 0.  1.
         25    2    1    2    0    0  0.95247358083E+02 -0.34276787592E+02 -0.21882631196E+03  0.27162367853E+03  0.12509000977E+03 0.  0.
          5    1    3    3  502    0  0.80189634539E+02 -0.77822970878E+02 -0.13004568125E+03  0.17151135209E+03  0.41800000000E+01 0.  1.
         -5    1    3    3    0  502  0.15057723544E+02  0.43546183286E+02 -0.88780630706E+02  0.10011232644E+03  0.41800000000E+01 0.  1.
        -11    1    1    2    0    0 -0.67334185859E+02  0.59891043790E+02  0.76439614550E+02  0.11816871153E+03  0.00000000000E+00 0.  1.
         11    1    1    2    0    0 -0.27913172224E+02 -0.25614256198E+02  0.27399487102E+01  0.37983451964E+02  0.00000000000E+00 0. -1.
</event>
<event>
 7    1  0.2601031E-009  0.1374670E+03  0.7561462E-02  0.1216778E+00
          2   -1    0    0  501    0  0.00000000000E+00  0.00000000000E+00  0.96627539894E+02  0.96627539894E+02  0.00000000000E+00 0. -1.
         -2   -1    0    0    0  501 -0.00000000000E+00 -0.00000000000E+00 -0.25147326893E+03  0.25147326893E+03  0.00000000000E+00 0.  1.
         25    2    1    2    0    0  0.41986568312E+02  0.97998994825E+02 -0.48713145745E+02  0.17142678454E+03  0.12508995556E+03 0.  0.
          5    1    3    3  502    0  0.13346079803E+02 -0.28440907809E+02 -0.23082923443E+02  0.39208377137E+02  0.41800000000E+01 0. -1.
         -5    1    3    3    0  502  0.28640488510E+02  0.12643990263E+03 -0.25630222303E+02  0.13221840740E+03  0.41800000000E+01 0. -1.
        -11    1    1    2    0    0 -0.42637948295E+02 -0.50780892226E+02 -0.11090032021E+03  0.12921135660E+03  0.00000000000E+00 0.  1.
         11    1    1    2    0    0  0.65137998234E+00 -0.47218102599E+02  0.47677369225E+01  0.47462667691E+02  0.00000000000E+00 0. -1.
</event>
<event>
 7    1  0.2601031E-009  0.1400546E+03  0.7561462E-02  0.1213255E+00
          1   -1    0    0  501    0  0.00000000000E+00  0.00000000000E+00  0.34561873142E+03  0.34561873142E+03  0.00000000000E+00 0. -1.
         -1   -1    0    0    0  501 -0.00000000000E+00 -0.00000000000E+00 -0.70001567274E+02  0.70001567274E+02  0.00000000000E+00 0.  1.
         25    2    1    2    0    0  0.95159628825E+02 -0.22510072858E+02  0.76008826157E+02  0.17602940540E+03  0.12508777548E+03 0.  0.
          5    1    3    3  502    0 -0.25073311529E+02 -0.76537192791E+01 -0.89356189157E+01  0.28010142007E+02  0.41800000000E+01 0. -1.
         -5    1    3    3    0  502  0.12023294035E+03 -0.14856353579E+02  0.84944445072E+02  0.14801926340E+03  0.41800000000E+01 0. -1.
        -11    1    1    2    0    0 -0.26073760857E+02 -0.34169973257E+02  0.59201883065E+02  0.73159353716E+02  0.00000000000E+00 0.  1.
         11    1    1    2    0    0 -0.69085867969E+02  0.56680046115E+02  0.14040645492E+03  0.16643153957E+03  0.00000000000E+00 0. -1.
</event>
<event>
 7    1  0.2601031E-009  0.2459773E+03  0.7561462E-02  0.1115874E+00
          2   -1    0    0  501    0  0.00000000000E+00  0.00000000000E+00  0.87517560617E+02  0.87517560617E+02  0.00000000000E+00 0. -1.
         -2   -1    0    0    0  501 -0.00000000000E+00 -0.00000000000E+00 -0.69381397995E+03  0.69381397995E+03  0.00000000000E+00 0.  1.
         25    2    1    2    0    0  0.11861294281E+03 -0.18598922011E+03 -0.28991736857E+03  0.38517582429E+03  0.12508922744E+03 0.  0.
          5    1    3    3  502    0  0.10178275133E+03 -0.44788776363E+02 -0.12347438341E+03  0.16622021151E+03  0.41800000000E+01 0. -1.
         -5    1    3    3    0  502  0.16830191483E+02 -0.14120044375E+03 -0.16644298516E+03  0.21895561279E+03  0.41800000000E+01 0. -1.
        -11    1    1    2    0    0 -0.71028260588E+02  0.17599915770E+03 -0.25296233297E+03  0.31624461927E+03  0.00000000000E+00 0. -1.
         11    1    1    2    0    0 -0.47584682222E+02  0.99900624153E+01 -0.63416717795E+02  0.79911097009E+02  0.00000000000E+00 0.  1.
</event>
<event>
 7    1  0.2601031E-009  0.1108524E+03  0.7561462E-02  0.1259000E+00
          1   -1    0    0  501    0  0.00000000000E+00  0.00000000000E+00  0.94936660510E+03  0.94936660510E+03  0.00000000000E+00 0. -1.
         -1   -1    0    0    0  501 -0.00000000000E+00 -0.00000000000E+00 -0.18338998559E+02  0.18338998559E+02  0.00000000000E+00 0.  1.
         25    2    1    2    0    0  0.48434442794E+02  0.27890965906E+02  0.75262797072E+03  0.76499794549E+03  0.12509673482E+03 0.  0.
          5    1    3    3  502    0 -0.16629305461E+02 -0.39570658568E+02  0.24856334051E+03  0.25227678741E+03  0.41800000000E+01 0.  1.
         -5    1    3    3    0  502  0.65063748256E+02  0.67461624474E+02  0.50406463021E+03  0.51272115808E+03  0.41800000000E+01 0.  1.
        -11    1    1    2    0    0 -0.27446826470E+02 -0.48256772732E+02  0.64443631180E+02  0.85058956010E+02  0.00000000000E+00 0.  1.
         11    1    1    2    0    0 -0.20987616324E+02  0.20365806826E+02  0.11395600464E+03  0.11764870216E+03  0.00000000000E+00 0. -1.
</event>
<event>
 7    1  0.2601031E-009  0.1126624E+03  0.7561462E-02  0.1255717E+00
         -2   -1    0    0    0  501 -0.00000000000E+00  0.00000000000E+00  0.32540809129E+02  0.32540809129E+02  0.00000000000E+00 0.  1.
          2   -1    0    0  501    0  0.00000000000E+00 -0.00000000000E+00 -0.49731501382E+03  0.49731501382E+03  0.00000000000E+00 0. -1.
         25    2    1    2    0    0  0.40331054254E+02  0.55187949271E+02 -0.29337100162E+03  0.32616954592E+03  0.12509086464E+03 0.  0.
          5    1    3    3  502    0 -0.30342548235E+02  0.20196087555E+02 -0.20345237374E+02  0.41951796978E+02  0.41800000000E+01 0. -1.
         -5    1    3    3    0  502  0.70673602489E+02  0.34991861716E+02 -0.27302576424E+03  0.28421774895E+03  0.41800000000E+01 0. -1.
        -11    1    1    2    0    0  0.26815894531E+02 -0.22394458182E+02 -0.62671274398E+02  0.71751603407E+02  0.00000000000E+00 0. -1.
         11    1    1    2    0    0 -0.67146948786E+02 -0.32793491089E+02 -0.10873192867E+03  0.13193467362E+03  0.00000000000E+00 0.  1.
</event>
<event>
 7    1  0.2601031E-009  0.9367629E+02  0.7561462E-02  0.1294186E+00
          1   -1    0    0  501    0  0.00000000000E+00  0.00000000000E+00  0.37897604053E+03  0.37897604053E+03  0.00000000000E+00 0. -1.
         -1   -1    0    0    0  501 -0.00000000000E+00 -0.00000000000E+00 -0.40685034948E+02  0.40685034948E+02  0.00000000000E+00 0.  1.
         25    2    1    2    0    0 -0.15296304084E+02 -0.48172914992E+02  0.24367551574E+03  0.27853206597E+03  0.12509095948E+03 0.  0.
          5    1    3    3  502    0  0.58940664184E+01 -0.88635740579E+02  0.16625090224E+03  0.18854142628E+03  0.41800000000E+01 0.  1.
         -5    1    3    3    0  502 -0.21190370502E+02  0.40462825587E+02  0.77424613496E+02  0.89990639688E+02  0.41800000000E+01 0.  1.
        -11    1    1    2    0    0  0.16893990615E+02  0.30960564189E+02 -0.87410377074E+01  0.36336884759E+02  0.00000000000E+00 0.  1.
         11    1    1    2    0    0 -0.15976865314E+01  0.17212350804E+02  0.10335652755E+03  0.10479212475E+03  0.00000000000E+00 0. -1.
</event>
<event>
 7    1  0.2601031E-009  0.1332428E+03  0.7561462E-02  0.1222722E+00
         -2   -1    0    0    0  501 -0.00000000000E+00  0.00000000000E+00  0.21345852397E+02  0.21345852397E+02  0.00000000000E+00 0.  1.
          2   -1    0    0  501    0  0.00000000000E+00 -0.00000000000E+00 -0.11627768655E+04  0.11627768655E+04  0.00000000000E+00 0. -1.
         25    2    1    2    0    0  0.10524679800E+03 -0.78547998223E+01 -0.44874253580E+03  0.47765301076E+03  0.12507577255E+03 0.  0.
          5    1    3    3  502    0  0.53433663813E+02  0.32073398191E+02 -0.36983636897E+03  0.37507368811E+03  0.41800000000E+01 0.  1.
         -5    1    3    3    0  502  0.51813134183E+02 -0.39928198013E+02 -0.78906166826E+02  0.10257932264E+03  0.41800000000E+01 0.  1.
        -11    1    1    2    0    0 -0.79896040838E+02 -0.36149989260E+02 -0.41292071517E+03  0.42212997534E+03  0.00000000000E+00 0.  1.
         11    1    1    2    0    0 -0.25350757158E+02  0.44004789083E+02 -0.27976776216E+03  0.28433973182E+03  0.00000000000E+00 0. -1.
</event>
<event>
 7    1  0.2601031E-009  0.1420220E+03  0.7561462E-02  0.1210634E+00
          2   -1    0    0  501    0  0.00000000000E+00  0.00000000000E+00  0.16756027925E+04  0.16756027925E+04  0.00000000000E+00 0. -1.
         -2   -1    0    0    0  501 -0.00000000000E+00 -0.00000000000E+00 -0.16891033014E+02  0.16891033014E+02  0.00000000000E+00 0.  1.
         25    2    1    2    0    0  0.73094237652E+02 -0.56801916985E+02  0.13052037182E+04  0.13144462505E+04  0.12507187553E+03 0.  0.
          5    1    3    3  502    0  0.51288271566E+02 -0.93923290645E+02  0.10657217091E+04  0.10710893076E+04  0.41800000000E+01 0.  1.
         -5    1    3    3    0  502  0.21805966086E+02  0.37121373660E+02  0.23948200915E+03  0.24335694288E+03  0.41800000000E+01 0.  1.
        -11    1    1    2    0    0  0.15093872779E+02 -0.14010075739E+02  0.45964637722E+02  0.50367203006E+02  0.00000000000E+00 0.  1.
         11    1    1    2    0    0 -0.88188110431E+02  0.70811992724E+02  0.30754340352E+03  0.32768037198E+03  0.00000000000E+00 0. -1.
</event>
<event>
 7    1  0.2601031E-009  0.2674853E+03  0.7561462E-02  0.1102728E+00
          1   -1    0    0  501    0  0.00000000000E+00  0.00000000000E+00  0.70050861400E+03  0.70050861400E+03  0.00000000000E+00 0. -1.
         -1   -1    0    0    0  501 -0.00000000000E+00 -0.00000000000E+00 -0.16907534301E+03  0.16907534301E+03  0.00000000000E+00 0.  1.
         25    2    1    2    0    0 -0.23692694337E+03  0.85933196270E+02  0.53185302126E+03  0.60169276072E+03  0.12509057268E+03 0.  0.
          5    1    3    3  502    0  0.52537202806E+01  0.31263619620E+02  0.45414389965E+02  0.55542368553E+02  0.41800000000E+01 0. -1.
         -5    1    3    3    0  502 -0.24218066365E+03  0.54669576650E+02  0.48643863129E+03  0.54615039217E+03  0.41800000000E+01 0. -1.
        -11    1    1    2    0    0  0.22079115526E+03 -0.89359834321E+02 -0.23693644371E+02  0.23936437290E+03  0.00000000000E+00 0.  1.
         11    1    1    2    0    0  0.16135788108E+02  0.34266380514E+01  0.23273894097E+02  0.28526823389E+02  0.00000000000E+00 0. -1.
</event>
<event>
 7    1  0.2601031E-009  0.1845258E+03  0.7561462E-02  0.1163493E+00
         -2   -1    0    0    0  501 -0.00000000000E+00  0.00000000000E+00  0.11044438595E+03  0.11044438595E+03  0.00000000000E+00 0.  1.
          2   -1    0    0  501    0  0.00000000000E+00 -0.00000000000E+00 -0.34080081537E+03  0.34080081537E+03  0.00000000000E+00 0. -1.
         25    2    1    2    0    0 -0.81316629466E+02 -0.13539072256E+03 -0.71179532053E+02  0.21367451213E+03  0.12508888587E+03 0.  0.
          5    1    3    3  502    0 -0.58496196806E+02  0.39632782973E+01 -0.95713870069E+01  0.59553307758E+02  0.41800000000E+01 0.  1.
         -5    1    3    3    0  502 -0.22820432660E+02 -0.13935400086E+03 -0.61608145046E+02  0.15412120437E+03  0.41800000000E+01 0.  1.
        -11    1    1    2    0    0  0.20079813860E+02  0.91453361634E+02 -0.53714331340E+02  0.10794510489E+03  0.00000000000E+00 0. -1.
         11    1    1    2    0    0  0.61236815606E+02  0.43937360924E+02 -0.10546256603E+03  0.12962558429E+03  0.00000000000E+00 0.  1.
</event>
<event>
 7    1  0.2601031E-009  0.1144700E+03  0.7561462E-02  0.1252509E+00
         -2   -1    0    0    0  501 -0.00000000000E+00  0.00000000000E+00  0.70117939233E+02  0.70117939233E+02  0.00000000000E+00 0.  1.
          2   -1    0    0  501    0  0.00000000000E+00 -0.00000000000E+00 -0.28199839022E+03  0.28199839022E+03  0.00000000000E+00 0. -1.
         25    2    1    2    0    0  0.39366423459E+01  0.81400720646E+02 -0.71274590615E+02  0.16543514389E+03  0.12508854901E+03 0.  0.
          5    1    3    3  502    0 -0.37714981755E+02  0.28284752592E+02  0.20381286802E+02  0.51529761591E+02  0.41800000000E+01 0. -1.
         -5    1    3    3    0  502  0.41651624101E+02  0.53115968054E+02 -0.91655877417E+02  0.11390538230E+03  0.41800000000E+01 0. -1.
        -11    1    1    2    0    0 -0.20454246181E+02 -0.92073288517E+02 -0.13754805622E+03  0.16677929852E+03  0.00000000000E+00 0. -1.
         11    1    1    2    0    0  0.16517603835E+02  0.10672567871E+02 -0.30578041508E+01  0.19901887037E+02  0.00000000000E+00 0.  1.
</event>
<event>
 7    1  0.2601031E-009  0.8184568E+02  0.7561462E-02  0.1323894E+00
         -1   -1    0    0    0  501 -0.00000000000E+00  0.00000000000E+00  0.45708737891E+02  0.45708737891E+02  0.00000000000E+00 0.  1.
          1   -1    0    0  501    0  0.00000000000E+00 -0.00000000000E+00 -0.35674938213E+03  0.35674938213E+03  0.00000000000E+00 0. -1.
         25    2    1    2    0    0 -0.39777074621E+00  0.42955505416E+02 -0.25156545575E+03  0.28421507201E+03  0.12509074692E+03 0.  0.
          5    1    3    3  502    0 -0.52434611567E+01  0.71604636492E+02 -0.24331710876E+03  0.25372308856E+03  0.41800000000E+01 0. -1.
         -5    1    3    3    0  502  0.48456904105E+01 -0.28649131076E+02 -0.82483469944E+01  0.30491983456E+02  0.41800000000E+01 0. -1.
        -11    1    1    2    0    0  0.91634044522E+01  0.71055561315E+01 -0.65993125434E+02  0.67004100723E+02  0.00000000000E+00 0. -1.
         11    1    1    2    0    0 -0.87656337060E+01 -0.50061061547E+02  0.65179369427E+01  0.51238947291E+02  0.00000000000E+00 0.  1.
</event>
<event>
 7    1  0.2601031E-009  0.1413076E+03  0.7561462E-02  0.1211580E+00
         -2   -1    0    0    0  501 -0.00000000000E+00  0.00000000000E+00  0.18568852913E+03  0.18568852913E+03  0.00000000000E+00 0.  1.
          2   -1    0    0  501    0  0.00000000000E+00 -0.00000000000E+00 -0.31976170867E+03  0.31976170867E+03  0.00000000000E+00 0. -1.
         25    2    1    2    0    0 -0.36625068046E+02 -0.12063222839E+03  0.11495096492E+03  0.21155474523E+03  0.12509258875E+03 0.  0.
          5    1    3    3  502    0 -0.18519067511E+02 -0.27040720095E+02  0.11126311660E+03  0.11606511069E+03  0.41800000000E+01 0.  1.
         -5    1    3    3    0  502 -0.18106000535E+02 -0.93591508291E+02  0.36878483226E+01  0.95489634541E+02  0.41800000000E+01 0.  1.
        -11    1    1    2    0    0  0.20811472559E+02 -0.96349524056E+01 -0.22622391158E+02  0.32213697081E+02  0.00000000000E+00 0.  1.
         11    1    1    2    0    0  0.15813595488E+02  0.13026718079E+03 -0.22640175330E+03  0.26168179549E+03  0.00000000000E+00 0. -1.
</event>
<event>
 7    1  0.2601031E-009  0.7782001E+02  0.7561462E-02  0.1335354E+00
         -2   -1    0    0    0  501 -0.00000000000E+00  0.00000000000E+00  0.18002867222E+02  0.18002867222E+02  0.00000000000E+00 0.  1.
          2   -1    0    0  501    0  0.00000000000E+00 -0.00000000000E+00 -0.81045878211E+03  0.81045878211E+03  0.00000000000E+00 0. -1.
         25    2    1    2    0    0  0.45139926973E+02  0.22086901787E+02 -0.50160225179E+03  0.51940350461E+03  0.12509891032E+03 0.  0.
          5    1    3    3  502    0  0.59371069848E+02  0.14611236940E+02 -0.98834064102E+02  0.11629297832E+03  0.41800000000E+01 0. -1.
         -5    1    3    3    0  502 -0.14231142874E+02  0.74756648468E+01 -0.40276818769E+03  0.40311052629E+03  0.41800000000E+01 0. -1.
        -11    1    1    2    0    0 -0.59421245068E+02 -0.22284162309E+02 -0.28745448739E+03  0.29437654556E+03  0.00000000000E+00 0. -1.
         11    1    1    2    0    0  0.14281318095E+02  0.19726052149E+00 -0.33991757004E+01  0.14681599153E+02  0.00000000000E+00 0.  1.
</event>
<event>
 7    1  0.2601031E-009  0.9731200E+02  0.7561462E-02  0.1286052E+00
         -1   -1    0    0    0  501 -0.00000000000E+00  0.00000000000E+00  0.11490657496E+02  0.11490657496E+02  0.00000000000E+00 0.  1.
          1   -1    0    0  501    0  0.00000000000E+00 -0.00000000000E+00 -0.12275752080E+04  0.12275752080E+04  0.00000000000E+00 0. -1.
         25    2    1    2    0    0 -0.17366042250E+01  0.31999238715E+02 -0.88494855697E+03  0.89432004851E+03  0.12508970221E+03 0.  0.
          5    1    3    3  502    0  0.83142958066E+01  0.65090041707E+02 -0.25275226207E+03  0.26116473618E+03  0.41800000000E+01 0. -1.
         -5    1    3    3    0  502 -0.10050900032E+02 -0.33090802992E+02 -0.63219629490E+03  0.63315531232E+03  0.41800000000E+01 0. -1.
        -11    1    1    2    0    0  0.27052606790E+02 -0.54064126183E+02 -0.17851369095E+03  0.18847257394E+03  0.00000000000E+00 0. -1.
         11    1    1    2    0    0 -0.25316002565E+02  0.22064887468E+02 -0.15262230253E+03  0.15627324299E+03  0.00000000000E+00 0.  1.
</event>
<event>
 7    1  0.2601031E-009  0.1067245E+03  0.7561462E-02  0.1266759E+00
          1   -1    0    0  501    0  0.00000000000E+00  0.00000000000E+00  0.18303981309E+04  0.18303981309E+04  0.00000000000E+00 0. -1.
         -1   -1    0    0    0  501 -0.00000000000E+00 -0.00000000000E+00 -0.10127087986E+02  0.10127087986E+02  0.00000000000E+00 0.  1.
         25    2    1    2    0    0  0.82155212851E+01 -0.20692580024E+02  0.15755188217E+04  0.15806331794E+04  0.12508402244E+03 0.  0.
          5    1    3    3  502    0 -0.94237623909E+01 -0.71613559215E+02  0.97945832598E+03  0.98212697443E+03  0.41800000000E+01 0.  1.
         -5    1    3    3    0  502  0.17639283676E+02  0.50920979191E+02  0.59606049575E+03  0.59850620502E+03  0.41800000000E+01 0.  1.
        -11    1    1    2    0    0 -0.43851966590E+02 -0.34715924405E+01  0.11185178128E+03  0.12019096432E+03  0.00000000000E+00 0. -1.
         11    1    1    2    0    0  0.35636445305E+02  0.24164172464E+02  0.13290043988E+03  0.13970107510E+03  0.00000000000E+00 0.  1.
</event>
<event>
 7    1  0.2601031E-009  0.1182097E+03  0.7561462E-02  0.1246080E+00
         -1   -1    0    0    0  501 -0.00000000000E+00  0.00000000000E+00  0.22160123360E+02  0.22160123360E+02  0.00000000000E+00 0.  1.
          1   -1    0    0  501    0  0.00000000000E+00 -0.00000000000E+00 -0.67828965452E+03  0.67828965452E+03  0.00000000000E+00 0. -1.
         25    2    1    2    0    0  0.23717924266E+02  0.52868710903E+02 -0.35037631699E+03  0.37652255690E+03  0.12509209337E+03 0.  0.
          5    1    3    3  502    0  0.10927405968E+02 -0.37320194960E+02 -0.55701292894E+02  0.68061087143E+02  0.41800000000E+01 0. -1.
         -5    1    3    3    0  502  0.12790518298E+02  0.90188905863E+02 -0.29467502410E+03  0.30846146976E+03  0.41800000000E+01 0. -1.
        -11    1    1    2    0    0  0.15301944116E+02 -0.63791660780E+02 -0.16857104027E+03  0.18088593393E+03  0.00000000000E+00 0.  1.
         11    1    1    2    0    0 -0.39019868382E+02  0.10922949877E+02 -0.13718217390E+03  0.14304128704E+03  0.00000000000E+00 0. -1.
</event>
<event>
 7    1  0.2601031E-009  0.7574327E+02  0.7561462E-02  0.1341585E+00
          1   -1    0    0  501    0  0.00000000000E+00  0.00000000000E+00  0.78441576952E+02  0.78441576952E+02  0.00000000000E+00 0. -1.
         -1   -1    0    0    0  501 -0.00000000000E+00 -0.00000000000E+00 -0.29393070032E+03  0.29393070032E+03  0.00000000000E+00 0.  1.
         25    2    1    2    0    0  0.80156240447E+01  0.30284649340E+02  0.81490963336E+01  0.12921230324E+03  0.12509197145E+03 0.  0.
          5    1    3    3  502    0 -0.35074009027E+01 -0.25345028857E+02 -0.44592396165E+02  0.51581261564E+02  0.41800000000E+01 0.  1.
         -5    1    3    3    0  502  0.11523024947E+02  0.55629678197E+02  0.52741492499E+02  0.77631041673E+02  0.41800000000E+01 0.  1.
        -11    1    1    2    0    0 -0.52260272706E+01  0.18759187913E+02 -0.64926592708E+01  0.20527374810E+02  0.00000000000E+00 0. -1.
         11    1    1    2    0    0 -0.27895967741E+01 -0.49043837253E+02 -0.21714556043E+03  0.22263259923E+03  0.00000000000E+00 0.  1.
</event>
<event>
 7    1  0.2601031E-009  0.1160069E+03  0.7561462E-02  0.1249834E+00
         -2   -1    0    0    0  501 -0.00000000000E+00  0.00000000000E+00  0.11920077196E+03  0.11920077196E+03  0.00000000000E+00 0.  1.
          2   -1    0    0  501    0  0.00000000000E+00 -0.00000000000E+00 -0.15066365064E+03  0.15066365064E+03  0.00000000000E+00 0. -1.
         25    2    1    2    0    0 -0.12378187351E+02 -0.65051348841E+02 -0.59163359959E+02  0.15341636267E+03  0.12510547417E+03 0.  0.
          5    1    3    3  502    0 -0.32763197478E+02  0.18205246324E+02  0.14414750097E+02  0.40374689139E+02  0.41800000000E+01 0. -1.
         -5    1    3    3    0  502  0.20385010127E+02 -0.83256595164E+02 -0.73578110056E+02  0.11304167353E+03  0.41800000000E+01 0. -1.
        -11    1    1    2    0    0  0.14241111755E+02  0.86141136879E+02  0.82523791101E+01  0.87699523875E+02  0.00000000000E+00 0. -1.
         11    1    1    2    0    0 -0.18629244032E+01 -0.21089788039E+02  0.19448102173E+02  0.28748536049E+02  0.00000000000E+00 0.  1.
</event>
<event>
 7    1  0.2601031E-009  0.1482320E+03  0.7561462E-02  0.1202662E+00
         -4   -1    0    0    0  501 -0.00000000000E+00  0.00000000000E+00  0.48735695505E+03  0.48735695505E+03  0.00000000000E+00 0.  1.
          4   -1    0    0  501    0  0.00000000000E+00 -0.00000000000E+00 -0.53947661925E+02  0.53947661925E+02  0.00000000000E+00 0. -1.
         25    2    1    2    0    0 -0.86065257669E+02 -0.81941726821E+02  0.20382352608E+03  0.26704860945E+03  0.12509698179E+03 0.  0.
          5    1    3    3  502    0 -0.80825676804E+02 -0.41197227530E+01  0.51934062174E+02  0.96251656403E+02  0.41800000000E+01 0.  1.
         -5    1    3    3    0  502 -0.52395808647E+01 -0.77822004068E+02  0.15188946390E+03  0.17079695304E+03  0.41800000000E+01 0.  1.
        -11    1    1    2    0    0  0.87009180151E+02  0.40691042963E+02  0.10175119944E+03  0.13992735614E+03  0.00000000000E+00 0. -1.
         11    1    1    2    0    0 -0.94392248251E+00  0.41250683858E+02  0.12783456761E+03  0.13432865139E+03  0.00000000000E+00 0.  1.
</event>
<event>
 7    1  0.2601031E-009  0.1107943E+03  0.7561462E-02  0.1259106E+00
         -2   -1    0    0    0  501 -0.00000000000E+00  0.00000000000E+00  0.30756638991E+02  0.30756638991E+02  0.00000000000E+00 0.  1.
          2   -1    0    0  501    0  0.00000000000E+00 -0.00000000000E+00 -0.56665473085E+03  0.56665473085E+03  0.00000000000E+00 0. -1.
         25    2    1    2    0    0 -0.26022276793E+02 -0.17849425981E+02 -0.14444908831E+03  0.19367127808E+03  0.12508902408E+03 0.  0.
          5    1    3    3  502    0 -0.44874587827E+01 -0.67978475833E+02 -0.10855665387E+03  0.12823115831E+03  0.41800000000E+01 0.  1.
         -5    1    3    3    0  502 -0.21534818010E+02  0.50129049851E+02 -0.35892434435E+02  0.65440119769E+02  0.41800000000E+01 0.  1.
        -11    1    1    2    0    0  0.18111288433E+02 -0.38059699753E+02 -0.15334277786E+03  0.15903008217E+03  0.00000000000E+00 0.  1.
         11    1    1    2    0    0  0.79109883601E+01  0.55909125734E+02 -0.23810622569E+03  0.24471000958E+03  0.00000000000E+00 0. -1.
</event>
<event>
 7    1  0.2601031E-009  0.1504620E+03  0.7561462E-02  0.1199906E+00
          1   -1    0    0  501    0  0.00000000000E+00  0.00000000000E+00  0.19325455826E+03  0.19325455826E+03  0.00000000000E+00 0. -1.
         -1   -1    0    0    0  501 -0.00000000000E+00 -0.00000000000E+00 -0.12140616523E+03  0.12140616523E+03  0.00000000000E+00 0.  1.
         25    2    1    2    0    0 -0.53001928107E+02 -0.90190580200E+02  0.14955599270E+02  0.16375505888E+03  0.12509398154E+03 0.  0.
          5    1    3    3  502    0  0.18119070646E+02 -0.89007477256E+02 -0.95713919453E-01  0.90929166331E+02  0.41800000000E+01 0.  1.
         -5    1    3    3    0  502 -0.71120998753E+02 -0.11831029441E+01  0.15051313189E+02  0.72825892545E+02  0.41800000000E+01 0.  1.
        -11    1    1    2    0    0 -0.24147506175E+02  0.39932013770E+02  0.10629550346E+02  0.47860788948E+02  0.00000000000E+00 0. -1.
         11    1    1    2    0    0  0.77149434282E+02  0.50258566430E+02  0.46263243408E+02  0.10304487566E+03  0.00000000000E+00 0.  1.
</event>
<event>
 7    1  0.2601031E-009  0.1401336E+03  0.7561462E-02  0.1213149E+00
         -2   -1    0    0    0  501 -0.00000000000E+00  0.00000000000E+00  0.35634745510E+02  0.35634745510E+02  0.00000000000E+00 0. -1.
          2   -1    0    0  501    0  0.00000000000E+00 -0.00000000000E+00 -0.65709278593E+03  0.65709278593E+03  0.00000000000E+00 0.  1.
         25    2    1    2    0    0 -0.94609309486E+02  0.16194590724E+02 -0.22587511988E+03  0.27546326608E+03  0.12508898821E+03 0.  0.
          5    1    3    3  502    0 -0.85440093502E+02 -0.44089067925E+02 -0.14653725076E+03  0.17531256016E+03  0.41800000000E+01 0.  1.
         -5    1    3    3    0  502 -0.91692159842E+01  0.60283658649E+02 -0.79337869114E+02  0.10015070593E+03  0.41800000000E+01 0.  1.
        -11    1    1    2    0    0  0.82448357506E+02  0.19906177464E+02 -0.33603557884E+03  0.34657451984E+03  0.00000000000E+00 0.  1.
         11    1    1    2    0    0  0.12160951980E+02 -0.36100768188E+02 -0.59547341698E+02  0.70689745509E+02  0.00000000000E+00 0. -1.
</event>
<event>
 7    1  0.2601031E-009  0.1175064E+03  0.7561462E-02  0.1247268E+00
          1   -1    0    0  501    0  0.00000000000E+00  0.00000000000E+00  0.54707754496E+02  0.54707754496E+02  0.00000000000E+00 0. -1.
         -1   -1    0    0    0  501 -0.00000000000E+00 -0.00000000000E+00 -0.35823296972E+03  0.35823296972E+03  0.00000000000E+00 0.  1.
         25    2    1    2    0    0 -0.50714682687E+02 -0.45634047491E+02 -0.82669003977E+02  0.16473104773E+03  0.12509080117E+03 0.  0.
          5    1    3    3  502    0 -0.10132382660E+02 -0.84895859554E+02 -0.44813500045E+02  0.96621396875E+02  0.41800000000E+01 0.  1.
         -5    1    3    3    0  502 -0.40582300027E+02  0.39261812063E+02 -0.37855503931E+02  0.68109650857E+02  0.41800000000E+01 0.  1.
        -11    1    1    2    0    0  0.64049278452E+02  0.26150794796E+02 -0.21198523816E+03  0.22298859912E+03  0.00000000000E+00 0.  1.
         11    1    1    2    0    0 -0.13334595765E+02  0.19483252696E+02 -0.88709730824E+01  0.25221077361E+02  0.00000000000E+00 0. -1.
</event>
<event>
 7    1  0.2601031E-009  0.9733404E+02  0.7561462E-02  0.1286004E+00
          1   -1    0    0  501    0  0.00000000000E+00  0.00000000000E+00  0.79654786352E+03  0.79654786352E+03  0.00000000000E+00 0. -1.
         -1   -1    0    0    0  501 -0.00000000000E+00 -0.00000000000E+00 -0.15424592692E+02  0.15424592692E+02  0.00000000000E+00 0.  1.
         25    2    1    2    0    0 -0.23546775495E+02 -0.78221660653E+01  0.47437662560E+03  0.49121928054E+03  0.12509021444E+03 0.  0.
          5    1    3    3  502    0  0.29740663064E+02  0.29298729166E+02  0.33241497684E+03  0.33505240157E+03  0.41800000000E+01 0.  1.
         -5    1    3    3    0  502 -0.53287438559E+02 -0.37120895231E+02  0.14196164876E+03  0.15616687898E+03  0.41800000000E+01 0.  1.
        -11    1    1    2    0    0  0.84917040094E+01  0.45904888029E+02  0.21901107867E+03  0.22393128491E+03  0.00000000000E+00 0. -1.
         11    1    1    2    0    0  0.15055071485E+02 -0.38082721964E+02  0.87735566561E+02  0.96821890755E+02  0.00000000000E+00 0.  1.
</event>
<event>
 7    1  0.3084756E-009  0.7467326E+02  0.7561462E-02  0.1344886E+00
         -2   -1    0    0    0  501 -0.00000000000E+00  0.00000000000E+00  0.42587749397E+02  0.42587749397E+02  0.00000000000E+00 0.  1.
          2   -1    0    0  501    0  0.00000000000E+00 -0.00000000000E+00 -0.38530053152E+03  0.38530053152E+03  0.00000000000E+00 0. -1.
         25    2    1    2    0    0 -0.12482497496E+02 -0.55584648055E+02 -0.25230402941E+03  0.28731505745E+03  0.12508858117E+03 0.  0.
          5    1    3    3  502    0 -0.26324117441E+01 -0.61865279591E+01  0.14093628362E+02  0.16164946031E+02  0.41800000000E+01 0. -1.
         -5    1    3    3    0  502 -0.98500857517E+01 -0.49398120096E+02 -0.26639765777E+03  0.27115011142E+03  0.41800000000E+01 0. -1.
        -11    1    1    2    0    0  0.40522734270E+02  0.45881429226E+02 -0.20380007692E+02  0.64517766964E+02  0.00000000000E+00 0.  1.
         11    1    1    2    0    0 -0.28040236774E+02  0.97032188290E+01 -0.70028745018E+02  0.76055456496E+02  0.00000000000E+00 0. -1.
</event>
<event>
 7    1  0.2601031E-009  0.1542000E+03  0.7561462E-02  0.1195405E+00
         -4   -1    0    0    0  501 -0.00000000000E+00  0.00000000000E+00  0.43685390850E+03  0.43685390850E+03  0.00000000000E+00 0.  1.
          4   -1    0    0  501    0  0.00000000000E+00 -0.00000000000E+00 -0.66667078718E+02  0.66667078718E+02  0.00000000000E+00 0. -1.
         25    2    1    2    0    0  0.96647204462E+02  0.87551300917E+02  0.22786109302E+03  0.29081733619E+03  0.12509249736E+03 0.  0.
          5    1    3    3  502    0  0.17450318640E+02  0.75504216080E+02  0.41681918290E+02  0.88092309419E+02  0.41800000000E+01 0. -1.
         -5    1    3    3    0  502  0.79196885822E+02  0.12047084838E+02  0.18617917473E+03  0.20272502677E+03  0.41800000000E+01 0. -1.
        -11    1    1    2    0    0 -0.92129918486E+02 -0.10081098341E+03  0.10328724682E+03  0.17122801059E+03  0.00000000000E+00 0.  1.
         11    1    1    2    0    0 -0.45172859762E+01  0.13259682488E+02  0.39038489942E+02  0.41475640432E+02  0.00000000000E+00 0. -1.
</event>
<event>
 7    1  0.2601031E-009  0.1042783E+03  0.7561462E-02  0.1271548E+00
         -2   -1    0    0    0  501 -0.00000000000E+00  0.00000000000E+00  0.38684743690E+02  0.38684743690E+02  0.00000000000E+00 0. -1.
          2   -1    0    0  501    0  0.00000000000E+00 -0.00000000000E+00 -0.32604668797E+03  0.32604668797E+03  0.00000000000E+00 0.  1.
         25    2    1    2    0    0 -0.12606153503E+01  0.28396247177E+02 -0.15432535393E+03  0.20067640591E+03  0.12508704577E+03 0.  0.
          5    1    3    3  502    0 -0.41701275745E+02 -0.22385109226E+02 -0.11556913684E+03  0.12495514117E+03  0.41800000000E+01 0. -1.
         -5    1    3    3    0  502  0.40440660395E+02  0.50781356403E+02 -0.38756217087E+02  0.75721264742E+02  0.41800000000E+01 0. -1.
        -11    1    1    2    0    0  0.41816174946E+02 -0.35458057018E+02 -0.75165479178E+02  0.93036098127E+02  0.00000000000E+00 0. -1.
         11    1    1    2    0    0 -0.40555559595E+02  0.70618098412E+01 -0.57871111171E+02  0.71018927622E+02  0.00000000000E+00 0.  1.
</event>
<event>
 7    1  0.2601031E-009  0.1011799E+03  0.7561462E-02  0.1277834E+00
          4   -1    0    0  501    0  0.00000000000E+00  0.00000000000E+00  0.95287818170E+02  0.95287818170E+02  0.00000000000E+00 0. -1.
         -4   -1    0    0    0  501 -0.00000000000E+00 -0.00000000000E+00 -0.21355659573E+03  0.21355659573E+03  0.00000000000E+00 0.  1.
         25    2    1    2    0    0 -0.20703645445E+02 -0.24920682600E+02  0.29496991566E+02  0.13252641661E+03  0.12507396704E+03 0.  0.
          5    1    3    3  502    0 -0.14164688087E+02 -0.65467997954E+02  0.52553369150E+02  0.85240988695E+02  0.41800000000E+01 0.  1.
         -5    1    3    3    0  502 -0.65389573576E+01  0.40547315354E+02 -0.23056377584E+02  0.47285427914E+02  0.41800000000E+01 0.  1.
        -11    1    1    2    0    0  0.33548879132E+02  0.53204812813E+02 -0.79954348336E+02  0.10172992291E+03  0.00000000000E+00 0.  1.
         11    1    1    2    0    0 -0.12845233686E+02 -0.28284130213E+02 -0.67811420791E+02  0.74588074382E+02  0.00000000000E+00 0. -1.
</event>
<event>
 7    1  0.2601031E-009  0.1991670E+03  0.7561462E-02  0.1150444E+00
          1   -1    0    0  501    0  0.00000000000E+00  0.00000000000E+00  0.17637796903E+03  0.17637796903E+03  0.00000000000E+00 0. -1.
         -1   -1    0    0    0  501 -0.00000000000E+00 -0.00000000000E+00 -0.29391122994E+03  0.29391122994E+03  0.00000000000E+00 0.  1.
         25    2    1    2    0    0  0.11880235037E+03  0.13690869033E+03  0.25527930319E+02  0.22171059880E+03  0.12508367781E+03 0.  0.
          5    1    3    3  502    0  0.33599201198E+02  0.10701439847E+03 -0.29281874529E+02  0.11599951886E+03  0.41800000000E+01 0.  1.
         -5    1    3    3    0  502  0.85203149169E+02  0.29894291864E+02  0.54809804848E+02  0.10571107994E+03  0.41800000000E+01 0.  1.
        -11    1    1    2    0    0 -0.41157845652E+02 -0.10310309707E+03 -0.47096477661E+02  0.12059143872E+03  0.00000000000E+00 0. -1.
         11    1    1    2    0    0 -0.77644504714E+02 -0.33805593265E+02 -0.95964713568E+02  0.12798716146E+03  0.00000000000E+00 0.  1.
</event>
<event>
 7    1  0.2601031E-009  0.1278932E+03  0.7561462E-02  0.1230616E+00
          2   -1    0    0  501    0  0.00000000000E+00  0.00000000000E+00  0.66481820514E+03  0.66481820514E+03  0.00000000000E+00 0.  1.
         -2   -1    0    0    0  501 -0.00000000000E+00 -0.00000000000E+00 -0.46448369033E+02  0.46448369033E+02  0.00000000000E+00 0. -1.
         25    2    1    2    0    0  0.68561039852E+02 -0.24355246030E+02  0.90436790153E+02  0.17064002688E+03  0.12508161962E+03 0.  0.
          5    1    3    3  502    0 -0.81563533958E+01  0.38903412903E+02  0.65951195092E+01  0.40508883440E+02  0.41800000000E+01 0. -1.
         -5    1    3    3    0  502  0.76717393247E+02 -0.63258658933E+02  0.83841670644E+02  0.13013114344E+03  0.41800000000E+01 0. -1.
        -11    1    1    2    0    0  0.17478957089E+02  0.24695071745E+02  0.12497001205E+03  0.12858018674E+03  0.00000000000E+00 0.  1.
         11    1    1    2    0    0 -0.86039996941E+02 -0.33982571453E+00  0.40296303390E+03  0.41204636055E+03  0.00000000000E+00 0. -1.
</event>
<event>
 7    1  0.2601031E-009  0.1018751E+03  0.7561462E-02  0.1276402E+00
          1   -1    0    0  501    0  0.00000000000E+00  0.00000000000E+00  0.20740658550E+02  0.20740658550E+02  0.00000000000E+00 0. -1.
         -1   -1    0    0    0  501 -0.00000000000E+00 -0.00000000000E+00 -0.61082213379E+03  0.61082213379E+03  0.00000000000E+00 0.  1.
         25    2    1    2    0    0 -0.17713346190E+01  0.25470463080E+00 -0.31966672620E+03  0.34327270107E+03  0.12508448730E+03 0.  0.
          5    1    3    3  502    0 -0.20437261219E+02 -0.55089849665E+02 -0.10121616359E+03  0.11711002243E+03  0.41800000000E+01 0.  1.
         -5    1    3    3    0  502  0.18665926600E+02  0.55344554295E+02 -0.21845056260E+03  0.22616267864E+03  0.41800000000E+01 0.  1.
        -11    1    1    2    0    0 -0.46393960626E+01  0.42651851615E+02 -0.61929632705E+02  0.75339125619E+02  0.00000000000E+00 0. -1.
         11    1    1    2    0    0  0.64107306815E+01 -0.42906556246E+02 -0.20848511634E+03  0.21295096565E+03  0.00000000000E+00 0.  1.
</event>
<event>
 7    1  0.2601031E-009  0.1114926E+03  0.7561462E-02  0.1257831E+00
          1   -1    0    0  501    0  0.00000000000E+00  0.00000000000E+00  0.96760517058E+02  0.96760517058E+02  0.00000000000E+00 0. -1.
         -1   -1    0    0    0  501 -0.00000000000E+00 -0.00000000000E+00 -0.18806972200E+03  0.18806972200E+03  0.00000000000E+00 0.  1.
         25    2    1    2    0    0 -0.73039304511E+02 -0.24365810767E+02 -0.24071403764E+02  0.14884609737E+03  0.12508915015E+03 0.  0.
          5    1    3    3  502    0 -0.10669883738E+03 -0.15485242177E+02 -0.32689832003E+02  0.11274099583E+03  0.41800000000E+01 0. -1.
         -5    1    3    3    0  502  0.33659532872E+02 -0.88805685901E+01  0.86184282391E+01  0.36105101536E+02  0.41800000000E+01 0. -1.
        -11    1    1    2    0    0  0.52697297159E+02  0.27504593102E+02 -0.88358518773E+02  0.10649288995E+03  0.00000000000E+00 0.  1.
         11    1    1    2    0    0  0.20342007352E+02 -0.31387823347E+01  0.21120717595E+02  0.29491251744E+02  0.00000000000E+00 0. -1.
</event>
<event>
 7    1  0.2601031E-009  0.1163318E+03  0.7561462E-02  0.1249274E+00
          1   -1    0    0  501    0  0.00000000000E+00  0.00000000000E+00  0.85247578101E+02  0.85247578101E+02  0.00000000000E+00 0. -1.
         -1   -1    0    0    0  501 -0.00000000000E+00 -0.00000000000E+00 -0.18072328098E+03  0.18072328098E+03  0.00000000000E+00 0.  1.
         25    2    1    2    0    0 -0.48937030154E+02 -0.17008205611E+02 -0.87752687043E+02  0.16134207059E+03  0.12508644083E+03 0.  0.
          5    1    3    3  502    0 -0.69243276626E+02 -0.54448921248E+02 -0.38872202526E+02  0.96373424305E+02  0.41800000000E+01 0.  1.
         -5    1    3    3    0  502  0.20306246471E+02  0.37440715637E+02 -0.48880484517E+02  0.64968646283E+02  0.41800000000E+01 0.  1.
        -11    1    1    2    0    0  0.50963637612E+02  0.48363758122E+02  0.56381571017E+01  0.70484993253E+02  0.00000000000E+00 0.  1.
         11    1    1    2    0    0 -0.20266074578E+01 -0.31355552511E+02 -0.13361172936E+02  0.34143795238E+02  0.00000000000E+00 0. -1.
</event>
<event>
 7    1  0.2601031E-009  0.1578208E+03  0.7561462E-02  0.1191179E+00
         -2   -1    0    0    0  501 -0.00000000000E+00  0.00000000000E+00  0.28942935506E+02  0.28942935506E+02  0.00000000000E+00 0.  1.
          2   -1    0    0  501    0  0.00000000000E+00 -0.00000000000E+00 -0.11548890706E+04  0.11548890706E+04  0.00000000000E+00 0. -1.
         25    2    1    2    0    0 -0.76898608430E+02  0.32169510884E+02 -0.28017553173E+03  0.31795341348E+03  0.12509105144E+03 0.  0.
          5    1    3    3  502    0 -0.74411221939E+02  0.64117768223E+02 -0.26420923074E+03  0.28190797818E+03  0.41800000000E+01 0.  1.
         -5    1    3    3    0  502 -0.24873864914E+01 -0.31948257339E+02 -0.15966300998E+02  0.36045435302E+02  0.41800000000E+01 0.  1.
        -11    1    1    2    0    0  0.48519757792E+02 -0.10018343224E+03 -0.47701372341E+03  0.48982954108E+03  0.00000000000E+00 0.  1.
         11    1    1    2    0    0  0.28378850638E+02  0.68013921354E+02 -0.36875687991E+03  0.37604905151E+03  0.00000000000E+00 0. -1.
</event>
<event>
 7    1  0.2601031E-009  0.8446630E+02  0.7561462E-02  0.1316834E+00
          1   -1    0    0  501    0  0.00000000000E+00  0.00000000000E+00  0.44874142384E+03  0.44874142384E+03  0.00000000000E+00 0. -1.
         -1   -1    0    0    0  501 -0.00000000000E+00 -0.00000000000E+00 -0.31686640639E+02  0.31686640639E+02  0.00000000000E+00 0.  1.
         25    2    1    2    0    0  0.16396519015E+02  0.34295869489E+02  0.17385025925E+03  0.21752231570E+03  0.12508793982E+03 0.  0.
          5    1    3    3  502    0  0.35132204851E+02  0.61865484397E+01 -0.42782575595E+01  0.36170721406E+02  0.41800000000E+01 0. -1.
         -5    1    3    3    0  502 -0.18735685836E+02  0.28109321050E+02  0.17812851681E+03  0.18135159430E+03  0.41800000000E+01 0. -1.
        -11    1    1    2    0    0  0.35800717808E+02  0.12558026555E+01  0.10533782122E+03  0.11126241510E+03  0.00000000000E+00 0.  1.
         11    1    1    2    0    0 -0.52197236823E+02 -0.35551672145E+02  0.13786670273E+03  0.15164333367E+03  0.00000000000E+00 0. -1.
</event>
<event>
 7    1  0.2601031E-009  0.1538935E+03  0.7561462E-02  0.1195769E+00
         -1   -1    0    0    0  501 -0.00000000000E+00  0.00000000000E+00  0.21073489063E+02  0.21073489063E+02  0.00000000000E+00 0.  1.
          1   -1    0    0  501    0  0.00000000000E+00 -0.00000000000E+00 -0.12308450253E+04  0.12308450253E+04  0.00000000000E+00 0. -1.
         25    2    1    2    0    0  0.30764022420E+02  0.11493832626E+03 -0.70187004896E+03  0.72279049515E+03  0.12508912955E+03 0.  0.
          5    1    3    3  502    0  0.73676960080E+02  0.51077571806E+02 -0.28292612524E+03  0.29681960436E+03  0.41800000000E+01 0. -1.
         -5    1    3    3    0  502 -0.42912937660E+02  0.63860754458E+02 -0.41894392372E+03  0.42597089079E+03  0.41800000000E+01 0. -1.
        -11    1    1    2    0    0 -0.53224547141E+02 -0.53048127953E+02 -0.35132887520E+03  0.35927556951E+03  0.00000000000E+00 0.  1.
         11    1    1    2    0    0  0.22460524721E+02 -0.61890198311E+02 -0.15657261207E+03  0.16985244969E+03  0.00000000000E+00 0. -1.
</event>
<event>
 7    1  0.2601031E-009  0.1447808E+03  0.7561462E-02  0.1207037E+00
          2   -1    0    0  501    0  0.00000000000E+00  0.00000000000E+00  0.97997181352E+02  0.97997181352E+02  0.00000000000E+00 0. -1.
         -2   -1    0    0    0  501 -0.00000000000E+00 -0.00000000000E+00 -0.33151382513E+03  0.33151382513E+03  0.00000000000E+00 0.  1.
         25    2    1    2    0    0  0.90234151240E+02 -0.70609140500E+02 -0.20367446269E+02  0.17085109353E+03  0.12508960996E+03 0.  0.
          5    1    3    3  502    0  0.33707641661E+02 -0.80203628400E+02 -0.55688108067E+02  0.10338019585E+03  0.41800000000E+01 0. -1.
         -5    1    3    3    0  502  0.56526509580E+02  0.95944879001E+01  0.35320661798E+02  0.67470897676E+02  0.41800000000E+01 0. -1.
        -11    1    1    2    0    0 -0.47973717571E+02 -0.14359973974E+02 -0.92238449469E+02  0.10495531426E+03  0.00000000000E+00 0. -1.
         11    1    1    2    0    0 -0.42260433670E+02  0.84969114474E+02 -0.12091074804E+03  0.15370459870E+03  0.00000000000E+00 0.  1.
</event>
<event>
 7    1  0.2601031E-009  0.1122152E+03  0.7561462E-02  0.1256522E+00
          2   -1    0    0  501    0  0.00000000000E+00  0.00000000000E+00  0.66587778705E+03  0.66587778705E+03  0.00000000000E+00 0. -1.
         -2   -1    0    0    0  501 -0.00000000000E+00 -0.00000000000E+00 -0.22000090168E+02  0.22000090168E+02  0.00000000000E+00 0.  1.
         25    2    1    2    0    0  0.47831763683E+02 -0.17315321773E+02  0.30808311520E+03  0.33637618751E+03  0.12508411436E+03 0.  0.
          5    1    3    3  502    0  0.28876406332E+02 -0.69060442271E+02  0.21966949017E+03  0.23211063923E+03  0.41800000000E+01 0. -1.
         -5    1    3    3    0  502  0.18955357351E+02  0.51745120498E+02  0.88413625031E+02  0.10426554828E+03  0.41800000000E+01 0. -1.
        -11    1    1    2    0    0  0.65607405567E+01  0.36067183283E+02  0.64650669264E+02  0.74320885778E+02  0.00000000000E+00 0.  1.
         11    1    1    2    0    0 -0.54392504239E+02 -0.18751861510E+02  0.27114391241E+03  0.27718080393E+03  0.00000000000E+00 0. -1.
</event>
<event>
 7    1  0.2778597E-009  0.9667875E+02  0.7561462E-02  0.1287439E+00
          3   -1    0    0  501    0  0.00000000000E+00  0.00000000000E+00  0.22058120648E+03  0.22058120648E+03  0.00000000000E+00 0. -1.
         -3   -1    0    0    0  501 -0.00000000000E+00 -0.00000000000E+00 -0.63918622674E+02  0.63918622674E+02  0.00000000000E+00 0.  1.
         25    2    1    2    0    0  0.22012717449E+02  0.14795513366E+02  0.41220587195E+02  0.13434105706E+03  0.12507963807E+03 0.  0.
          5    1    3    3  502    0 -0.44852516672E+02  0.38165010855E+01 -0.13459686498E+02  0.47169370284E+02  0.41800000000E+01 0. -1.
         -5    1    3    3    0  502  0.66865234122E+02  0.10979012281E+02  0.54680273692E+02  0.87171686779E+02  0.41800000000E+01 0. -1.
        -11    1    1    2    0    0 -0.50441545775E+02 -0.87374705826E+01  0.28727728422E+02  0.58702430211E+02  0.00000000000E+00 0.  1.
         11    1    1    2    0    0  0.28428828326E+02 -0.60580427835E+01  0.86714268187E+02  0.91456341877E+02  0.00000000000E+00 0. -1.
</event>
<event>
 7    1  0.2738331E-009  0.1404016E+03  0.7561462E-02  0.1212790E+00
         -1   -1    0    0    0  501 -0.00000000000E+00  0.00000000000E+00  0.19246055653E+03  0.19246055653E+03  0.00000000000E+00 0.  1.
          1   -1    0    0  501    0  0.00000000000E+00 -0.00000000000E+00 -0.15032592860E+03  0.15032592860E+03  0.00000000000E+00 0. -1.
         25    2    1    2    0    0 -0.53581276279E+02  0.11906493106E+03  0.27734852029E+02  0.18292952574E+03  0.12508628380E+03 0.  0.
          5    1    3    3  502    0 -0.64321512146E+02  0.10101475637E+03  0.67669514059E+02  0.13761494636E+03  0.41800000000E+01 0.  1.
         -5    1    3    3    0  502  0.10740235868E+02  0.18050174685E+02 -0.39934662030E+02  0.45314579377E+02  0.41800000000E+01 0.  1.
        -11    1    1    2    0    0  0.42429676662E+02 -0.35695279392E+02 -0.31772141034E+02  0.63905393970E+02  0.00000000000E+00 0. -1.
         11    1    1    2    0    0  0.11151599617E+02 -0.83369651667E+02  0.46171916933E+02  0.95951565419E+02  0.00000000000E+00 0.  1.
</event>
<event>
 7    1  0.2601031E-009  0.1107915E+03  0.7561462E-02  0.1259111E+00
          1   -1    0    0  501    0  0.00000000000E+00  0.00000000000E+00  0.16637187349E+04  0.16637187349E+04  0.00000000000E+00 0. -1.
         -1   -1    0    0    0  501 -0.00000000000E+00 -0.00000000000E+00 -0.11221374813E+02  0.11221374813E+02  0.00000000000E+00 0.  1.
         25    2    1    2    0    0 -0.37594970128E+01 -0.17619716917E+02  0.13851659993E+04  0.13909194566E+04  0.12508997030E+03 0.  0.
          5    1    3    3  502    0 -0.18399865385E+02  0.51875100479E+02  0.58843495911E+03  0.59101840462E+03  0.41800000000E+01 0. -1.
         -5    1    3    3    0  502  0.14640368373E+02 -0.69494817396E+02  0.79673104023E+03  0.79990105194E+03  0.41800000000E+01 0. -1.
        -11    1    1    2    0    0  0.47354137515E+02 -0.20821087676E+01  0.15000492017E+03  0.15731568768E+03  0.00000000000E+00 0.  1.
         11    1    1    2    0    0 -0.43594640503E+02  0.19701825685E+02  0.11732644060E+03  0.12670496549E+03  0.00000000000E+00 0. -1.
</event>
<event>
 7    1  0.2601031E-009  0.1090035E+03  0.7561462E-02  0.1262426E+00
          2   -1    0    0  501    0  0.00000000000E+00  0.00000000000E+00  0.24619088031E+03  0.24619088031E+03  0.00000000000E+00 0. -1.
         -2   -1    0    0    0  501 -0.00000000000E+00 -0.00000000000E+00 -0.10312141237E+03  0.10312141237E+03  0.00000000000E+00 0.  1.
         25    2    1    2    0    0 -0.55486425373E+02 -0.70258861114E+02 -0.49565282704E+01  0.15390672842E+03  0.12509061881E+03 0.  0.
          5    1    3    3  502    0 -0.59876627438E+00 -0.15285591571E+02  0.54009321434E+02  0.56289315438E+02  0.41800000000E+01 0.  1.
         -5    1    3    3    0  502 -0.54887659098E+02 -0.54973269543E+02 -0.58965849704E+02  0.97617412980E+02  0.41800000000E+01 0.  1.
        -11    1    1    2    0    0  0.78975687404E+02  0.56813056516E+02  0.95557286451E+02  0.13636743594E+03  0.00000000000E+00 0.  1.
         11    1    1    2    0    0 -0.23489262031E+02  0.13445804598E+02  0.52468709758E+02  0.59038128321E+02  0.00000000000E+00 0. -1.
</event>
<event>
 7    1  0.2601031E-009  0.9166525E+02  0.7561462E-02  0.1298868E+00
         -2   -1    0    0    0  501 -0.00000000000E+00  0.00000000000E+00  0.16794328791E+02  0.16794328791E+02  0.00000000000E+00 0.  1.
          2   -1    0    0  501    0  0.00000000000E+00 -0.00000000000E+00 -0.88988636920E+03  0.88988636920E+03  0.00000000000E+00 0. -1.
         25    2    1    2    0    0  0.14972146016E+02 -0.53731272394E+02 -0.48173364288E+03  0.50082505979E+03  0.12508886059E+03 0.  0.
          5    1    3    3  502    0  0.31158972493E+02 -0.17316408038E+02 -0.44506563276E+03  0.44651050315E+03  0.41800000000E+01 0. -1.
         -5    1    3    3    0  502 -0.16186826478E+02 -0.36414864356E+02 -0.36668010112E+02  0.54314556641E+02  0.41800000000E+01 0. -1.
        -11    1    1    2    0    0  0.38728368553E+02  0.28209201785E+02 -0.16456400651E+03  0.17139707650E+03  0.00000000000E+00 0. -1.
         11    1    1    2    0    0 -0.53700514568E+02  0.25522070610E+02 -0.22679439102E+03  0.23445856170E+03  0.00000000000E+00 0.  1.
</event>
<event>
 7    1  0.2601031E-009  0.1073665E+03  0.7561462E-02  0.1265526E+00
         -2   -1    0    0    0  501 -0.00000000000E+00  0.00000000000E+00  0.46089898823E+02  0.46089898823E+02  0.00000000000E+00 0.  1.
          2   -1    0    0  501    0  0.00000000000E+00 -0.00000000000E+00 -0.29406957204E+03  0.29406957204E+03  0.00000000000E+00 0. -1.
         25    2    1    2    0    0 -0.95203995988E+01  0.27195121119E+02 -0.94113631767E+02  0.15916721901E+03  0.12508643133E+03 0.  0.
          5    1    3    3  502    0  0.28835071203E+01  0.73940877649E+02 -0.79003159196E+02  0.10832607980E+03  0.41800000000E+01 0. -1.
         -5    1    3    3    0  502 -0.12403906719E+02 -0.46745756530E+02 -0.15110472571E+02  0.50841139216E+02  0.41800000000E+01 0. -1.
        -11    1    1    2    0    0  0.34661495395E+02 -0.48161724769E+02 -0.75236147622E+02  0.95819877398E+02  0.00000000000E+00 0.  1.
         11    1    1    2    0    0 -0.25141095796E+02  0.20966603649E+02 -0.78629893831E+02  0.85172374455E+02  0.00000000000E+00 0. -1.
</event>
<event>
 7    1  0.2601031E-009  0.1377309E+03  0.7561462E-02  0.1216415E+00
          1   -1    0    0  501    0  0.00000000000E+00  0.00000000000E+00  0.13635729318E+03  0.13635729318E+03  0.00000000000E+00 0. -1.
         -1   -1    0    0    0  501 -0.00000000000E+00 -0.00000000000E+00 -0.20292336226E+03  0.20292336226E+03  0.00000000000E+00 0.  1.
         25    2    1    2    0    0 -0.11678315981E+03 -0.45901651040E+02 -0.37003149002E+02  0.18101031873E+03  0.12510089715E+03 0.  0.
          5    1    3    3  502    0 -0.12654671289E+03 -0.45024298818E+02 -0.66290901508E+02  0.14984396568E+03  0.41800000000E+01 0.  1.
         -5    1    3    3    0  502  0.97635530794E+01 -0.87735222241E+00  0.29287752507E+02  0.31166353052E+02  0.41800000000E+01 0.  1.
        -11    1    1    2    0    0  0.26568941480E+02  0.27714791971E+02  0.29934277151E+02  0.48683460167E+02  0.00000000000E+00 0. -1.
         11    1    1    2    0    0  0.90214218330E+02  0.18186859069E+02 -0.59497197231E+02  0.10958687654E+03  0.00000000000E+00 0.  1.
</event>
<event>
 7    1  0.2601031E-009  0.2678244E+03  0.7561462E-02  0.1102531E+00
          2   -1    0    0  501    0  0.00000000000E+00  0.00000000000E+00  0.50472892297E+03  0.50472892297E+03  0.00000000000E+00 0. -1.
         -2   -1    0    0    0  501 -0.00000000000E+00 -0.00000000000E+00 -0.16761724026E+03  0.16761724026E+03  0.00000000000E+00 0.  1.
         25    2    1    2    0    0 -0.20514928857E+03  0.16282903708E+03  0.98717684829E+02  0.30658060473E+03  0.12508780907E+03 0.  0.
          5    1    3    3  502    0 -0.91597777948E+02  0.48224768378E+02 -0.20911552889E+02  0.10569080686E+03  0.41800000000E+01 0. -1.
         -5    1    3    3    0  502 -0.11355151063E+03  0.11460426870E+03  0.11962923772E+03  0.20088979787E+03  0.41800000000E+01 0. -1.
        -11    1    1    2    0    0  0.95195279901E+02 -0.11876110572E+03  0.17312443358E+03  0.23051770225E+03  0.00000000000E+00 0.  1.
         11    1    1    2    0    0  0.10995400867E+03 -0.44067931363E+02  0.65269564303E+02  0.13524785626E+03  0.00000000000E+00 0. -1.
</event>
<event>
 7    1  0.2601031E-009  0.1085337E+03  0.7561462E-02  0.1263310E+00
         -1   -1    0    0    0  501 -0.00000000000E+00  0.00000000000E+00  0.94005735623E+01  0.94005735623E+01  0.00000000000E+00 0.  1.
          1   -1    0    0  501    0  0.00000000000E+00 -0.00000000000E+00 -0.16820418939E+04  0.16820418939E+04  0.00000000000E+00 0. -1.
         25    2    1    2    0    0  0.10351436211E+02 -0.24942083206E+01 -0.12959651017E+04  0.13020316951E+04  0.12509043495E+03 0.  0.
          5    1    3    3  502    0 -0.53429349566E+02 -0.86119906605E+01 -0.81407038925E+03  0.81587801345E+03  0.41800000000E+01 0.  1.
         -5    1    3    3    0  502  0.63780785777E+02  0.61177823399E+01 -0.48189471247E+03  0.48615368167E+03  0.41800000000E+01 0.  1.
        -11    1    1    2    0    0 -0.26751277136E+02  0.45371655273E+02 -0.18905038638E+03  0.19625051980E+03  0.00000000000E+00 0. -1.
         11    1    1    2    0    0  0.16399840925E+02 -0.42877446952E+02 -0.18762583222E+03  0.19316025252E+03  0.00000000000E+00 0.  1.
</event>
<event>
 7    1  0.2601031E-009  0.1195295E+03  0.7561462E-02  0.1243875E+00
          3   -1    0    0  501    0  0.00000000000E+00  0.00000000000E+00  0.70291616583E+02  0.70291616583E+02  0.00000000000E+00 0. -1.
         -3   -1    0    0    0  501 -0.00000000000E+00 -0.00000000000E+00 -0.26802195735E+03  0.26802195735E+03  0.00000000000E+00 0.  1.
         25    2    1    2    0    0 -0.28070078465E+02 -0.59415914511E+02 -0.38669240064E+02  0.14649827649E+03  0.12509298416E+03 0.  0.
          5    1    3    3  502    0 -0.72949862720E+02 -0.36697295292E+02 -0.48507394985E+02  0.95072675995E+02  0.41800000000E+01 0. -1.
         -5    1    3    3    0  502  0.44879784254E+02 -0.22718619219E+02  0.98381549209E+01  0.51425600494E+02  0.41800000000E+01 0. -1.
        -11    1    1    2    0    0 -0.19029959003E+02 -0.11089815133E+02 -0.26529845819E+02  0.34481242126E+02  0.00000000000E+00 0.  1.
         11    1    1    2    0    0  0.47100037468E+02  0.70505729644E+02 -0.13253125489E+03  0.15733405532E+03  0.00000000000E+00 0. -1.
</event>
<event>
 7    1  0.2601031E-009  0.1052682E+03  0.7561462E-02  0.1269592E+00
          2   -1    0    0  501    0  0.00000000000E+00  0.00000000000E+00  0.12491652300E+03  0.12491652300E+03  0.00000000000E+00 0. -1.
         -2   -1    0    0    0  501 -0.00000000000E+00 -0.00000000000E+00 -0.10777788489E+03  0.10777788489E+03  0.00000000000E+00 0.  1.
         25    2    1    2    0    0 -0.34468991710E+02 -0.79284297563E+01  0.36030071811E+02  0.13489536460E+03  0.12509045499E+03 0.  0.
          5    1    3    3  502    0 -0.68510272532E+02  0.30813960706E+02  0.69906986859E+01  0.75561232685E+02  0.41800000000E+01 0.  1.
         -5    1    3    3    0  502  0.34041280822E+02 -0.38742390462E+02  0.29039373125E+02  0.59334131916E+02  0.41800000000E+01 0.  1.
        -11    1    1    2    0    0  0.18249197519E+02 -0.34006977669E+02 -0.32889829936E+02  0.50707481238E+02  0.00000000000E+00 0.  1.
         11    1    1    2    0    0  0.16219794191E+02  0.41935407425E+02  0.13998396234E+02  0.47091562054E+02  0.00000000000E+00 0. -1.
</event>
<event>
 7    1  0.2601031E-009  0.6947785E+02  0.7561462E-02  0.1361878E+00
          1   -1    0    0  501    0  0.00000000000E+00  0.00000000000E+00  0.19666630616E+03  0.19666630616E+03  0.00000000000E+00 0. -1.
         -1   -1    0    0    0  501 -0.00000000000E+00 -0.00000000000E+00 -0.85936198611E+02  0.85936198611E+02  0.00000000000E+00 0.  1.
         25    2    1    2    0    0  0.16189384768E+02 -0.43144439609E+02  0.11889934258E+03  0.17863202208E+03  0.12509519095E+03 0.  0.
          5    1    3    3  502    0  0.46798691691E+02 -0.25189888762E+02 -0.12049558280E+01  0.53325156900E+02  0.41800000000E+01 0.  1.
         -5    1    3    3    0  502 -0.30609306924E+02 -0.17954550848E+02  0.12010429840E+03  0.12530686518E+03  0.41800000000E+01 0.  1.
        -11    1    1    2    0    0 -0.17955193264E+02  0.20715321796E+02 -0.49687450369E+02  0.56748182759E+02  0.00000000000E+00 0.  1.
         11    1    1    2    0    0  0.17658084966E+01  0.22429117813E+02  0.41518215340E+02  0.47222299928E+02  0.00000000000E+00 0. -1.
</event>
<event>
 7    1  0.2601031E-009  0.7356548E+02  0.7561462E-02  0.1348372E+00
          4   -1    0    0  501    0  0.00000000000E+00  0.00000000000E+00  0.41703784189E+02  0.41703784189E+02  0.00000000000E+00 0. -1.
         -4   -1    0    0    0  501 -0.00000000000E+00 -0.00000000000E+00 -0.35206699240E+03  0.35206699240E+03  0.00000000000E+00 0.  1.
         25    2    1    2    0    0  0.36706277566E+02 -0.47464660042E+02 -0.17262856016E+03  0.22146780119E+03  0.12508845835E+03 0.  0.
          5    1    3    3  502    0  0.18653240656E+02 -0.26257463675E+01  0.17009217522E+02  0.25722049134E+02  0.41800000000E+01 0. -1.
         -5    1    3    3    0  502  0.18053036910E+02 -0.44838913674E+02 -0.18963777769E+03  0.19574575205E+03  0.41800000000E+01 0. -1.
        -11    1    1    2    0    0 -0.19047036198E+02 -0.83351634728E+01  0.19206439521E+01  0.20879497389E+02  0.00000000000E+00 0. -1.
         11    1    1    2    0    0 -0.17659241368E+02  0.55799823514E+02 -0.13965529200E+03  0.15142347801E+03  0.00000000000E+00 0.  1.
</event>
<event>
 7    1  0.2601031E-009  0.7698830E+02  0.7561462E-02  0.1337822E+00
          2   -1    0    0  501    0  0.00000000000E+00  0.00000000000E+00  0.33750796485E+03  0.33750796485E+03  0.00000000000E+00 0. -1.
         -2   -1    0    0    0  501 -0.00000000000E+00 -0.00000000000E+00 -0.60394960205E+02  0.60394960205E+02  0.00000000000E+00 0.  1.
         25    2    1    2    0    0 -0.14201851100E+02 -0.15585785858E+02  0.28134612449E+03  0.30862634370E+03  0.12509983598E+03 0.  0.
          5    1    3    3  502    0 -0.36084981281E+02  0.24454859534E+02  0.24829936396E+03  0.25213133992E+03  0.41800000000E+01 0. -1.
         -5    1    3    3    0  502  0.21883130181E+02 -0.40040645392E+02  0.33046760532E+02  0.56495003776E+02  0.41800000000E+01 0. -1.
        -11    1    1    2    0    0  0.26343819106E+01  0.38556042004E+02 -0.32907441184E+02  0.50758329644E+02  0.00000000000E+00 0.  1.
         11    1    1    2    0    0  0.11567469190E+02 -0.22970256145E+02  0.28674321336E+02  0.38518251712E+02  0.00000000000E+00 0. -1.
</event>
<event>
 7    1  0.2601031E-009  0.1193646E+03  0.7561462E-02  0.1244149E+00
         -3   -1    0    0    0  501 -0.00000000000E+00  0.00000000000E+00  0.47540574223E+02  0.47540574223E+02  0.00000000000E+00 0.  1.
          3   -1    0    0  501    0  0.00000000000E+00 -0.00000000000E+00 -0.34250176653E+03  0.34250176653E+03  0.00000000000E+00 0. -1.
         25    2    1    2    0    0 -0.70040067479E+01 -0.62860626729E+02 -0.13177949700E+03  0.19238865191E+03  0.12508814112E+03 0.  0.
          5    1    3    3  502    0 -0.60349203947E+02 -0.34931237940E+02 -0.34512142219E+02  0.77915198528E+02  0.41800000000E+01 0. -1.
         -5    1    3    3    0  502  0.53345197199E+02 -0.27929388789E+02 -0.97267354779E+02  0.11447345338E+03  0.41800000000E+01 0. -1.
        -11    1    1    2    0    0  0.47613217072E+02  0.30001458539E+02 -0.10726950300E+03  0.12113567694E+03  0.00000000000E+00 0.  1.
         11    1    1    2    0    0 -0.40609210324E+02  0.32859168190E+02 -0.55912192313E+02  0.76518011909E+02  0.00000000000E+00 0. -1.
</event>
<event>
 7    1  0.2601031E-009  0.1001674E+03  0.7561462E-02  0.1279944E+00
          1   -1    0    0  501    0  0.00000000000E+00  0.00000000000E+00  0.22419057448E+03  0.22419057448E+03  0.00000000000E+00 0. -1.
         -1   -1    0    0    0  501 -0.00000000000E+00 -0.00000000000E+00 -0.77021264693E+02  0.77021264693E+02  0.00000000000E+00 0.  1.
         25    2    1    2    0    0  0.64686573382E+02 -0.34653380659E+02  0.67964183353E+02  0.16016212915E+03  0.12509023874E+03 0.  0.
          5    1    3    3  502    0 -0.19606733131E+02 -0.22351262201E+02  0.68587187868E+02  0.74871073491E+02  0.41800000000E+01 0.  1.
         -5    1    3    3    0  502  0.84293306513E+02 -0.12302118458E+02 -0.62300451470E+00  0.85291055663E+02  0.41800000000E+01 0.  1.
        -11    1    1    2    0    0  0.47693829895E+01  0.10419414473E+02 -0.16655321046E+02  0.20216600387E+02  0.00000000000E+00 0.  1.
         11    1    1    2    0    0 -0.69455956372E+02  0.24233966186E+02  0.95860447483E+02  0.12083310964E+03  0.00000000000E+00 0. -1.
</event>
<event>
 7    1  0.2601031E-009  0.9541761E+02  0.7561462E-02  0.1290238E+00
         -2   -1    0    0    0  501 -0.00000000000E+00  0.00000000000E+00  0.11044169723E+03  0.11044169723E+03  0.00000000000E+00 0.  1.
          2   -1    0    0  501    0  0.00000000000E+00 -0.00000000000E+00 -0.14844717116E+03  0.14844717116E+03  0.00000000000E+00 0. -1.
         25    2    1    2    0    0 -0.30111210100E+02 -0.59872477900E+02 -0.11722640525E+02  0.14239482160E+03  0.12508983306E+03 0.  0.
          5    1    3    3  502    0 -0.31149800518E+02 -0.79597723715E+02  0.34255306438E+02  0.92179206506E+02  0.41800000000E+01 0.  1.
         -5    1    3    3    0  502  0.10385904174E+01  0.19725245815E+02 -0.45977946963E+02  0.50215615096E+02  0.41800000000E+01 0.  1.
        -11    1    1    2    0    0  0.83173797329E+01  0.62558121735E+02  0.19219485455E+02  0.65970341986E+02  0.00000000000E+00 0.  1.
         11    1    1    2    0    0  0.21793830367E+02 -0.26856438351E+01 -0.45502318864E+02  0.50523704802E+02  0.00000000000E+00 0. -1.
</event>
<event>
 7    1  0.2601031E-009  0.1239242E+03  0.7561462E-02  0.1236760E+00
          1   -1    0    0  501    0  0.00000000000E+00  0.00000000000E+00  0.17537010621E+03  0.17537010621E+03  0.00000000000E+00 0. -1.
         -1   -1    0    0    0  501 -0.00000000000E+00 -0.00000000000E+00 -0.13128465942E+03  0.13128465942E+03  0.00000000000E+00 0.  1.
         25    2    1    2    0    0  0.78456238458E+02  0.71275949845E+02  0.37325836379E+02  0.16815655419E+03  0.12509103196E+03 0.  0.
          5    1    3    3  502    0  0.91132953827E+02  0.38433601998E+02 -0.19771008015E+02  0.10094910695E+03  0.41800000000E+01 0. -1.
         -5    1    3    3    0  502 -0.12676715369E+02  0.32842347848E+02  0.57096844394E+02  0.67207447239E+02  0.41800000000E+01 0. -1.
        -11    1    1    2    0    0 -0.31743098063E+02 -0.47232212592E+01 -0.34668333624E+02  0.47242210469E+02  0.00000000000E+00 0.  1.
         11    1    1    2    0    0 -0.46713140395E+02 -0.66552728586E+02  0.41427944036E+02  0.91256000980E+02  0.00000000000E+00 0. -1.
</event>
<event>
 7    1  0.2601031E-009  0.1252019E+03  0.7561462E-02  0.1234754E+00
         -2   -1    0    0    0  501 -0.00000000000E+00  0.00000000000E+00  0.10985167053E+02  0.10985167053E+02  0.00000000000E+00 0.  1.
          2   -1    0    0  501    0  0.00000000000E+00 -0.00000000000E+00 -0.30237143336E+04  0.30237143336E+04  0.00000000000E+00 0. -1.
         25    2    1    2    0    0 -0.52753905071E+02 -0.67455312750E+02 -0.25913709092E+04  0.25958011909E+04  0.12508972808E+03 0.  0.
          5    1    3    3  502    0  0.51682217959E+01  0.22784717096E+02 -0.12225233763E+04  0.12227537495E+04  0.41800000000E+01 0. -1.
         -5    1    3    3    0  502 -0.57922126867E+02 -0.90240029846E+02 -0.13688475329E+04  0.13730474414E+04  0.41800000000E+01 0. -1.
        -11    1    1    2    0    0 -0.22081744422E+02  0.24853321876E+02 -0.16938505831E+03  0.17261688511E+03  0.00000000000E+00 0.  1.
         11    1    1    2    0    0  0.74835649493E+02  0.42601990874E+02 -0.25197319900E+03  0.26628142458E+03  0.00000000000E+00 0. -1.
</event>
<event>
 7    1  0.2601031E-009  0.2099651E+03  0.7561462E-02  0.1141594E+00
          1   -1    0    0  501    0  0.00000000000E+00  0.00000000000E+00  0.26277121898E+03  0.26277121898E+03  0.00000000000E+00 0. -1.
         -1   -1    0    0    0  501 -0.00000000000E+00 -0.00000000000E+00 -0.19897458755E+03  0.19897458755E+03  0.00000000000E+00 0.  1.
         25    2    1    2    0    0 -0.13724113264E+03  0.13764233252E+03 -0.17786335736E+02  0.23182690494E+03  0.12508724925E+03 0.  0.
          5    1    3    3  502    0  0.10602637476E+02 -0.82277413130E+01 -0.19558363561E+02  0.24085548234E+02  0.41800000000E+01 0. -1.
         -5    1    3    3    0  502 -0.14784377012E+03  0.14587007383E+03  0.17720278247E+01  0.20774135670E+03  0.41800000000E+01 0. -1.
        -11    1    1    2    0    0  0.90909714393E+02 -0.11493749272E+03  0.97391918456E+02  0.17595564551E+03  0.00000000000E+00 0. -1.
         11    1    1    2    0    0  0.46331418246E+02 -0.22704839795E+02 -0.15808951293E+02  0.53963256090E+02  0.00000000000E+00 0.  1.
</event>
<event>
 7    1  0.2601031E-009  0.1088267E+03  0.7561462E-02  0.1262758E+00
         -2   -1    0    0    0  501 -0.00000000000E+00  0.00000000000E+00  0.14270372565E+03  0.14270372565E+03  0.00000000000E+00 0. -1.
          2   -1    0    0  501    0  0.00000000000E+00 -0.00000000000E+00 -0.12867677576E+03  0.12867677576E+03  0.00000000000E+00 0.  1.
         25    2    1    2    0    0 -0.19204951204E+02  0.19412573815E+02 -0.67912311317E+02  0.14493161361E+03  0.12508961757E+03 0.  0.
          5    1    3    3  502    0  0.20310310423E+02  0.60639031705E+02 -0.58758026037E+02  0.86945838885E+02  0.41800000000E+01 0.  1.
         -5    1    3    3    0  502 -0.39515261628E+02 -0.41226457890E+02 -0.91542852805E+01  0.57985774727E+02  0.41800000000E+01 0.  1.
        -11    1    1    2    0    0 -0.80301209444E+01 -0.52694686066E+02  0.45378553695E+02  0.70003042201E+02  0.00000000000E+00 0. -1.
         11    1    1    2    0    0  0.27235072149E+02  0.33282112251E+02  0.36560707515E+02  0.56445845594E+02  0.00000000000E+00 0.  1.
</event>
<event>
 7    1  0.2601031E-009  0.3446926E+03  0.7561462E-02  0.1064815E+00
         -2   -1    0    0    0  501 -0.00000000000E+00  0.00000000000E+00  0.98697025043E+03  0.98697025043E+03  0.00000000000E+00 0.  1.
          2   -1    0    0  501    0  0.00000000000E+00 -0.00000000000E+00 -0.17720189283E+03  0.17720189283E+03  0.00000000000E+00 0. -1.
         25    2    1    2    0    0  0.56041783054E+02 -0.32996748946E+03  0.72333538401E+03  0.80677157247E+03  0.12508823616E+03 0.  0.
          5    1    3    3  502    0  0.88639048945E+02 -0.21286609533E+03  0.40602973354E+03  0.46695446508E+03  0.41800000000E+01 0. -1.
         -5    1    3    3    0  502 -0.32597265891E+02 -0.11710139413E+03  0.31730565047E+03  0.33981710739E+03  0.41800000000E+01 0. -1.
        -11    1    1    2    0    0 -0.45663380471E+02  0.14822400319E+03  0.81696878647E+02  0.17529939937E+03  0.00000000000E+00 0. -1.
         11    1    1    2    0    0 -0.10378402583E+02  0.18174348627E+03  0.47360949399E+01  0.18210117143E+03  0.00000000000E+00 0.  1.
</event>
<event>
 7    1  0.2601031E-009  0.1495566E+03  0.7561462E-02  0.1201019E+00
          2   -1    0    0  501    0  0.00000000000E+00  0.00000000000E+00  0.16830196621E+04  0.16830196621E+04  0.00000000000E+00 0. -1.
         -2   -1    0    0    0  501 -0.00000000000E+00 -0.00000000000E+00 -0.19353699158E+02  0.19353699158E+02  0.00000000000E+00 0.  1.
         25    2    1    2    0    0  0.75158862226E+02  0.10607767704E+03  0.11641498318E+04  0.11780470587E+04  0.12509481818E+03 0.  0.
          5    1    3    3  502    0  0.51176030395E+02  0.10621608571E+03  0.11298118492E+04  0.11359547218E+04  0.41800000000E+01 0.  1.
         -5    1    3    3    0  502  0.23982831831E+02 -0.13840867181E+00  0.34337982611E+02  0.42092336944E+02  0.41800000000E+01 0.  1.
        -11    1    1    2    0    0 -0.35475797720E+02  0.76924171400E+01  0.80023009984E+02  0.87871426711E+02  0.00000000000E+00 0.  1.
         11    1    1    2    0    0 -0.39683064507E+02 -0.11377009418E+03  0.41949312114E+03  0.43645487582E+03  0.00000000000E+00 0. -1.
</event>
<event>
 7    1  0.2601031E-009  0.1199549E+03  0.7561462E-02  0.1243171E+00
          2   -1    0    0  501    0  0.00000000000E+00  0.00000000000E+00  0.11602056156E+04  0.11602056156E+04  0.00000000000E+00 0. -1.
         -2   -1    0    0    0  501 -0.00000000000E+00 -0.00000000000E+00 -0.18038869820E+02  0.18038869820E+02  0.00000000000E+00 0.  1.
         25    2    1    2    0    0  0.93327449376E+02  0.19488345190E+02  0.64840995613E+03  0.66721254518E+03  0.12508917155E+03 0.  0.
          5    1    3    3  502    0  0.89127094375E+02 -0.10792563144E+01  0.20862133117E+03  0.22690336261E+03  0.41800000000E+01 0. -1.
         -5    1    3    3    0  502  0.42003550019E+01  0.20567601504E+02  0.43978862496E+03  0.44030918258E+03  0.41800000000E+01 0. -1.
        -11    1    1    2    0    0 -0.10635252368E+03 -0.32153211688E+02  0.45270203628E+03  0.46613712786E+03  0.00000000000E+00 0. -1.
         11    1    1    2    0    0  0.13025074299E+02  0.12664866499E+02  0.41054753333E+02  0.44894812342E+02  0.00000000000E+00 0.  1.
</event>
<event>
 7    1  0.2601031E-009  0.2383172E+03  0.7561462E-02  0.1120919E+00
         -1   -1    0    0    0  501 -0.00000000000E+00  0.00000000000E+00  0.21212376289E+03  0.21212376289E+03  0.00000000000E+00 0.  1.
          1   -1    0    0  501    0  0.00000000000E+00 -0.00000000000E+00 -0.36398406972E+03  0.36398406972E+03  0.00000000000E+00 0. -1.
         25    2    1    2    0    0  0.19041978461E+03  0.11223430132E+03  0.60981251343E+02  0.26119350313E+03  0.12508836995E+03 0.  0.
          5    1    3    3  502    0  0.12587483753E+03  0.38121906004E+01  0.15270743082E+02  0.12692389655E+03  0.41800000000E+01 0. -1.
         -5    1    3    3    0  502  0.64544947085E+02  0.10842211072E+03  0.45710508261E+02  0.13426960659E+03  0.41800000000E+01 0. -1.
        -11    1    1    2    0    0 -0.99666392352E+02 -0.80917585283E+02 -0.16063679814E+03  0.20563371875E+03  0.00000000000E+00 0.  1.
         11    1    1    2    0    0 -0.90753392261E+02 -0.31316716040E+02 -0.52204760038E+02  0.10928061073E+03  0.00000000000E+00 0. -1.
</event>
<event>
 7    1  0.2601031E-009  0.5648292E+02  0.7561462E-02  0.1413213E+00
         -2   -1    0    0    0  501 -0.00000000000E+00  0.00000000000E+00  0.24164152591E+02  0.24164152591E+02  0.00000000000E+00 0. -1.
          2   -1    0    0  501    0  0.00000000000E+00 -0.00000000000E+00 -0.54207370420E+03  0.54207370420E+03  0.00000000000E+00 0.  1.
         25    2    1    2    0    0  0.32010747527E+01  0.10245325034E+02 -0.38061205656E+03  0.40078507715E+03  0.12509167398E+03 0.  0.
          5    1    3    3  502    0  0.58635841551E+01 -0.24947818661E+01  0.85096562845E+01  0.11423318510E+02  0.41800000000E+01 0. -1.
         -5    1    3    3    0  502 -0.26625094024E+01  0.12740106900E+02 -0.38912171285E+03  0.38936175864E+03  0.41800000000E+01 0. -1.
        -11    1    1    2    0    0  0.37086214299E+02  0.19211880728E+02 -0.52871603418E+02  0.67378706578E+02  0.00000000000E+00 0.  1.
         11    1    1    2    0    0 -0.40287289051E+02 -0.29457205762E+02 -0.84425891633E+02  0.98074073070E+02  0.00000000000E+00 0. -1.
</event>
<event>
 7    1  0.2601031E-009  0.1344253E+03  0.7561462E-02  0.1221033E+00
          2   -1    0    0  501    0  0.00000000000E+00  0.00000000000E+00  0.42543032496E+03  0.42543032496E+03  0.00000000000E+00 0. -1.
         -2   -1    0    0    0  501 -0.00000000000E+00 -0.00000000000E+00 -0.54430109038E+02  0.54430109038E+02  0.00000000000E+00 0.  1.
         25    2    1    2    0    0 -0.90003046354E+02 -0.48017182932E+02  0.24368025265E+03  0.29229051477E+03  0.12508989282E+03 0.  0.
          5    1    3    3  502    0 -0.11564579863E+03 -0.35560173342E+02  0.14197200285E+03  0.18657973808E+03  0.41800000000E+01 0.  1.
         -5    1    3    3    0  502  0.25642752274E+02 -0.12457009590E+02  0.10170824980E+03  0.10571077670E+03  0.41800000000E+01 0.  1.
        -11    1    1    2    0    0  0.44154753775E+02  0.57156373571E+02  0.27389010534E+02  0.77244101514E+02  0.00000000000E+00 0.  1.
         11    1    1    2    0    0  0.45848292579E+02 -0.91391906387E+01  0.99930952747E+02  0.11032581772E+03  0.00000000000E+00 0. -1.
</event>
<event>
 7    1  0.2601031E-009  0.1786582E+03  0.7561462E-02  0.1169108E+00
          3   -1    0    0  501    0  0.00000000000E+00  0.00000000000E+00  0.12257265649E+03  0.12257265649E+03  0.00000000000E+00 0. -1.
         -3   -1    0    0    0  501 -0.00000000000E+00 -0.00000000000E+00 -0.31851470341E+03  0.31851470341E+03  0.00000000000E+00 0.  1.
         25    2    1    2    0    0 -0.38389689301E+02 -0.13676303753E+03 -0.98551752326E+01  0.18953492993E+03  0.12509383881E+03 0.  0.
          5    1    3    3  502    0 -0.80103529572E+02 -0.55477671826E+02 -0.10331516249E+02  0.98074258341E+02  0.41800000000E+01 0. -1.
         -5    1    3    3    0  502  0.41713840271E+02 -0.81285365700E+02  0.47634101619E+00  0.91460671591E+02  0.41800000000E+01 0. -1.
        -11    1    1    2    0    0  0.58810327477E+02  0.44276678871E+02 -0.94612882477E+02  0.11987775624E+03  0.00000000000E+00 0.  1.
         11    1    1    2    0    0 -0.20420638175E+02  0.92486358655E+02 -0.91473989212E+02  0.13167467373E+03  0.00000000000E+00 0. -1.
</event>
<event>
 7    1  0.2601031E-009  0.8058035E+02  0.7561462E-02  0.1327412E+00
          4   -1    0    0  501    0  0.00000000000E+00  0.00000000000E+00  0.10881867254E+02  0.10881867254E+02  0.00000000000E+00 0. -1.
         -4   -1    0    0    0  501 -0.00000000000E+00 -0.00000000000E+00 -0.13296507762E+04  0.13296507762E+04  0.00000000000E+00 0.  1.
         25    2    1    2    0    0 -0.29568918474E+02  0.32975560813E+02 -0.85685044644E+03  0.86706502152E+03  0.12508938975E+03 0.  0.
          5    1    3    3  502    0 -0.37558314534E+02  0.36114773949E+02 -0.12949848574E+03  0.13965039956E+03  0.41800000000E+01 0.  1.
         -5    1    3    3    0  502  0.79893960603E+01 -0.31392131366E+01 -0.72735196070E+03  0.72741462196E+03  0.41800000000E+01 0.  1.
        -11    1    1    2    0    0 -0.31627385821E+02 -0.17795025477E+02 -0.10684999396E+03  0.11284447560E+03  0.00000000000E+00 0. -1.
         11    1    1    2    0    0  0.61196304295E+02 -0.15180535335E+02 -0.35506846860E+03  0.36062314638E+03  0.00000000000E+00 0.  1.
</event>
<event>
 7    1  0.2601031E-009  0.2253407E+03  0.7561462E-02  0.1129963E+00
         -2   -1    0    0    0  501 -0.00000000000E+00  0.00000000000E+00  0.16200177368E+03  0.16200177368E+03  0.00000000000E+00 0.  1.
          2   -1    0    0  501    0  0.00000000000E+00 -0.00000000000E+00 -0.32844158214E+03  0.32844158214E+03  0.00000000000E+00 0. -1.
         25    2    1    2    0    0  0.19435659072E+03 -0.36455083010E+02 -0.13448649417E+03  0.26988081493E+03  0.12508229179E+03 0.  0.
          5    1    3    3  502    0  0.20419455502E+03 -0.55925252643E+02 -0.12269035138E+03  0.24473137295E+03  0.41800000000E+01 0. -1.
         -5    1    3    3    0  502 -0.98379643008E+01  0.19470169634E+02 -0.11796142793E+02  0.25149441981E+02  0.41800000000E+01 0. -1.
        -11    1    1    2    0    0 -0.33204730543E+02  0.44310273664E+02  0.30912322055E+01  0.55457282653E+02  0.00000000000E+00 0. -1.
         11    1    1    2    0    0 -0.16115186018E+03 -0.78551906547E+01 -0.35044546497E+02  0.16510525824E+03  0.00000000000E+00 0.  1.
</event>
<event>
 7    1  0.2601031E-009  0.9160026E+02  0.7561462E-02  0.1299022E+00
          2   -1    0    0  501    0  0.00000000000E+00  0.00000000000E+00  0.76008122412E+03  0.76008122412E+03  0.00000000000E+00 0. -1.
         -2   -1    0    0    0  501 -0.00000000000E+00 -0.00000000000E+00 -0.17276759789E+02  0.17276759789E+02  0.00000000000E+00 0.  1.
         25    2    1    2    0    0  0.38537048642E+02  0.69740375846E+01  0.42345016009E+03  0.44327266154E+03  0.12508746167E+03 0.  0.
          5    1    3    3  502    0 -0.16541070943E+02  0.23891141331E+02  0.19571203450E+02  0.35283113051E+02  0.41800000000E+01 0.  1.
         -5    1    3    3    0  502  0.55078119585E+02 -0.16917103747E+02  0.40387895664E+03  0.40798954849E+03  0.41800000000E+01 0.  1.
        -11    1    1    2    0    0  0.26191815186E+02  0.11727658146E+02  0.12915647237E+03  0.13230624892E+03  0.00000000000E+00 0. -1.
         11    1    1    2    0    0 -0.64728863827E+02 -0.18701695731E+02  0.19019783187E+03  0.20177907345E+03  0.00000000000E+00 0.  1.
</event>
<event>
 7    1  0.2601031E-009  0.3552378E+02  0.7561462E-02  0.1543998E+00
          1   -1    0    0  501    0  0.00000000000E+00  0.00000000000E+00  0.28386411630E+03  0.28386411630E+03  0.00000000000E+00 0. -1.
         -1   -1    0    0    0  501 -0.00000000000E+00 -0.00000000000E+00 -0.43539178166E+02  0.43539178166E+02  0.00000000000E+00 0.  1.
         25    2    1    2    0    0  0.18033563844E+02 -0.61304465496E+01  0.15891470398E+03  0.20313773195E+03  0.12509301819E+03 0.  0.
          5    1    3    3  502    0  0.20341229989E+02 -0.50681760605E+01 -0.16903402947E+02  0.27251595866E+02  0.41800000000E+01 0. -1.
         -5    1    3    3    0  502 -0.23076661452E+01 -0.10622704891E+01  0.17581810693E+03  0.17588613608E+03  0.41800000000E+01 0. -1.
        -11    1    1    2    0    0 -0.14742624089E+02 -0.16376039344E+02  0.95166088816E+02  0.97683694085E+02  0.00000000000E+00 0. -1.
         11    1    1    2    0    0 -0.32909397547E+01  0.22506485894E+02 -0.13755854665E+02  0.26581868432E+02  0.00000000000E+00 0.  1.
</event>
<event>
 7    1  0.2601031E-009  0.1236517E+03  0.7561462E-02  0.1237192E+00
          1   -1    0    0  501    0  0.00000000000E+00  0.00000000000E+00  0.23260087317E+02  0.23260087317E+02  0.00000000000E+00 0. -1.
         -1   -1    0    0    0  501 -0.00000000000E+00 -0.00000000000E+00 -0.95490194365E+03  0.95490194365E+03  0.00000000000E+00 0.  1.
         25    2    1    2    0    0  0.44480967287E+02 -0.91488413324E+02 -0.47781416089E+03  0.50428445143E+03  0.12509096444E+03 0.  0.
          5    1    3    3  502    0  0.48628977546E+01 -0.64588289915E+02 -0.77476220583E+02  0.10107092621E+03  0.41800000000E+01 0.  1.
         -5    1    3    3    0  502  0.39618069533E+02 -0.26900123409E+02 -0.40033794031E+03  0.40321352523E+03  0.41800000000E+01 0.  1.
        -11    1    1    2    0    0 -0.33298274162E+02 -0.79733997476E+01 -0.15489069310E+03  0.15863000024E+03  0.00000000000E+00 0. -1.
         11    1    1    2    0    0 -0.11182693126E+02  0.99461813072E+02 -0.29893700234E+03  0.31524757930E+03  0.00000000000E+00 0.  1.
</event>
<event>
 7    1  0.2601031E-009  0.1191550E+03  0.7561462E-02  0.1244498E+00
          3   -1    0    0  501    0  0.00000000000E+00  0.00000000000E+00  0.41128347180E+03  0.41128347180E+03  0.00000000000E+00 0. -1.
         -3   -1    0    0    0  501 -0.00000000000E+00 -0.00000000000E+00 -0.47437210227E+02  0.47437210227E+02  0.00000000000E+00 0.  1.
         25    2    1    2    0    0  0.76950276712E+02  0.29616473373E+02  0.23145690684E+03  0.27571384271E+03  0.12508933910E+03 0.  0.
          5    1    3    3  502    0  0.52937998753E+02 -0.35629041944E+02  0.49454816356E+02  0.80840037127E+02  0.41800000000E+01 0. -1.
         -5    1    3    3    0  502  0.24012277959E+02  0.65245515317E+02  0.18200209048E+03  0.19487380558E+03  0.41800000000E+01 0. -1.
        -11    1    1    2    0    0 -0.84023941538E+02 -0.39267706699E+02  0.61892866328E+02  0.11150202888E+03  0.00000000000E+00 0.  1.
         11    1    1    2    0    0  0.70736648264E+01  0.96512333259E+01  0.70496488409E+02  0.71504810445E+02  0.00000000000E+00 0. -1.
</event>
<event>
 7    1  0.2601031E-009  0.1114608E+03  0.7561462E-02  0.1257888E+00
         -1   -1    0    0    0  501 -0.00000000000E+00  0.00000000000E+00  0.29841636278E+02  0.29841636278E+02  0.00000000000E+00 0.  1.
          1   -1    0    0  501    0  0.00000000000E+00 -0.00000000000E+00 -0.43654333592E+03  0.43654333592E+03  0.00000000000E+00 0. -1.
         25    2    1    2    0    0  0.27040142463E+02  0.33909354977E+02 -0.25198735674E+03  0.28465037672E+03  0.12508874990E+03 0.  0.
          5    1    3    3  502    0  0.21517561449E+02  0.79239297876E+02 -0.19415076359E+03  0.21084084799E+03  0.41800000000E+01 0.  1.
         -5    1    3    3    0  502  0.55225810142E+01 -0.45329942899E+02 -0.57836593158E+02  0.73809528737E+02  0.41800000000E+01 0.  1.
        -11    1    1    2    0    0 -0.46842855492E+02  0.89016280420E+01 -0.68513081662E+02  0.83471758405E+02  0.00000000000E+00 0. -1.
         11    1    1    2    0    0  0.19802713028E+02 -0.42810983019E+02 -0.86201261238E+02  0.98262837072E+02  0.00000000000E+00 0.  1.
</event>
<event>
 7    1  0.2601031E-009  0.2179958E+03  0.7561462E-02  0.1135386E+00
         -2   -1    0    0    0  501 -0.00000000000E+00  0.00000000000E+00  0.54008765355E+02  0.54008765355E+02  0.00000000000E+00 0. -1.
          2   -1    0    0  501    0  0.00000000000E+00 -0.00000000000E+00 -0.94345488115E+03  0.94345488115E+03  0.00000000000E+00 0.  1.
         25    2    1    2    0    0 -0.18669082211E+03  0.58142716856E+02 -0.40100756580E+03  0.46334484145E+03  0.12508931085E+03 0.  0.
          5    1    3    3  502    0 -0.80334432607E+02 -0.36804602239E+02 -0.17509666936E+03  0.19617470742E+03  0.41800000000E+01 0.  1.
         -5    1    3    3    0  502 -0.10635638950E+03  0.94947319095E+02 -0.22591089644E+03  0.26717013403E+03  0.41800000000E+01 0.  1.
        -11    1    1    2    0    0  0.15927444823E+03 -0.23943920957E+02 -0.29842422865E+03  0.33911455506E+03  0.00000000000E+00 0. -1.
         11    1    1    2    0    0  0.27416373879E+02 -0.34198795899E+02 -0.19001432135E+03  0.19500424999E+03  0.00000000000E+00 0.  1.
</event>
<event>
 7    1  0.2955934E-009  0.7237961E+02  0.7561462E-02  0.1352183E+00
          2   -1    0    0  501    0  0.00000000000E+00  0.00000000000E+00  0.29339721713E+03  0.29339721713E+03  0.00000000000E+00 0. -1.
         -2   -1    0    0    0  501 -0.00000000000E+00 -0.00000000000E+00 -0.71961743735E+02  0.71961743735E+02  0.00000000000E+00 0.  1.
         25    2    1    2    0    0 -0.18969476841E+02 -0.50881044047E+02  0.20346700174E+02  0.13787792104E+03  0.12509041213E+03 0.  0.
          5    1    3    3  502    0 -0.32428061654E+02 -0.44986891699E+01  0.64406644248E+02  0.72370612891E+02  0.41800000000E+01 0. -1.
         -5    1    3    3    0  502  0.13458584813E+02 -0.46382354877E+02 -0.44059944074E+02  0.65507308148E+02  0.41800000000E+01 0. -1.
        -11    1    1    2    0    0 -0.84307828291E+01  0.21549939439E+02  0.74117350086E+00  0.23152263974E+02  0.00000000000E+00 0.  1.
         11    1    1    2    0    0  0.27400259671E+02  0.29331104608E+02  0.20034759972E+03  0.20432877586E+03  0.00000000000E+00 0. -1.
</event>
<event>
 7    1  0.2601031E-009  0.6848443E+02  0.7561462E-02  0.1365324E+00
          1   -1    0    0  501    0  0.00000000000E+00  0.00000000000E+00  0.98273695469E+02  0.98273695469E+02  0.00000000000E+00 0. -1.
         -1   -1    0    0    0  501 -0.00000000000E+00 -0.00000000000E+00 -0.13394314018E+03  0.13394314018E+03  0.00000000000E+00 0.  1.
         25    2    1    2    0    0  0.67611641794E+01 -0.23179179641E+02  0.93528916359E+01  0.12774261343E+03  0.12509081099E+03 0.  0.
          5    1    3    3  502    0  0.20603984221E+02  0.82888937900E+01 -0.52330946324E+02  0.57002019870E+02  0.41800000000E+01 0. -1.
         -5    1    3    3    0  502 -0.13842820042E+02 -0.31468073431E+02  0.61683837960E+02  0.70740593563E+02  0.41800000000E+01 0. -1.
        -11    1    1    2    0    0  0.13180828486E+02  0.46918542645E+02  0.12785294969E+01  0.48751600191E+02  0.00000000000E+00 0. -1.
         11    1    1    2    0    0 -0.19941992666E+02 -0.23739363004E+02 -0.46300865841E+02  0.55722622021E+02  0.00000000000E+00 0.  1.
</event>
<event>
 7    1  0.2601031E-009  0.1401335E+03  0.7561462E-02  0.1213149E+00
          4   -1    0    0  501    0  0.00000000000E+00  0.00000000000E+00  0.30893249950E+03  0.30893249950E+03  0.00000000000E+00 0. -1.
         -4   -1    0    0    0  501 -0.00000000000E+00 -0.00000000000E+00 -0.65759177494E+02  0.65759177494E+02  0.00000000000E+00 0.  1.
         25    2    1    2    0    0  0.41324818742E+02 -0.82105704154E+02  0.12325545598E+03  0.19821530148E+03  0.12509320931E+03 0.  0.
          5    1    3    3  502    0 -0.42899640099E+02 -0.12605992384E+02  0.46708151805E+02  0.64795169647E+02  0.41800000000E+01 0. -1.
         -5    1    3    3    0  502  0.84224458841E+02 -0.69499711770E+02  0.76547304171E+02  0.13342013184E+03  0.41800000000E+01 0. -1.
        -11    1    1    2    0    0  0.20233042939E+02 -0.36092533070E+01  0.64974029087E+01  0.21555022165E+02  0.00000000000E+00 0.  1.
         11    1    1    2    0    0 -0.61557861681E+02  0.85714957461E+02  0.11342046312E+03  0.15492135334E+03  0.00000000000E+00 0. -1.
</event>
<event>
 7    1  0.2601031E-009  0.8517801E+02  0.7561462E-02  0.1314968E+00
          1   -1    0    0  501    0  0.00000000000E+00  0.00000000000E+00  0.36137586383E+03  0.36137586383E+03  0.00000000000E+00 0. -1.
         -1   -1    0    0    0  501 -0.00000000000E+00 -0.00000000000E+00 -0.33700449784E+02  0.33700449784E+02  0.00000000000E+00 0.  1.
         25    2    1    2    0    0  0.30792026909E+02  0.15104531010E+02  0.19391917610E+03  0.23329978453E+03  0.12509135391E+03 0.  0.
          5    1    3    3  502    0  0.21557555269E+02 -0.31484111131E+02  0.53021932382E+01  0.38750007690E+02  0.41800000000E+01 0. -1.
         -5    1    3    3    0  502  0.92344716398E+01  0.46588642141E+02  0.18861698286E+03  0.19454977684E+03  0.41800000000E+01 0. -1.
        -11    1    1    2    0    0  0.21954100418E+02  0.11967440741E+02  0.15305283171E+02  0.29316443441E+02  0.00000000000E+00 0.  1.
         11    1    1    2    0    0 -0.52746127326E+02 -0.27071971751E+02  0.11845095477E+03  0.13246008565E+03  0.00000000000E+00 0. -1.
</event>
<event>
 7    1  0.2601031E-009  0.9777862E+02  0.7561462E-02  0.1285038E+00
          2   -1    0    0  501    0  0.00000000000E+00  0.00000000000E+00  0.20510107250E+03  0.20510107250E+03  0.00000000000E+00 0. -1.
         -2   -1    0    0    0  501 -0.00000000000E+00 -0.00000000000E+00 -0.84533280202E+02  0.84533280202E+02  0.00000000000E+00 0.  1.
         25    2    1    2    0    0 -0.54525727010E+02 -0.49920038307E+02  0.61791102745E+02  0.15789466402E+03  0.12509004523E+03 0.  0.
          5    1    3    3  502    0 -0.12873369666E+02  0.15099626859E+02 -0.31038546090E+02  0.37075411275E+02  0.41800000000E+01 0.  1.
         -5    1    3    3    0  502 -0.41652357344E+02 -0.65019665166E+02  0.92829648835E+02  0.12081925274E+03  0.41800000000E+01 0.  1.
        -11    1    1    2    0    0  0.65632842942E+02  0.24233005933E+02  0.72342325093E+02  0.10063955807E+03  0.00000000000E+00 0. -1.
         11    1    1    2    0    0 -0.11107115933E+02  0.25687032374E+02 -0.13565635539E+02  0.31100130612E+02  0.00000000000E+00 0.  1.
</event>
<event>
 7    1  0.2601031E-009  0.1208456E+03  0.7561462E-02  0.1241709E+00
          1   -1    0    0  501    0  0.00000000000E+00  0.00000000000E+00  0.49820974222E+03  0.49820974222E+03  0.00000000000E+00 0. -1.
         -1   -1    0    0    0  501 -0.00000000000E+00 -0.00000000000E+00 -0.34030710788E+02  0.34030710788E+02  0.00000000000E+00 0.  1.
         25    2    1    2    0    0 -0.25733902134E+02  0.66376980189E+02  0.26276681724E+03  0.29960537223E+03  0.12509533008E+03 0.  0.
          5    1    3    3  502    0  0.21599410923E+02  0.88719300601E+02  0.16926201666E+03  0.19236619125E+03  0.41800000000E+01 0.  1.
         -5    1    3    3    0  502 -0.47333313057E+02 -0.22342320412E+02  0.93504800584E+02  0.10723918099E+03  0.41800000000E+01 0.  1.
        -11    1    1    2    0    0 -0.22730176288E+02 -0.27279021996E+02  0.19823518028E+02  0.40666667212E+02  0.00000000000E+00 0.  1.
         11    1    1    2    0    0  0.48464078422E+02 -0.39097958193E+02  0.18158869616E+03  0.19196841356E+03  0.00000000000E+00 0. -1.
</event>
<event>
 7    1  0.2601031E-009  0.1345109E+03  0.7561462E-02  0.1220912E+00
          1   -1    0    0  501    0  0.00000000000E+00  0.00000000000E+00  0.13045022528E+03  0.13045022528E+03  0.00000000000E+00 0. -1.
         -1   -1    0    0    0  501 -0.00000000000E+00 -0.00000000000E+00 -0.21870608438E+03  0.21870608438E+03  0.00000000000E+00 0.  1.
         25    2    1    2    0    0  0.63035264320E+02  0.84466557571E+02 -0.12491917782E+03  0.20581443255E+03  0.12508691283E+03 0.  0.
          5    1    3    3  502    0  0.85542014953E+02  0.10269931935E+03 -0.95544886552E+02  0.16434988367E+03  0.41800000000E+01 0. -1.
         -5    1    3    3    0  502 -0.22506750633E+02 -0.18232761776E+02 -0.29374291268E+02  0.41464548877E+02  0.41800000000E+01 0. -1.
        -11    1    1    2    0    0 -0.14956332611E+02 -0.12545634424E+02  0.51944277557E+02  0.55491375900E+02  0.00000000000E+00 0. -1.
         11    1    1    2    0    0 -0.48078931708E+02 -0.71920923148E+02 -0.15280958842E+02  0.87850501215E+02  0.00000000000E+00 0.  1.
</event>
<event>
 7    1  0.2601031E-009  0.1561419E+03  0.7561462E-02  0.1193123E+00
         -1   -1    0    0    0  501 -0.00000000000E+00  0.00000000000E+00  0.57881289212E+02  0.57881289212E+02  0.00000000000E+00 0.  1.
          1   -1    0    0  501    0  0.00000000000E+00 -0.00000000000E+00 -0.58078384262E+03  0.58078384262E+03  0.00000000000E+00 0. -1.
         25    2    1    2    0    0  0.12451589835E+03 -0.48691503095E+02 -0.16477201367E+03  0.24631711995E+03  0.12508891109E+03 0.  0.
          5    1    3    3  502    0  0.11887466318E+02 -0.62139490044E+02 -0.91123159322E+02  0.11101139871E+03  0.41800000000E+01 0.  1.
         -5    1    3    3    0  502  0.11262843203E+03  0.13447986949E+02 -0.73648854352E+02  0.13530572124E+03  0.41800000000E+01 0.  1.
        -11    1    1    2    0    0 -0.41184069987E+02  0.56094901184E+01 -0.22898740570E+03  0.23272908278E+03  0.00000000000E+00 0. -1.
         11    1    1    2    0    0 -0.83331828360E+02  0.43082012977E+02 -0.12914313403E+03  0.15961892910E+03  0.00000000000E+00 0.  1.
</event>
<event>
 7    1  0.2601031E-009  0.1288430E+03  0.7561462E-02  0.1229183E+00
          1   -1    0    0  501    0  0.00000000000E+00  0.00000000000E+00  0.94191403931E+03  0.94191403931E+03  0.00000000000E+00 0. -1.
         -1   -1    0    0    0  501 -0.00000000000E+00 -0.00000000000E+00 -0.23893634426E+02  0.23893634426E+02  0.00000000000E+00 0.  1.
         25    2    1    2    0    0  0.44989814001E+02  0.95701938833E+02  0.52925821865E+03  0.55402366354E+03  0.12508002753E+03 0.  0.
          5    1    3    3  502    0 -0.21283179377E+01 -0.22829997955E+02  0.26366987632E+02  0.35191319677E+02  0.41800000000E+01 0. -1.
         -5    1    3    3    0  502  0.47118131939E+02  0.11853193679E+03  0.50289123102E+03  0.51883234386E+03  0.41800000000E+01 0. -1.
        -11    1    1    2    0    0 -0.22185245380E+01 -0.17348151701E+02  0.56051977154E+01  0.18365687027E+02  0.00000000000E+00 0.  1.
         11    1    1    2    0    0 -0.42771289463E+02 -0.78353787132E+02  0.38315698851E+03  0.39341832317E+03  0.00000000000E+00 0. -1.
</event>
<event>
 7    1  0.2601031E-009  0.1179348E+03  0.7561462E-02  0.1246543E+00
          2   -1    0    0  501    0  0.00000000000E+00  0.00000000000E+00  0.60688985141E+03  0.60688985141E+03  0.00000000000E+00 0. -1.
         -2   -1    0    0    0  501 -0.00000000000E+00 -0.00000000000E+00 -0.42241965124E+02  0.42241965124E+02  0.00000000000E+00 0.  1.
         25    2    1    2    0    0 -0.52271071969E+02  0.10452091591E+03  0.32495864918E+03  0.36728989405E+03  0.12508739253E+03 0.  0.
          5    1    3    3  502    0 -0.36125563227E+02  0.74004452089E+02  0.32199735254E+03  0.33238754894E+03  0.41800000000E+01 0.  1.
         -5    1    3    3    0  502 -0.16145508742E+02  0.30516463819E+02  0.29612966397E+01  0.34902345113E+02  0.41800000000E+01 0.  1.
        -11    1    1    2    0    0  0.46792043682E+01 -0.28965040904E+02  0.37611213397E+01  0.29580645392E+02  0.00000000000E+00 0.  1.
         11    1    1    2    0    0  0.47591867600E+02 -0.75555875004E+02  0.23592811577E+03  0.25226127709E+03  0.00000000000E+00 0. -1.
</event>
<event>
 7    1  0.2601031E-009  0.1087934E+03  0.7561462E-02  0.1262821E+00
          2   -1    0    0  501    0  0.00000000000E+00  0.00000000000E+00  0.12025780953E+03  0.12025780953E+03  0.00000000000E+00 0.  1.
         -2   -1    0    0    0  501 -0.00000000000E+00 -0.00000000000E+00 -0.17065556160E+03  0.17065556160E+03  0.00000000000E+00 0. -1.
         25    2    1    2    0    0  0.58993265641E+01  0.21938776514E+02  0.64188234313E+02  0.14242091713E+03  0.12508987266E+03 0.  0.
          5    1    3    3  502    0  0.42474418942E+02 -0.37207881151E+02  0.36987733597E+02  0.67631852857E+02  0.41800000000E+01 0.  1.
         -5    1    3    3    0  502 -0.36575092378E+02  0.59146657665E+02  0.27200500716E+02  0.74789064272E+02  0.41800000000E+01 0.  1.
        -11    1    1    2    0    0 -0.89879091798E+01 -0.56191799625E+02 -0.52033985491E+02  0.77109250435E+02  0.00000000000E+00 0.  1.
         11    1    1    2    0    0  0.30885826157E+01  0.34253023111E+02 -0.62552000895E+02  0.71383203562E+02  0.00000000000E+00 0. -1.
</event>
<event>
 7    1  0.2601031E-009  0.9937256E+02  0.7561462E-02  0.1281621E+00
          1   -1    0    0  501    0  0.00000000000E+00  0.00000000000E+00  0.15182987118E+03  0.15182987118E+03  0.00000000000E+00 0. -1.
         -1   -1    0    0    0  501 -0.00000000000E+00 -0.00000000000E+00 -0.10119029242E+03  0.10119029242E+03  0.00000000000E+00 0.  1.
         25    2    1    2    0    0  0.42738911449E+02  0.18141868721E+02  0.64727282682E+02  0.14829924891E+03  0.12508918479E+03 0.  0.
          5    1    3    3  502    0  0.23892119067E+02 -0.39522417910E+02 -0.14352782994E+02  0.48542040034E+02  0.41800000000E+01 0. -1.
         -5    1    3    3    0  502  0.18846792382E+02  0.57664286631E+02  0.79080065676E+02  0.99757208877E+02  0.41800000000E+01 0. -1.
        -11    1    1    2    0    0 -0.54808121323E+02  0.14557076642E+02 -0.32437889583E+02  0.65330355302E+02  0.00000000000E+00 0.  1.
         11    1    1    2    0    0  0.12069209874E+02 -0.32698945363E+02  0.18350185663E+02  0.39390559386E+02  0.00000000000E+00 0. -1.
</event>
<event>
 7    1  0.2601031E-009  0.1549711E+03  0.7561462E-02  0.1194494E+00
          2   -1    0    0  501    0  0.00000000000E+00  0.00000000000E+00  0.34873583586E+03  0.34873583586E+03  0.00000000000E+00 0. -1.
         -2   -1    0    0    0  501 -0.00000000000E+00 -0.00000000000E+00 -0.86342735543E+02  0.86342735543E+02  0.00000000000E+00 0.  1.
         25    2    1    2    0    0 -0.93018816254E+02  0.96107591705E+02  0.13569628514E+03  0.22792444465E+03  0.12508757455E+03 0.  0.
          5    1    3    3  502    0 -0.36857813370E+02  0.99142998191E+02  0.33205381093E+02  0.11094098535E+03  0.41800000000E+01 0. -1.
         -5    1    3    3    0  502 -0.56161002884E+02 -0.30354064866E+01  0.10249090405E+03  0.11698345930E+03  0.41800000000E+01 0. -1.
        -11    1    1    2    0    0  0.10168848007E+02 -0.53627780322E+02  0.93577741814E+02  0.10833345769E+03  0.00000000000E+00 0. -1.
         11    1    1    2    0    0  0.82849968247E+02 -0.42479811383E+02  0.33119073362E+02  0.98820669063E+02  0.00000000000E+00 0.  1.
</event>
<event>
 7    1  0.2601031E-009  0.9154429E+02  0.7561462E-02  0.1299154E+00
         -1   -1    0    0    0  501 -0.00000000000E+00  0.00000000000E+00  0.45412425110E+03  0.45412425110E+03  0.00000000000E+00 0.  1.
          1   -1    0    0  501    0  0.00000000000E+00 -0.00000000000E+00 -0.51624500052E+02  0.51624500052E+02  0.00000000000E+00 0. -1.
         25    2    1    2    0    0  0.17505284784E+02 -0.13098675948E+02  0.39089403904E+03  0.41100330583E+03  0.12509019683E+03 0.  0.
          5    1    3    3  502    0 -0.22640156958E+02 -0.48501176050E+02  0.85738248291E+02  0.10116056744E+03  0.41800000000E+01 0.  1.
         -5    1    3    3    0  502  0.40145441742E+02  0.35402500102E+02  0.30515579075E+03  0.30984273839E+03  0.41800000000E+01 0.  1.
        -11    1    1    2    0    0 -0.52892751726E+01  0.43045513491E+02 -0.21549419687E+02  0.48427989349E+02  0.00000000000E+00 0. -1.
         11    1    1    2    0    0 -0.12216009612E+02 -0.29946837542E+02  0.33155131691E+02  0.46317455965E+02  0.00000000000E+00 0.  1.
</event>
<event>
 7    1  0.2601031E-009  0.3330744E+03  0.7561462E-02  0.1069785E+00
         -1   -1    0    0    0  501 -0.00000000000E+00  0.00000000000E+00  0.17584968000E+04  0.17584968000E+04  0.00000000000E+00 0.  1.
          1   -1    0    0  501    0  0.00000000000E+00 -0.00000000000E+00 -0.65572723108E+02  0.65572723108E+02  0.00000000000E+00 0. -1.
         25    2    1    2    0    0 -0.18083939428E+03  0.26907298492E+03  0.83300831516E+03  0.90258157368E+03  0.12508991276E+03 0.  0.
          5    1    3    3  502    0 -0.12783897349E+03  0.99940167297E+02  0.49443128940E+03  0.52039466995E+03  0.41800000000E+01 0. -1.
         -5    1    3    3    0  502 -0.53000420792E+02  0.16913281762E+03  0.33857702576E+03  0.38218690372E+03  0.41800000000E+01 0. -1.
        -11    1    1    2    0    0  0.41256009008E+02 -0.35473662198E+02  0.93294188936E+02  0.10800113276E+03  0.00000000000E+00 0. -1.
         11    1    1    2    0    0  0.13958338527E+03 -0.23359932272E+03  0.76662157279E+03  0.81348681666E+03  0.00000000000E+00 0.  1.
</event>
<event>
 7    1  0.2678683E-009  0.1064638E+03  0.7561462E-02  0.1267262E+00
         -2   -1    0    0    0  501 -0.00000000000E+00  0.00000000000E+00  0.10719631629E+03  0.10719631629E+03  0.00000000000E+00 0.  1.
          2   -1    0    0  501    0  0.00000000000E+00 -0.00000000000E+00 -0.18597461672E+03  0.18597461672E+03  0.00000000000E+00 0. -1.
         25    2    1    2    0    0 -0.71927625385E+02 -0.84998159570E+01  0.12498348369E+02  0.14508613226E+03  0.12509175391E+03 0.  0.
          5    1    3    3  502    0  0.21379201901E+02  0.28053802555E+02  0.25813206761E+02  0.43907632081E+02  0.41800000000E+01 0.  1.
         -5    1    3    3    0  502 -0.93306827285E+02 -0.36553618512E+02 -0.13314858392E+02  0.10117850018E+03  0.41800000000E+01 0.  1.
        -11    1    1    2    0    0  0.24734876413E+02 -0.96462991778E+01 -0.93776038305E+02  0.97461841555E+02  0.00000000000E+00 0. -1.
         11    1    1    2    0    0  0.47192748971E+02  0.18146115135E+02  0.24993895080E+01  0.50622959197E+02  0.00000000000E+00 0.  1.
</event>
<event>
 7    1  0.2601031E-009  0.1463259E+03  0.7561462E-02  0.1205062E+00
         -2   -1    0    0    0  501 -0.00000000000E+00  0.00000000000E+00  0.51952636535E+02  0.51952636535E+02  0.00000000000E+00 0.  1.
          2   -1    0    0  501    0  0.00000000000E+00 -0.00000000000E+00 -0.50874418685E+03  0.50874418685E+03  0.00000000000E+00 0. -1.
         25    2    1    2    0    0 -0.75626914575E+02  0.82827797234E+02 -0.32270403706E+03  0.36381988025E+03  0.12508851079E+03 0.  0.
          5    1    3    3  502    0 -0.63842644660E+02  0.11513401399E+03 -0.23290032849E+03  0.26756636535E+03  0.41800000000E+01 0. -1.
         -5    1    3    3    0  502 -0.11784269915E+02 -0.32306216761E+02 -0.89803708567E+02  0.96253514903E+02  0.41800000000E+01 0. -1.
        -11    1    1    2    0    0  0.62643225871E+02 -0.25701254531E+02 -0.23396054558E+02  0.71638701837E+02  0.00000000000E+00 0.  1.
         11    1    1    2    0    0  0.12983688704E+02 -0.57126542702E+02 -0.11069145870E+03  0.12523824130E+03  0.00000000000E+00 0. -1.
</event>
<event>
 7    1  0.2601031E-009  0.1454636E+03  0.7561462E-02  0.1206161E+00
          4   -1    0    0  501    0  0.00000000000E+00  0.00000000000E+00  0.35895630681E+02  0.35895630681E+02  0.00000000000E+00 0. -1.
         -4   -1    0    0    0  501 -0.00000000000E+00 -0.00000000000E+00 -0.62530639404E+03  0.62530639404E+03  0.00000000000E+00 0.  1.
         25    2    1    2    0    0 -0.10147023423E+03 -0.43037254640E+01 -0.28251250696E+03  0.32523012643E+03  0.12508632244E+03 0.  0.
          5    1    3    3  502    0 -0.92522218214E+02 -0.51895509364E+02 -0.23196185453E+03  0.25510248747E+03  0.41800000000E+01 0.  1.
         -5    1    3    3    0  502 -0.89480160170E+01  0.47591783900E+02 -0.50550652429E+02  0.70127638962E+02  0.41800000000E+01 0.  1.
        -11    1    1    2    0    0  0.11861724038E+03  0.62198013872E+00 -0.25624421424E+03  0.28236772816E+03  0.00000000000E+00 0. -1.
         11    1    1    2    0    0 -0.17147006147E+02  0.36817453253E+01 -0.50654042157E+02  0.53604170130E+02  0.00000000000E+00 0.  1.
</event>
<event>
 7    1  0.2601031E-009  0.1163683E+03  0.7561462E-02  0.1249211E+00
         -1   -1    0    0    0  501 -0.00000000000E+00  0.00000000000E+00  0.39845164731E+02  0.39845164731E+02  0.00000000000E+00 0.  1.
          1   -1    0    0  501    0  0.00000000000E+00 -0.00000000000E+00 -0.48656263144E+03  0.48656263144E+03  0.00000000000E+00 0. -1.
         25    2    1    2    0    0 -0.36828905176E+02  0.77618079589E+02 -0.22627937790E+03  0.27245135591E+03  0.12508577033E+03 0.  0.
          5    1    3    3  502    0  0.40437750275E+02  0.28899986621E+02 -0.13201782123E+03  0.14112617899E+03  0.41800000000E+01 0.  1.
         -5    1    3    3    0  502 -0.77266655451E+02  0.48718092967E+02 -0.94261556671E+02  0.13132517692E+03  0.41800000000E+01 0.  1.
        -11    1    1    2    0    0 -0.51487583367E+01 -0.16414993287E+02  0.39179096824E+01  0.17644028261E+02  0.00000000000E+00 0.  1.
         11    1    1    2    0    0  0.41977663513E+02 -0.61203086302E+02 -0.22435599849E+03  0.23631241200E+03  0.00000000000E+00 0. -1.
</event>
<event>
 7    1  0.2601031E-009  0.9194101E+02  0.7561462E-02  0.1298218E+00
         -1   -1    0    0    0  501 -0.00000000000E+00  0.00000000000E+00  0.49974755647E+02  0.49974755647E+02  0.00000000000E+00 0.  1.
          1   -1    0    0  501    0  0.00000000000E+00 -0.00000000000E+00 -0.37197141396E+03  0.37197141396E+03  0.00000000000E+00 0. -1.
         25    2    1    2    0    0  0.23864310333E+02 -0.72640106373E+02 -0.13292113658E+03  0.19789449186E+03  0.12509240983E+03 0.  0.
          5    1    3    3  502    0  0.93622440998E+01 -0.22511999431E+02  0.22780049176E+02  0.33628035527E+02  0.41800000000E+01 0.  1.
         -5    1    3    3    0  502  0.14502066233E+02 -0.50128106942E+02 -0.15570118576E+03  0.16426645634E+03  0.41800000000E+01 0.  1.
        -11    1    1    2    0    0 -0.50950422583E+02  0.51399893503E+02 -0.16984781987E+03  0.18462442018E+03  0.00000000000E+00 0. -1.
         11    1    1    2    0    0  0.27086112251E+02  0.21240212870E+02 -0.19227701857E+02  0.39427257555E+02  0.00000000000E+00 0.  1.
</event>
<event>
 7    1  0.2601031E-009  0.1155161E+03  0.7561462E-02  0.1250683E+00
          1   -1    0    0  501    0  0.00000000000E+00  0.00000000000E+00  0.96177311644E+03  0.96177311644E+03  0.00000000000E+00 0. -1.
         -1   -1    0    0    0  501 -0.00000000000E+00 -0.00000000000E+00 -0.14484264536E+02  0.14484264536E+02  0.00000000000E+00 0.  1.
         25    2    1    2    0    0 -0.45545028664E+02  0.19630210747E+02  0.53193560485E+03  0.54869158197E+03  0.12508904670E+03 0.  0.
          5    1    3    3  502    0 -0.20378187169E+02 -0.51399559818E+02  0.29013787211E+03  0.29538896813E+03  0.41800000000E+01 0. -1.
         -5    1    3    3    0  502 -0.25166841495E+02  0.71029770565E+02  0.24179773275E+03  0.25330261384E+03  0.41800000000E+01 0. -1.
        -11    1    1    2    0    0 -0.99350965144E+01  0.26281659760E+02  0.87647621317E+02  0.92040954499E+02  0.00000000000E+00 0.  1.
         11    1    1    2    0    0  0.55480125179E+02 -0.45911870508E+02  0.32770562573E+03  0.33552484450E+03  0.00000000000E+00 0. -1.
</event>
<event>
 7    1  0.2601031E-009  0.4297986E+02  0.7561462E-02  0.1487362E+00
          2   -1    0    0  501    0  0.00000000000E+00  0.00000000000E+00  0.53377076008E+02  0.53377076008E+02  0.00000000000E+00 0. -1.
         -2   -1    0    0    0  501 -0.00000000000E+00 -0.00000000000E+00 -0.15533950866E+03  0.15533950866E+03  0.00000000000E+00 0.  1.
         25    2    1    2    0    0 -0.28428968201E+02 -0.90818482362E+01 -0.88238985941E+02  0.15596597054E+03  0.12509428095E+03 0.  0.
          5    1    3    3  502    0 -0.29888244745E+02  0.82474956782E+01 -0.11754266736E+03  0.12163502542E+03  0.41800000000E+01 0.  1.
         -5    1    3    3    0  502  0.14592765449E+01 -0.17329343914E+02  0.29303681417E+02  0.34330945124E+02  0.41800000000E+01 0.  1.
        -11    1    1    2    0    0  0.48282337379E+01  0.12068974368E+02  0.12015774715E+02  0.17701718146E+02  0.00000000000E+00 0. -1.
         11    1    1    2    0    0  0.23600734463E+02 -0.29871261319E+01 -0.25739221422E+02  0.35048895976E+02  0.00000000000E+00 0.  1.
</event>
<event>
 7    1  0.2601031E-009  0.9425948E+02  0.7561462E-02  0.1292853E+00
         -2   -1    0    0    0  501 -0.00000000000E+00  0.00000000000E+00  0.11589565984E+02  0.11589565984E+02  0.00000000000E+00 0.  1.
          2   -1    0    0  501    0  0.00000000000E+00 -0.00000000000E+00 -0.17470716703E+04  0.17470716703E+04  0.00000000000E+00 0. -1.
         25    2    1    2    0    0 -0.55969980245E+02 -0.50110395051E+02 -0.13228978118E+04  0.13309205784E+04  0.12508906883E+03 0.  0.
          5    1    3    3  502    0 -0.39962700298E+02 -0.22128580900E+02 -0.13504356494E+03  0.14262162648E+03  0.41800000000E+01 0.  1.
         -5    1    3    3    0  502 -0.16007279947E+02 -0.27981814151E+02 -0.11878542469E+04  0.11882989519E+04  0.41800000000E+01 0.  1.
        -11    1    1    2    0    0  0.57678332405E+02 -0.22794679762E+01 -0.26232713674E+03  0.26860289029E+03  0.00000000000E+00 0. -1.
         11    1    1    2    0    0 -0.17083521596E+01  0.52389863027E+02 -0.15025715580E+03  0.15913776762E+03  0.00000000000E+00 0.  1.
</event>
<event>
 7    1  0.2601031E-009  0.1482484E+03  0.7561462E-02  0.1202642E+00
          2   -1    0    0  501    0  0.00000000000E+00  0.00000000000E+00  0.29847322700E+03  0.29847322700E+03  0.00000000000E+00 0. -1.
         -2   -1    0    0    0  501 -0.00000000000E+00 -0.00000000000E+00 -0.10203324271E+03  0.10203324271E+03  0.00000000000E+00 0.  1.
         25    2    1    2    0    0 -0.10209162519E+03  0.88320858688E+02  0.83178907463E+02  0.20196544094E+03  0.12509210477E+03 0.  0.
          5    1    3    3  502    0 -0.27285449336E+02  0.48736682017E+01  0.85311509082E+02  0.89798520973E+02  0.41800000000E+01 0. -1.
         -5    1    3    3    0  502 -0.74806175855E+02  0.83447190487E+02 -0.21326016182E+01  0.11216691997E+03  0.41800000000E+01 0. -1.
        -11    1    1    2    0    0  0.49213003911E+02 -0.90911789440E+02  0.10029444567E+03  0.14403419402E+03  0.00000000000E+00 0.  1.
         11    1    1    2    0    0  0.52878621281E+02  0.25909307521E+01  0.12966631150E+02  0.54506834746E+02  0.00000000000E+00 0. -1.
</event>
<event>
 7    1  0.2920707E-009  0.1151275E+03  0.7561462E-02  0.1251359E+00
         -2   -1    0    0    0  501 -0.00000000000E+00  0.00000000000E+00  0.13686158434E+03  0.13686158434E+03  0.00000000000E+00 0.  1.
          2   -1    0    0  501    0  0.00000000000E+00 -0.00000000000E+00 -0.15771563105E+03  0.15771563105E+03  0.00000000000E+00 0. -1.
         25    2    1    2    0    0  0.62797171751E+02  0.76216153744E+02 -0.15528498584E+02  0.16013725644E+03  0.12510163772E+03 0.  0.
          5    1    3    3  502    0  0.20562100047E+02  0.35073961275E+02  0.54739073264E+02  0.68314136601E+02  0.41800000000E+01 0. -1.
         -5    1    3    3    0  502  0.42235071704E+02  0.41142192469E+02 -0.70267571848E+02  0.91823119836E+02  0.41800000000E+01 0. -1.
        -11    1    1    2    0    0 -0.29196149780E+02  0.15173130733E+02  0.12966295608E+02  0.35366140304E+02  0.00000000000E+00 0.  1.
         11    1    1    2    0    0 -0.33601021971E+02 -0.91389284477E+02 -0.18291843728E+02  0.99073818649E+02  0.00000000000E+00 0. -1.
</event>
<event>
 7    1  0.2601031E-009  0.4337399E+03  0.7561462E-02  0.1032685E+00
          1   -1    0    0  501    0  0.00000000000E+00  0.00000000000E+00  0.86379175088E+03  0.86379175088E+03  0.00000000000E+00 0. -1.
         -1   -1    0    0    0  501 -0.00000000000E+00 -0.00000000000E+00 -0.26454384143E+03  0.26454384143E+03  0.00000000000E+00 0.  1.
         25    2    1    2    0    0  0.37275188868E+03  0.19337054946E+03  0.53855021356E+03  0.69427753733E+03  0.12509526928E+03 0.  0.
          5    1    3    3  502    0  0.21885679445E+03  0.43324638909E+02  0.26952910905E+03  0.34991246596E+03  0.41800000000E+01 0.  1.
         -5    1    3    3    0  502  0.15389509424E+03  0.15004591055E+03  0.26902110452E+03  0.34436507137E+03  0.41800000000E+01 0.  1.
        -11    1    1    2    0    0 -0.10039372783E+03 -0.99318938339E+02  0.29137054037E+02  0.14419472951E+03  0.00000000000E+00 0. -1.
         11    1    1    2    0    0 -0.27235816085E+03 -0.94051611123E+02  0.31560641856E+02  0.28986332547E+03  0.00000000000E+00 0.  1.
</event>
<event>
 7    1  0.2601031E-009  0.9076884E+02  0.7561462E-02  0.1301000E+00
         -2   -1    0    0    0  501 -0.00000000000E+00  0.00000000000E+00  0.19793849268E+02  0.19793849268E+02  0.00000000000E+00 0.  1.
          2   -1    0    0  501    0  0.00000000000E+00 -0.00000000000E+00 -0.74120486379E+03  0.74120486379E+03  0.00000000000E+00 0. -1.
         25    2    1    2    0    0 -0.46978278986E+02  0.10825965021E+02 -0.33138953279E+03  0.35747536173E+03  0.12508177960E+03 0.  0.
          5    1    3    3  502    0 -0.63909621848E+02  0.22938391206E+02 -0.79254643490E+02  0.10444797973E+03  0.41800000000E+01 0. -1.
         -5    1    3    3    0  502  0.16931342863E+02 -0.12112426185E+02 -0.25213488930E+03  0.25302738200E+03  0.41800000000E+01 0. -1.
        -11    1    1    2    0    0 -0.22238756258E+02 -0.15294699832E+00 -0.33647463932E+02  0.40332834040E+02  0.00000000000E+00 0.  1.
         11    1    1    2    0    0  0.69217035244E+02 -0.10673018023E+02 -0.35637401781E+03  0.36319051729E+03  0.00000000000E+00 0. -1.
</event>
<event>
 7    1  0.2601031E-009  0.1371821E+03  0.7561462E-02  0.1217172E+00
         -2   -1    0    0    0  501 -0.00000000000E+00  0.00000000000E+00  0.47184338491E+02  0.47184338491E+02  0.00000000000E+00 0.  1.
          2   -1    0    0  501    0  0.00000000000E+00 -0.00000000000E+00 -0.57569246737E+03  0.57569246737E+03  0.00000000000E+00 0. -1.
         25    2    1    2    0    0 -0.47348128759E+02  0.85452406743E+02 -0.13588586365E+03  0.20894123563E+03  0.12509001914E+03 0.  0.
          5    1    3    3  502    0  0.14855631726E+02  0.92288402105E+02 -0.63081627489E+02  0.11284769862E+03  0.41800000000E+01 0.  1.
         -5    1    3    3    0  502 -0.62203760485E+02 -0.68359953627E+01 -0.72804236162E+02  0.96093537006E+02  0.41800000000E+01 0.  1.
        -11    1    1    2    0    0  0.52304099263E+02 -0.25985237806E+02 -0.10463482672E+03  0.11983070702E+03  0.00000000000E+00 0.  1.
         11    1    1    2    0    0 -0.49559705035E+01 -0.59467168936E+02 -0.28798743852E+03  0.29410486322E+03  0.00000000000E+00 0. -1.
</event>
<event>
 7    1  0.2601031E-009  0.1698106E+03  0.7561462E-02  0.1178045E+00
         -1   -1    0    0    0  501 -0.00000000000E+00  0.00000000000E+00  0.18771739059E+03  0.18771739059E+03  0.00000000000E+00 0.  1.
          1   -1    0    0  501    0  0.00000000000E+00 -0.00000000000E+00 -0.18777210320E+03  0.18777210320E+03  0.00000000000E+00 0. -1.
         25    2    1    2    0    0 -0.14566615935E+03  0.14418152358E+02 -0.41040886046E+02  0.19687030912E+03  0.12508817365E+03 0.  0.
          5    1    3    3  502    0 -0.40027307035E+01  0.40383881292E+02 -0.33156023159E+02  0.52570657148E+02  0.41800000000E+01 0. -1.
         -5    1    3    3    0  502 -0.14166342865E+03 -0.25965728934E+02 -0.78848628873E+01  0.14429965197E+03  0.41800000000E+01 0. -1.
        -11    1    1    2    0    0  0.51690021804E+02 -0.29570878742E+02 -0.23091802257E+02  0.63871171550E+02  0.00000000000E+00 0. -1.
         11    1    1    2    0    0  0.93976137548E+02  0.15152726384E+02  0.64077975700E+02  0.11474801312E+03  0.00000000000E+00 0.  1.
</event>
<event>
 7    1  0.2601031E-009  0.1087816E+03  0.7561462E-02  0.1262843E+00
          1   -1    0    0  501    0  0.00000000000E+00  0.00000000000E+00  0.51585663422E+02  0.51585663422E+02  0.00000000000E+00 0. -1.
         -1   -1    0    0    0  501 -0.00000000000E+00 -0.00000000000E+00 -0.24944495065E+03  0.24944495065E+03  0.00000000000E+00 0.  1.
         25    2    1    2    0    0  0.28778842933E+02  0.12565704033E+02 -0.13304098295E+03  0.18529303455E+03  0.12508991483E+03 0.  0.
          5    1    3    3  502    0  0.70189769142E+02 -0.16204724176E+02 -0.10512232258E+03  0.12750439946E+03  0.41800000000E+01 0.  1.
         -5    1    3    3    0  502 -0.41410926209E+02  0.28770428210E+02 -0.27918660371E+02  0.57788635092E+02  0.41800000000E+01 0.  1.
        -11    1    1    2    0    0 -0.42997332086E+02 -0.43252371621E+02 -0.33199896261E+02  0.69438975577E+02  0.00000000000E+00 0. -1.
         11    1    1    2    0    0  0.14218489153E+02  0.30686667587E+02 -0.31618408017E+02  0.46298603941E+02  0.00000000000E+00 0.  1.
</event>
<event>
 7    1  0.2601031E-009  0.5101509E+02  0.7561462E-02  0.1439942E+00
          1   -1    0    0  501    0  0.00000000000E+00  0.00000000000E+00  0.49526382815E+03  0.49526382815E+03  0.00000000000E+00 0. -1.
         -1   -1    0    0    0  501 -0.00000000000E+00 -0.00000000000E+00 -0.26149299728E+02  0.26149299728E+02  0.00000000000E+00 0.  1.
         25    2    1    2    0    0 -0.49430058397E+01  0.25497344613E+02  0.31503134891E+03  0.33995157754E+03  0.12509107237E+03 0.  0.
          5    1    3    3  502    0 -0.15596895971E+02  0.91497907156E+01 -0.50615088831E+01  0.19237284274E+02  0.41800000000E+01 0. -1.
         -5    1    3    3    0  502  0.10653890131E+02  0.16347553898E+02  0.32009285780E+03  0.32071429327E+03  0.41800000000E+01 0. -1.
        -11    1    1    2    0    0  0.31367249702E+02 -0.17441741396E+02  0.14914023601E+03  0.15339794227E+03  0.00000000000E+00 0. -1.
         11    1    1    2    0    0 -0.26424243863E+02 -0.80556032173E+01  0.49429434941E+01  0.28063608059E+02  0.00000000000E+00 0.  1.
</event>
<event>
 7    1  0.2601031E-009  0.1847788E+03  0.7561462E-02  0.1163257E+00
          2   -1    0    0  501    0  0.00000000000E+00  0.00000000000E+00  0.12204024835E+04  0.12204024835E+04  0.00000000000E+00 0.  1.
         -2   -1    0    0    0  501 -0.00000000000E+00 -0.00000000000E+00 -0.35993610299E+02  0.35993610299E+02  0.00000000000E+00 0. -1.
         25    2    1    2    0    0  0.16611469530E+03  0.71662700392E+02  0.63083632927E+03  0.66808096060E+03  0.12509220983E+03 0.  0.
          5    1    3    3  502    0  0.28982551579E+02  0.30476233321E+01  0.14265587603E+02  0.32714762626E+02  0.41800000000E+01 0. -1.
         -5    1    3    3    0  502  0.13713214372E+03  0.68615077059E+02  0.61657074167E+03  0.63536619797E+03  0.41800000000E+01 0. -1.
        -11    1    1    2    0    0 -0.63779799006E+02 -0.37288915262E+01  0.10218433706E+03  0.12051309528E+03  0.00000000000E+00 0. -1.
         11    1    1    2    0    0 -0.10233489629E+03 -0.67933808865E+02  0.45138820690E+03  0.46780203796E+03  0.00000000000E+00 0.  1.
</event>
<event>
 7    1  0.2601031E-009  0.1256806E+03  0.7561462E-02  0.1234009E+00
         -1   -1    0    0    0  501 -0.00000000000E+00  0.00000000000E+00  0.36937048511E+02  0.36937048511E+02  0.00000000000E+00 0.  1.
          1   -1    0    0  501    0  0.00000000000E+00 -0.00000000000E+00 -0.75798400033E+03  0.75798400033E+03  0.00000000000E+00 0. -1.
         25    2    1    2    0    0  0.10199814332E+03 -0.13322308183E+02 -0.56460299603E+03  0.58737078007E+03  0.12508710970E+03 0.  0.
          5    1    3    3  502    0  0.11313737587E+02  0.18217523671E+02 -0.91863387166E+01  0.23701055797E+02  0.41800000000E+01 0. -1.
         -5    1    3    3    0  502  0.90684405733E+02 -0.31539831854E+02 -0.55541665732E+03  0.56366972427E+03  0.41800000000E+01 0. -1.
        -11    1    1    2    0    0 -0.89039423576E+02  0.44576912334E+02 -0.13400786050E+03  0.16695276799E+03  0.00000000000E+00 0. -1.
         11    1    1    2    0    0 -0.12958719744E+02 -0.31254604151E+02 -0.22436095287E+02  0.40597500782E+02  0.00000000000E+00 0.  1.
</event>
<event>
 7    1  0.2601031E-009  0.9676404E+02  0.7561462E-02  0.1287252E+00
         -1   -1    0    0    0  501 -0.00000000000E+00  0.00000000000E+00  0.70161506660E+02  0.70161506660E+02  0.00000000000E+00 0.  1.
          1   -1    0    0  501    0  0.00000000000E+00 -0.00000000000E+00 -0.29313987948E+03  0.29313987948E+03  0.00000000000E+00 0. -1.
         25    2    1    2    0    0  0.43167300094E+02  0.17004822128E+01 -0.22233687999E+03  0.25874227634E+03  0.12509024713E+03 0.  0.
          5    1    3    3  502    0  0.11341235925E+02 -0.50613860997E+02 -0.17094716500E+03  0.17869189175E+03  0.41800000000E+01 0. -1.
         -5    1    3    3    0  502  0.31826064168E+02  0.52314343210E+02 -0.51389714992E+02  0.80050384589E+02  0.41800000000E+01 0. -1.
        -11    1    1    2    0    0 -0.41968923569E+02 -0.30126617839E+02 -0.33130780074E+02  0.61373057902E+02  0.00000000000E+00 0. -1.
         11    1    1    2    0    0 -0.11983765249E+01  0.28426135626E+02  0.32489287243E+02  0.43186051897E+02  0.00000000000E+00 0.  1.
</event>
<event>
 7    1  0.2601031E-009  0.1186143E+03  0.7561462E-02  0.1245401E+00
         -2   -1    0    0    0  501 -0.00000000000E+00  0.00000000000E+00  0.30724727651E+02  0.30724727651E+02  0.00000000000E+00 0.  1.
          2   -1    0    0  501    0  0.00000000000E+00 -0.00000000000E+00 -0.58273141145E+03  0.58273141145E+03  0.00000000000E+00 0. -1.
         25    2    1    2    0    0  0.31513709296E+02 -0.66002178809E+02 -0.23574047466E+03  0.27671548791E+03  0.12509391820E+03 0.  0.
          5    1    3    3  502    0 -0.28558134058E+02 -0.54177173556E+02 -0.44359022426E+02  0.75735912393E+02  0.41800000000E+01 0. -1.
         -5    1    3    3    0  502  0.60071843355E+02 -0.11825005253E+02 -0.19138145224E+03  0.20097957551E+03  0.41800000000E+01 0. -1.
        -11    1    1    2    0    0 -0.24744289100E+01  0.81515075489E+02 -0.20245915141E+03  0.21826712606E+03  0.00000000000E+00 0.  1.
         11    1    1    2    0    0 -0.29039280386E+02 -0.15512896680E+02 -0.11380705773E+03  0.11847352514E+03  0.00000000000E+00 0. -1.
</event>
<event>
 7    1  0.2601031E-009  0.6148758E+02  0.7561462E-02  0.1391693E+00
         -2   -1    0    0    0  501 -0.00000000000E+00  0.00000000000E+00  0.42954654940E+02  0.42954654940E+02  0.00000000000E+00 0.  1.
          2   -1    0    0  501    0  0.00000000000E+00 -0.00000000000E+00 -0.37871298469E+03  0.37871298469E+03  0.00000000000E+00 0. -1.
         25    2    1    2    0    0  0.83618775116E+01  0.28562104089E+02 -0.28457170345E+03  0.31227514977E+03  0.12509596304E+03 0.  0.
          5    1    3    3  502    0  0.31434150457E+02  0.12174482347E+02 -0.88879448156E+01  0.35111134963E+02  0.41800000000E+01 0.  1.
         -5    1    3    3    0  502 -0.23072272946E+02  0.16387621742E+02 -0.27568375864E+03  0.27716401480E+03  0.41800000000E+01 0.  1.
        -11    1    1    2    0    0  0.22400057540E+02 -0.13440402642E+02  0.18310936272E+02  0.31901369691E+02  0.00000000000E+00 0.  1.
         11    1    1    2    0    0 -0.30761935051E+02 -0.15121701447E+02 -0.69497562570E+02  0.77491120175E+02  0.00000000000E+00 0. -1.
</event>
<event>
 7    1  0.2601031E-009  0.1206868E+03  0.7561462E-02  0.1241968E+00
          2   -1    0    0  501    0  0.00000000000E+00  0.00000000000E+00  0.48679748177E+03  0.48679748177E+03  0.00000000000E+00 0. -1.
         -2   -1    0    0    0  501 -0.00000000000E+00 -0.00000000000E+00 -0.57406538556E+02  0.57406538556E+02  0.00000000000E+00 0.  1.
         25    2    1    2    0    0 -0.18432248050E+02 -0.84527073672E+02  0.85047762097E+02  0.17425550487E+03  0.12508910899E+03 0.  0.
          5    1    3    3  502    0 -0.52055968794E+02 -0.74843158615E+02  0.10583463283E+02  0.91873850326E+02  0.41800000000E+01 0.  1.
         -5    1    3    3    0  502  0.33623720743E+02 -0.96839150561E+01  0.74464298814E+02  0.82381654543E+02  0.41800000000E+01 0.  1.
        -11    1    1    2    0    0  0.26441758465E+02 -0.33300171612E+01  0.18674748934E+02  0.32542308657E+02  0.00000000000E+00 0.  1.
         11    1    1    2    0    0 -0.80095104141E+01  0.87857090833E+02  0.32566843218E+03  0.33740620680E+03  0.00000000000E+00 0. -1.
</event>
<event>
 7    1  0.2601031E-009  0.1011718E+03  0.7561462E-02  0.1277851E+00
          3   -1    0    0  501    0  0.00000000000E+00  0.00000000000E+00  0.44678845406E+02  0.44678845406E+02  0.00000000000E+00 0. -1.
         -3   -1    0    0    0  501 -0.00000000000E+00 -0.00000000000E+00 -0.31513216815E+03  0.31513216815E+03  0.00000000000E+00 0.  1.
         25    2    1    2    0    0 -0.13573108224E+02 -0.13637880093E+02 -0.88634090128E+02  0.15451123318E+03  0.12508996045E+03 0.  0.
          5    1    3    3  502    0 -0.50445554529E+02 -0.45471652988E+02 -0.79725085787E+02  0.10481405870E+03  0.41800000000E+01 0. -1.
         -5    1    3    3    0  502  0.36872446305E+02  0.31833772896E+02 -0.89090043409E+01  0.49697174483E+02  0.41800000000E+01 0. -1.
        -11    1    1    2    0    0  0.93178607203E+01  0.48955890571E+02 -0.57986422272E+02  0.76458661497E+02  0.00000000000E+00 0. -1.
         11    1    1    2    0    0  0.42552475037E+01 -0.35318010479E+02 -0.12383281035E+03  0.12884111888E+03  0.00000000000E+00 0.  1.
</event>
<event>
 7    1  0.2601031E-009  0.1024785E+03  0.7561462E-02  0.1275169E+00
         -1   -1    0    0    0  501 -0.00000000000E+00  0.00000000000E+00  0.26140493621E+02  0.26140493621E+02  0.00000000000E+00 0.  1.
          1   -1    0    0  501    0  0.00000000000E+00 -0.00000000000E+00 -0.55116583452E+03  0.55116583452E+03  0.00000000000E+00 0. -1.
         25    2    1    2    0    0  0.28061927433E+02  0.34499053864E+02 -0.37370291742E+03  0.39658346474E+03  0.12508763939E+03 0.  0.
          5    1    3    3  502    0  0.23784209592E+02 -0.44704331615E+02 -0.10979584258E+03  0.12098250013E+03  0.41800000000E+01 0.  1.
         -5    1    3    3    0  502  0.42777178411E+01  0.79203385479E+02 -0.26390707484E+03  0.27560096461E+03  0.41800000000E+01 0.  1.
        -11    1    1    2    0    0 -0.21932316530E+02  0.13878167036E+02 -0.11997958455E+03  0.12275475851E+03  0.00000000000E+00 0. -1.
         11    1    1    2    0    0 -0.61296109030E+01 -0.48377220900E+02 -0.31342838925E+02  0.57968104883E+02  0.00000000000E+00 0.  1.
</event>
<event>
 7    1  0.2601031E-009  0.1205793E+03  0.7561462E-02  0.1242144E+00
         -2   -1    0    0    0  501 -0.00000000000E+00  0.00000000000E+00  0.31761075039E+02  0.31761075039E+02  0.00000000000E+00 0.  1.
          2   -1    0    0  501    0  0.00000000000E+00 -0.00000000000E+00 -0.53440857929E+03  0.53440857929E+03  0.00000000000E+00 0. -1.
         25    2    1    2    0    0  0.45348272719E+02 -0.28807662143E+02 -0.22485036057E+03  0.26285269526E+03  0.12508999768E+03 0.  0.
          5    1    3    3  502    0 -0.31658818036E+02 -0.28003968359E+02 -0.14800708923E+03  0.15398075810E+03  0.41800000000E+01 0. -1.
         -5    1    3    3    0  502  0.77007090756E+02 -0.80369378400E+00 -0.76843271339E+02  0.10887193716E+03  0.41800000000E+01 0. -1.
        -11    1    1    2    0    0 -0.71879661933E+01  0.67109748762E+02 -0.16318831594E+03  0.17659505003E+03  0.00000000000E+00 0.  1.
         11    1    1    2    0    0 -0.38160306526E+02 -0.38302086619E+02 -0.11460882774E+03  0.12672190904E+03  0.00000000000E+00 0. -1.
</event>
<event>
 7    1  0.2601031E-009  0.4188348E+03  0.7561462E-02  0.1037446E+00
         -2   -1    0    0    0  501 -0.00000000000E+00  0.00000000000E+00  0.12702688541E+03  0.12702688541E+03  0.00000000000E+00 0. -1.
          2   -1    0    0  501    0  0.00000000000E+00 -0.00000000000E+00 -0.17260319762E+04  0.17260319762E+04  0.00000000000E+00 0.  1.
         25    2    1    2    0    0 -0.40238349621E+03 -0.86178598795E+02 -0.11919700310E+04  0.12671943224E+04  0.12509862939E+03 0.  0.
          5    1    3    3  502    0 -0.40415210403E+03 -0.89379074792E+02 -0.11917992527E+04  0.12616380120E+04  0.41800000000E+01 0.  1.
         -5    1    3    3    0  502  0.17686078221E+01  0.32004759969E+01 -0.17077829807E+00  0.55563104181E+01  0.41800000000E+01 0.  1.
        -11    1    1    2    0    0  0.16376761883E+03  0.72706296432E+02 -0.13917528010E+03  0.22688278275E+03  0.00000000000E+00 0. -1.
         11    1    1    2    0    0  0.23861587738E+03  0.13472302362E+02 -0.26785977970E+03  0.35898175643E+03  0.00000000000E+00 0.  1.
</event>
<event>
 7    1  0.2601031E-009  0.1237249E+03  0.7561462E-02  0.1237076E+00
         -1   -1    0    0    0  501 -0.00000000000E+00  0.00000000000E+00  0.41109496458E+02  0.41109496458E+02  0.00000000000E+00 0.  1.
          1   -1    0    0  501    0  0.00000000000E+00 -0.00000000000E+00 -0.70662003689E+03  0.70662003689E+03  0.00000000000E+00 0. -1.
         25    2    1    2    0    0 -0.80034607667E+02  0.39643508973E+02 -0.14348390541E+03  0.21026798976E+03  0.12509136731E+03 0.  0.
          5    1    3    3  502    0 -0.10349777020E+03  0.32586349601E+02 -0.61919806645E+02  0.12500077388E+03  0.41800000000E+01 0. -1.
         -5    1    3    3    0  502  0.23463162534E+02  0.70571593720E+01 -0.81564098768E+02  0.85267215870E+02  0.41800000000E+01 0. -1.
        -11    1    1    2    0    0  0.37669120841E+02  0.18579589649E+02 -0.88086079111E+02  0.97587505089E+02  0.00000000000E+00 0.  1.
         11    1    1    2    0    0  0.42365486827E+02 -0.58223098621E+02 -0.43394055591E+03  0.43987403850E+03  0.00000000000E+00 0. -1.
</event>
<event>
 7    1  0.2601031E-009  0.1951824E+03  0.7561462E-02  0.1153868E+00
          2   -1    0    0  501    0  0.00000000000E+00  0.00000000000E+00  0.65105031981E+03  0.65105031981E+03  0.00000000000E+00 0. -1.
         -2   -1    0    0    0  501 -0.00000000000E+00 -0.00000000000E+00 -0.77189006434E+02  0.77189006434E+02  0.00000000000E+00 0.  1.
         25    2    1    2    0    0  0.18087168043E+03  0.46506314004E+02  0.19884985927E+03  0.30010953200E+03  0.12508821944E+03 0.  0.
          5    1    3    3  502    0  0.61166838152E+02 -0.22449956101E+02  0.99446014671E+01  0.66043547124E+02  0.41800000000E+01 0. -1.
         -5    1    3    3    0  502  0.11970484228E+03  0.68956270104E+02  0.18890525780E+03  0.23406598488E+03  0.41800000000E+01 0. -1.
        -11    1    1    2    0    0 -0.52046995618E+02 -0.16397888075E+02  0.39174889473E+02  0.67174790297E+02  0.00000000000E+00 0.  1.
         11    1    1    2    0    0 -0.12882468481E+03 -0.30108425929E+02  0.33583656463E+03  0.36095500394E+03  0.00000000000E+00 0. -1.
</event>
<event>
 7    1  0.2601031E-009  0.1560463E+03  0.7561462E-02  0.1193234E+00
          2   -1    0    0  501    0  0.00000000000E+00  0.00000000000E+00  0.30052168339E+03  0.30052168339E+03  0.00000000000E+00 0. -1.
         -2   -1    0    0    0  501 -0.00000000000E+00 -0.00000000000E+00 -0.15108512979E+03  0.15108512979E+03  0.00000000000E+00 0.  1.
         25    2    1    2    0    0  0.72470594646E+02  0.94492502799E+02  0.22410373886E+03  0.28293370071E+03  0.12509265787E+03 0.  0.
          5    1    3    3  502    0  0.97814795113E+02  0.32328276264E+02  0.15771716412E+03  0.18842777886E+03  0.41800000000E+01 0.  1.
         -5    1    3    3    0  502 -0.25344200468E+02  0.62164226535E+02  0.66386574740E+02  0.94505921845E+02  0.41800000000E+01 0.  1.
        -11    1    1    2    0    0  0.45282599556E+01 -0.55009237388E+02 -0.58893595093E+02  0.80715406703E+02  0.00000000000E+00 0.  1.
         11    1    1    2    0    0 -0.76998854601E+02 -0.39483265411E+02 -0.15773590170E+02  0.87957705770E+02  0.00000000000E+00 0. -1.
</event>
<event>
 7    1  0.2601031E-009  0.9088429E+02  0.7561462E-02  0.1300724E+00
         -2   -1    0    0    0  501 -0.00000000000E+00  0.00000000000E+00  0.92120456851E+02  0.92120456851E+02  0.00000000000E+00 0.  1.
          2   -1    0    0  501    0  0.00000000000E+00 -0.00000000000E+00 -0.14329138220E+03  0.14329138220E+03  0.00000000000E+00 0. -1.
         25    2    1    2    0    0  0.24521601744E+02  0.27843362192E+02 -0.25647296417E+02  0.13297381354E+03  0.12509072509E+03 0.  0.
          5    1    3    3  502    0  0.51506049433E+02  0.42110576978E+02  0.27043044340E+02  0.71937281494E+02  0.41800000000E+01 0. -1.
         -5    1    3    3    0  502 -0.26984447689E+02 -0.14267214785E+02 -0.52690340757E+02  0.61036532044E+02  0.41800000000E+01 0. -1.
        -11    1    1    2    0    0  0.23314438263E+02  0.78646891847E+01  0.16332089257E+02  0.29532245208E+02  0.00000000000E+00 0.  1.
         11    1    1    2    0    0 -0.47836040007E+02 -0.35708051377E+02 -0.41855718184E+02  0.72905780302E+02  0.00000000000E+00 0. -1.
</event>
<event>
 7    1  0.2601031E-009  0.1178740E+03  0.7561462E-02  0.1246646E+00
          3   -1    0    0  501    0  0.00000000000E+00  0.00000000000E+00  0.60770012664E+03  0.60770012664E+03  0.00000000000E+00 0.  1.
         -3   -1    0    0    0  501 -0.00000000000E+00 -0.00000000000E+00 -0.25235789149E+02  0.25235789149E+02  0.00000000000E+00 0. -1.
         25    2    1    2    0    0 -0.24188831540E+01 -0.58801228109E+02  0.35238471725E+03  0.37853189864E+03  0.12509186189E+03 0.  0.
          5    1    3    3  502    0  0.31359381245E+02 -0.81946115520E+02  0.16766221721E+03  0.18927933887E+03  0.41800000000E+01 0.  1.
         -5    1    3    3    0  502 -0.33778264399E+02  0.23144887411E+02  0.18472250004E+03  0.18925255977E+03  0.41800000000E+01 0.  1.
        -11    1    1    2    0    0  0.39992882694E+02  0.56341710177E+02  0.16994264572E+03  0.18345114283E+03  0.00000000000E+00 0. -1.
         11    1    1    2    0    0 -0.37573999540E+02  0.24595179318E+01  0.60136974516E+02  0.70952874317E+02  0.00000000000E+00 0.  1.
</event>
<event>
 7    1  0.2601031E-009  0.9369827E+02  0.7561462E-02  0.1294135E+00
         -1   -1    0    0    0  501 -0.00000000000E+00  0.00000000000E+00  0.62169026435E+03  0.62169026435E+03  0.00000000000E+00 0.  1.
          1   -1    0    0  501    0  0.00000000000E+00 -0.00000000000E+00 -0.31198153356E+02  0.31198153356E+02  0.00000000000E+00 0. -1.
         25    2    1    2    0    0 -0.26866321132E+02  0.67096775293E+02  0.43712671859E+03  0.46038142055E+03  0.12508999886E+03 0.  0.
          5    1    3    3  502    0 -0.44654293884E+01 -0.65498299475E+01 -0.58790265327E+01  0.10718007508E+02  0.41800000000E+01 0.  1.
         -5    1    3    3    0  502 -0.22400891744E+02  0.73646605241E+02  0.44300574512E+03  0.44966341304E+03  0.41800000000E+01 0.  1.
        -11    1    1    2    0    0  0.46058918724E+02 -0.19488943615E+02  0.12321060485E+03  0.13297404283E+03  0.00000000000E+00 0.  1.
         11    1    1    2    0    0 -0.19192597592E+02 -0.47607831678E+02  0.30154787554E+02  0.59532954335E+02  0.00000000000E+00 0. -1.
</event>
<event>
 7    1  0.2601031E-009  0.9899358E+02  0.7561462E-02  0.1282427E+00
          2   -1    0    0  501    0  0.00000000000E+00  0.00000000000E+00  0.11340858811E+04  0.11340858811E+04  0.00000000000E+00 0. -1.
         -2   -1    0    0    0  501 -0.00000000000E+00 -0.00000000000E+00 -0.11372615699E+02  0.11372615699E+02  0.00000000000E+00 0.  1.
         25    2    1    2    0    0 -0.46251970100E+00  0.78196693056E+01  0.81143862357E+03  0.82106139145E+03  0.12509119696E+03 0.  0.
          5    1    3    3  502    0  0.48560461545E+02 -0.24333943204E+02  0.21737839379E+03  0.22410064191E+03  0.41800000000E+01 0. -1.
         -5    1    3    3    0  502 -0.49022981246E+02  0.32153612510E+02  0.59406022978E+03  0.59696074954E+03  0.41800000000E+01 0. -1.
        -11    1    1    2    0    0 -0.36781028314E+02 -0.24220791694E+02  0.22141261787E+03  0.22574994606E+03  0.00000000000E+00 0.  1.
         11    1    1    2    0    0  0.37243548015E+02  0.16401122388E+02  0.89862023918E+02  0.98647159245E+02  0.00000000000E+00 0. -1.
</event>
<event>
 7    1  0.2601031E-009  0.1190047E+03  0.7561462E-02  0.1244748E+00
          1   -1    0    0  501    0  0.00000000000E+00  0.00000000000E+00  0.11870684764E+04  0.11870684764E+04  0.00000000000E+00 0. -1.
         -1   -1    0    0    0  501 -0.00000000000E+00 -0.00000000000E+00 -0.16206825908E+02  0.16206825908E+02  0.00000000000E+00 0.  1.
         25    2    1    2    0    0 -0.40478146481E+02 -0.46411508718E+02  0.90312669292E+03  0.91382583405E+03  0.12508926029E+03 0.  0.
          5    1    3    3  502    0  0.17259516091E+02  0.29305136827E+02  0.41948673473E+03  0.42088392099E+03  0.41800000000E+01 0. -1.
         -5    1    3    3    0  502 -0.57737662572E+02 -0.75716645545E+02  0.48363995819E+03  0.49294191306E+03  0.41800000000E+01 0. -1.
        -11    1    1    2    0    0  0.68894705285E+02  0.26887866036E+02  0.20391967242E+03  0.21691627545E+03  0.00000000000E+00 0. -1.
         11    1    1    2    0    0 -0.28416558804E+02  0.19523642682E+02  0.63815285112E+02  0.72533192759E+02  0.00000000000E+00 0.  1.
</event>
<event>
 7    1  0.2601031E-009  0.1642708E+03  0.7561462E-02  0.1183958E+00
          2   -1    0    0  501    0  0.00000000000E+00  0.00000000000E+00  0.73887321898E+03  0.73887321898E+03  0.00000000000E+00 0.  1.
         -2   -1    0    0    0  501 -0.00000000000E+00 -0.00000000000E+00 -0.47566743969E+02  0.47566743969E+02  0.00000000000E+00 0. -1.
         25    2    1    2    0    0  0.99807587058E+02 -0.11337123526E+03  0.42483084918E+03  0.46791363606E+03  0.12508928402E+03 0.  0.
          5    1    3    3  502    0  0.74452243270E+02 -0.12543713178E+03  0.41138628351E+03  0.43650172648E+03  0.41800000000E+01 0. -1.
         -5    1    3    3    0  502  0.25355343788E+02  0.12065896523E+02  0.13444565671E+02  0.31411909583E+02  0.41800000000E+01 0. -1.
        -11    1    1    2    0    0 -0.69320302467E+02  0.55450935254E+02  0.75130405815E+02  0.11629569396E+03  0.00000000000E+00 0. -1.
         11    1    1    2    0    0 -0.30487284591E+02  0.57920300004E+02  0.19134522002E+03  0.20223063294E+03  0.00000000000E+00 0.  1.
</event>
<event>
 7    1  0.2601031E-009  0.1715644E+03  0.7561462E-02  0.1176226E+00
         -4   -1    0    0    0  501 -0.00000000000E+00  0.00000000000E+00  0.17028436894E+03  0.17028436894E+03  0.00000000000E+00 0.  1.
          4   -1    0    0  501    0  0.00000000000E+00 -0.00000000000E+00 -0.22227366946E+03  0.22227366946E+03  0.00000000000E+00 0. -1.
         25    2    1    2    0    0 -0.14897246107E+03  0.17394711423E+02 -0.85910811256E+02  0.21335928407E+03  0.12508455726E+03 0.  0.
          5    1    3    3  502    0 -0.66440367487E+00  0.41897756927E+02 -0.44759270480E+01  0.42348197019E+02  0.41800000000E+01 0. -1.
         -5    1    3    3    0  502 -0.14830805739E+03 -0.24503045504E+02 -0.81434884208E+02  0.17101108705E+03  0.41800000000E+01 0. -1.
        -11    1    1    2    0    0  0.11880949197E+03 -0.81301693878E+01 -0.15983475030E+02  0.12015517680E+03  0.00000000000E+00 0. -1.
         11    1    1    2    0    0  0.30162969096E+02 -0.92645420350E+01  0.49904985771E+02  0.59043577540E+02  0.00000000000E+00 0.  1.
</event>
<event>
 7    1  0.2601031E-009  0.9864338E+02  0.7561462E-02  0.1283175E+00
          3   -1    0    0  501    0  0.00000000000E+00  0.00000000000E+00  0.46925485727E+02  0.46925485727E+02  0.00000000000E+00 0. -1.
         -3   -1    0    0    0  501 -0.00000000000E+00 -0.00000000000E+00 -0.47461806297E+03  0.47461806297E+03  0.00000000000E+00 0.  1.
         25    2    1    2    0    0 -0.59715233215E+02 -0.30837919949E+02 -0.37249332022E+03  0.39864218370E+03  0.12508969037E+03 0.  0.
          5    1    3    3  502    0  0.12676154667E+02 -0.13173508923E+02 -0.80250047637E-02  0.18753631619E+02  0.41800000000E+01 0.  1.
         -5    1    3    3    0  502 -0.72391387883E+02 -0.17664411027E+02 -0.37248529521E+03  0.37988855209E+03  0.41800000000E+01 0.  1.
        -11    1    1    2    0    0 -0.17825120838E+02  0.17949061722E+02  0.24618272116E+01  0.25415828588E+02  0.00000000000E+00 0.  1.
         11    1    1    2    0    0  0.77540354053E+02  0.12888858227E+02 -0.57661084242E+02  0.97485536410E+02  0.00000000000E+00 0. -1.
</event>
<event>
 7    1  0.2601031E-009  0.1089189E+03  0.7561462E-02  0.1262585E+00
         -2   -1    0    0    0  501 -0.00000000000E+00  0.00000000000E+00  0.64991764566E+02  0.64991764566E+02  0.00000000000E+00 0.  1.
          2   -1    0    0  501    0  0.00000000000E+00 -0.00000000000E+00 -0.24549580669E+03  0.24549580669E+03  0.00000000000E+00 0. -1.
         25    2    1    2    0    0 -0.39016811810E+02  0.49172819102E+02 -0.91981762464E+02  0.16748247696E+03  0.12509779263E+03 0.  0.
          5    1    3    3  502    0  0.95552858981E+01 -0.33289323677E+02 -0.54304691129E+02  0.64544205302E+02  0.41800000000E+01 0.  1.
         -5    1    3    3    0  502 -0.48572097708E+02  0.82462142778E+02 -0.37677071335E+02  0.10293827166E+03  0.41800000000E+01 0.  1.
        -11    1    1    2    0    0  0.17718340728E+02 -0.60495303186E+02 -0.98465673486E+02  0.11691496979E+03  0.00000000000E+00 0. -1.
         11    1    1    2    0    0  0.21298471081E+02  0.11322484085E+02  0.99433938225E+01  0.26090124510E+02  0.00000000000E+00 0.  1.
</event>
<event>
 7    1  0.2601031E-009  0.1092680E+03  0.7561462E-02  0.1261931E+00
         -1   -1    0    0    0  501 -0.00000000000E+00  0.00000000000E+00  0.18605091200E+04  0.18605091200E+04  0.00000000000E+00 0.  1.
          1   -1    0    0  501    0  0.00000000000E+00 -0.00000000000E+00 -0.10845640739E+02  0.10845640739E+02  0.00000000000E+00 0. -1.
         25    2    1    2    0    0 -0.10046263567E+02 -0.35435764671E+02  0.15650099373E+04  0.15704332317E+04  0.12509120937E+03 0.  0.
          5    1    3    3  502    0 -0.56765565662E+02  0.17370545235E+02  0.76526152065E+03  0.76757197231E+03  0.41800000000E+01 0. -1.
         -5    1    3    3    0  502  0.46719302095E+02 -0.52806309906E+02  0.79974841666E+03  0.80286125943E+03  0.41800000000E+01 0. -1.
        -11    1    1    2    0    0  0.45513164248E+02  0.20135797713E+02  0.93664976046E+02  0.10606614072E+03  0.00000000000E+00 0. -1.
         11    1    1    2    0    0 -0.35466900681E+02  0.15299966958E+02  0.19098856590E+03  0.19485538827E+03  0.00000000000E+00 0.  1.
</event>
<event>
 7    1  0.2601031E-009  0.2655275E+03  0.7561462E-02  0.1103867E+00
          1   -1    0    0  501    0  0.00000000000E+00  0.00000000000E+00  0.55243812022E+03  0.55243812022E+03  0.00000000000E+00 0. -1.
         -1   -1    0    0    0  501 -0.00000000000E+00 -0.00000000000E+00 -0.24955758518E+03  0.24955758518E+03  0.00000000000E+00 0.  1.
         25    2    1    2    0    0 -0.23227068849E+03  0.82731375303E+02 -0.12210518280E+03  0.30224346943E+03  0.12508911205E+03 0.  0.
          5    1    3    3  502    0 -0.24633611583E+03  0.83801768944E+02 -0.10765819759E+03  0.28162382418E+03  0.41800000000E+01 0. -1.
         -5    1    3    3    0  502  0.14065427331E+02 -0.10703936409E+01 -0.14446985213E+02  0.20619645251E+02  0.41800000000E+01 0. -1.
        -11    1    1    2    0    0  0.13627196249E+03 -0.84037635539E+02  0.20804683363E+03  0.26251829828E+03  0.00000000000E+00 0.  1.
         11    1    1    2    0    0  0.95998726003E+02  0.13062602355E+01  0.21693888420E+03  0.23723393768E+03  0.00000000000E+00 0. -1.
</event>
<event>
 7    1  0.2601031E-009  0.2148110E+03  0.7561462E-02  0.1137812E+00
         -1   -1    0    0    0  501 -0.00000000000E+00  0.00000000000E+00  0.18661107097E+02  0.18661107097E+02  0.00000000000E+00 0.  1.
          1   -1    0    0  501    0  0.00000000000E+00 -0.00000000000E+00 -0.32036070812E+04  0.32036070812E+04  0.00000000000E+00 0. -1.
         25    2    1    2    0    0  0.19968802770E+02  0.18923188646E+03 -0.23484577297E+04  0.23594730026E+04  0.12510668347E+03 0.  0.
          5    1    3    3  502    0 -0.43021196336E+02  0.13557535532E+03 -0.16481180307E+04  0.16542496837E+04  0.41800000000E+01 0.  1.
         -5    1    3    3    0  502  0.62989999106E+02  0.53656531145E+02 -0.70033969892E+03  0.70522331896E+03  0.41800000000E+01 0.  1.
        -11    1    1    2    0    0 -0.48666502045E+02 -0.12392035740E+03 -0.64143380020E+03  0.65510457443E+03  0.00000000000E+00 0.  1.
         11    1    1    2    0    0  0.28697699274E+02 -0.65311529063E+02 -0.19505444422E+03  0.20769061120E+03  0.00000000000E+00 0. -1.
</event>
<event>
 7    1  0.2601031E-009  0.1184350E+03  0.7561462E-02  0.1245701E+00
          2   -1    0    0  501    0  0.00000000000E+00  0.00000000000E+00  0.77156442791E+03  0.77156442791E+03  0.00000000000E+00 0. -1.
         -2   -1    0    0    0  501 -0.00000000000E+00 -0.00000000000E+00 -0.21519919360E+02  0.21519919360E+02  0.00000000000E+00 0.  1.
         25    2    1    2    0    0 -0.50794500109E+02 -0.46506243808E+02  0.38120249526E+03  0.40707038350E+03  0.12509213714E+03 0.  0.
          5    1    3    3  502    0 -0.45233625079E+02  0.36929370105E+02  0.13989527577E+03  0.15165098021E+03  0.41800000000E+01 0. -1.
         -5    1    3    3    0  502 -0.55608750296E+01 -0.83435613914E+02  0.24130721949E+03  0.25541940329E+03  0.41800000000E+01 0. -1.
        -11    1    1    2    0    0 -0.63952845113E+01  0.35864251550E+02  0.49745326680E+02  0.61658265705E+02  0.00000000000E+00 0.  1.
         11    1    1    2    0    0  0.57189784620E+02  0.10641992258E+02  0.31909668661E+03  0.32435569806E+03  0.00000000000E+00 0. -1.
</event>
<event>
 7    1  0.2601031E-009  0.6980866E+02  0.7561462E-02  0.1360745E+00
          2   -1    0    0  501    0  0.00000000000E+00  0.00000000000E+00  0.13283111718E+03  0.13283111718E+03  0.00000000000E+00 0. -1.
         -2   -1    0    0    0  501 -0.00000000000E+00 -0.00000000000E+00 -0.10902467090E+03  0.10902467090E+03  0.00000000000E+00 0.  1.
         25    2    1    2    0    0 -0.19607328866E+02  0.12013272589E+02 -0.35085915324E+02  0.13192991141E+03  0.12508282859E+03 0.  0.
          5    1    3    3  502    0  0.14352425910E+02  0.56155984963E+02  0.11454376375E+02  0.59229738433E+02  0.41800000000E+01 0. -1.
         -5    1    3    3    0  502 -0.33959754776E+02 -0.44142712374E+02 -0.46540291699E+02  0.72700172982E+02  0.41800000000E+01 0. -1.
        -11    1    1    2    0    0  0.86514332329E+01 -0.11882316653E+02  0.82553109386E+02  0.83851372173E+02  0.00000000000E+00 0. -1.
         11    1    1    2    0    0  0.10955895633E+02 -0.13095593660E+00 -0.23660747786E+02  0.26074504490E+02  0.00000000000E+00 0.  1.
</event>
<event>
 7    1  0.2601031E-009  0.1004872E+03  0.7561462E-02  0.1279275E+00
         -1   -1    0    0    0  501 -0.00000000000E+00  0.00000000000E+00  0.12145306639E+02  0.12145306639E+02  0.00000000000E+00 0.  1.
          1   -1    0    0  501    0  0.00000000000E+00 -0.00000000000E+00 -0.11604256235E+04  0.11604256235E+04  0.00000000000E+00 0. -1.
         25    2    1    2    0    0 -0.10855393175E+02 -0.40252196108E+02 -0.82345106346E+03  0.83394077796E+03  0.12508992115E+03 0.  0.
          5    1    3    3  502    0 -0.45286371381E+02  0.78690818079E+01 -0.12986810695E+03  0.13782588830E+03  0.41800000000E+01 0.  1.
         -5    1    3    3    0  502  0.34430978206E+02 -0.48121277916E+02 -0.69358295651E+03  0.69611488967E+03  0.41800000000E+01 0.  1.
        -11    1    1    2    0    0  0.48694601461E+02  0.20730996795E+02 -0.16942573502E+03  0.17749934683E+03  0.00000000000E+00 0. -1.
         11    1    1    2    0    0 -0.37839208286E+02  0.19521199313E+02 -0.15540351836E+03  0.16113080532E+03  0.00000000000E+00 0.  1.
</event>
<event>
 7    1  0.2601031E-009  0.1213986E+03  0.7561462E-02  0.1240807E+00
         -3   -1    0    0    0  501 -0.00000000000E+00  0.00000000000E+00  0.25021005294E+03  0.25021005294E+03  0.00000000000E+00 0.  1.
          3   -1    0    0  501    0  0.00000000000E+00 -0.00000000000E+00 -0.85882697521E+02  0.85882697521E+02  0.00000000000E+00 0. -1.
         25    2    1    2    0    0 -0.96927625066E+02  0.14823893279E+02  0.79261377466E+02  0.17760630947E+03  0.12508766083E+03 0.  0.
          5    1    3    3  502    0 -0.10913354916E+03 -0.56902215236E+01  0.98098291548E+02  0.14691241397E+03  0.41800000000E+01 0. -1.
         -5    1    3    3    0  502  0.12205924092E+02  0.20514114802E+02 -0.18836914081E+02  0.30693895503E+02  0.41800000000E+01 0. -1.
        -11    1    1    2    0    0  0.45402382021E+02  0.17182123995E+02  0.84935435243E+02  0.97829595922E+02  0.00000000000E+00 0.  1.
         11    1    1    2    0    0  0.51525243044E+02 -0.32006017274E+02  0.13054270925E+00  0.60656845070E+02  0.00000000000E+00 0. -1.
</event>
<event>
 7    1  0.2601031E-009  0.9221360E+02  0.7561462E-02  0.1297578E+00
          1   -1    0    0  501    0  0.00000000000E+00  0.00000000000E+00  0.14299330266E+03  0.14299330266E+03  0.00000000000E+00 0. -1.
         -1   -1    0    0    0  501 -0.00000000000E+00 -0.00000000000E+00 -0.94618383609E+02  0.94618383609E+02  0.00000000000E+00 0.  1.
         25    2    1    2    0    0 -0.25010574441E+02  0.24806088375E+02  0.33682175463E+01  0.12999982474E+03  0.12509092169E+03 0.  0.
          5    1    3    3  502    0 -0.12099942439E+02  0.71654691083E+02  0.24559280816E+02  0.76820791687E+02  0.41800000000E+01 0.  1.
         -5    1    3    3    0  502 -0.12910632001E+02 -0.46848602708E+02 -0.21191063270E+02  0.53179033057E+02  0.41800000000E+01 0.  1.
        -11    1    1    2    0    0 -0.84491523400E+01 -0.28004400007E+02  0.63019529831E+02  0.69477303741E+02  0.00000000000E+00 0. -1.
         11    1    1    2    0    0  0.33459726781E+02  0.31983116324E+01 -0.18012828322E+02  0.38134557788E+02  0.00000000000E+00 0.  1.
</event>
<event>
 7    1  0.2601031E-009  0.1067046E+03  0.7561462E-02  0.1266797E+00
         -2   -1    0    0    0  501 -0.00000000000E+00  0.00000000000E+00  0.61812391626E+03  0.61812391626E+03  0.00000000000E+00 0.  1.
          2   -1    0    0  501    0  0.00000000000E+00 -0.00000000000E+00 -0.20142931045E+02  0.20142931045E+02  0.00000000000E+00 0. -1.
         25    2    1    2    0    0  0.12365678221E+02  0.74011780932E+01  0.27958895222E+03  0.30662884640E+03  0.12507429716E+03 0.  0.
          5    1    3    3  502    0  0.20213781315E+02 -0.56642545297E+02  0.11611754019E+03  0.13083474474E+03  0.41800000000E+01 0.  1.
         -5    1    3    3    0  502 -0.78481030935E+01  0.64043723390E+02  0.16347141203E+03  0.17579410166E+03  0.41800000000E+01 0.  1.
        -11    1    1    2    0    0 -0.49278371144E+02 -0.13400119481E+02  0.13205819032E+03  0.14158844125E+03  0.00000000000E+00 0. -1.
         11    1    1    2    0    0  0.36912692923E+02  0.59989413880E+01  0.18633384268E+03  0.19004955966E+03  0.00000000000E+00 0.  1.
</event>
<event>
 7    1  0.2601031E-009  0.8622390E+02  0.7561462E-02  0.1312263E+00
          2   -1    0    0  501    0  0.00000000000E+00  0.00000000000E+00  0.28107616530E+03  0.28107616530E+03  0.00000000000E+00 0. -1.
         -2   -1    0    0    0  501 -0.00000000000E+00 -0.00000000000E+00 -0.66152236554E+02  0.66152236554E+02  0.00000000000E+00 0.  1.
         25    2    1    2    0    0 -0.49494904991E+02  0.34441566323E+02  0.18819036562E+03  0.23387970291E+03  0.12509250420E+03 0.  0.
          5    1    3    3  502    0  0.34805864987E+01  0.13070758667E+02  0.17439062661E+03  0.17496434570E+03  0.41800000000E+01 0.  1.
         -5    1    3    3    0  502 -0.52975491490E+02  0.21370807656E+02  0.13799739011E+02  0.58915357210E+02  0.41800000000E+01 0.  1.
        -11    1    1    2    0    0 -0.60116610898E+01 -0.44242274415E+02 -0.10408963626E+02  0.45846106032E+02  0.00000000000E+00 0.  1.
         11    1    1    2    0    0  0.55506566081E+02  0.98007080920E+01  0.37142526752E+02  0.67502592918E+02  0.00000000000E+00 0. -1.
</event>
<event>
 7    1  0.2601031E-009  0.9126511E+02  0.7561462E-02  0.1299817E+00
         -2   -1    0    0    0  501 -0.00000000000E+00  0.00000000000E+00  0.27817813489E+02  0.27817813489E+02  0.00000000000E+00 0.  1.
          2   -1    0    0  501    0  0.00000000000E+00 -0.00000000000E+00 -0.45777357748E+03  0.45777357748E+03  0.00000000000E+00 0. -1.
         25    2    1    2    0    0 -0.16353097606E+02  0.25074964861E+02 -0.22410176680E+03  0.25838677470E+03  0.12508375512E+03 0.  0.
          5    1    3    3  502    0 -0.66620549073E+01  0.61229920187E+02 -0.47714853214E+02  0.78023494660E+02  0.41800000000E+01 0. -1.
         -5    1    3    3    0  502 -0.96910426987E+01 -0.36154955326E+02 -0.17638691359E+03  0.18036328004E+03  0.41800000000E+01 0. -1.
        -11    1    1    2    0    0  0.47053856129E+02 -0.71816509361E+01 -0.57454814468E+02  0.74610302186E+02  0.00000000000E+00 0.  1.
         11    1    1    2    0    0 -0.30700758523E+02 -0.17893313925E+02 -0.14839918273E+03  0.15259431408E+03  0.00000000000E+00 0. -1.
</event>
<event>
 7    1  0.2601031E-009  0.1059981E+03  0.7561462E-02  0.1268166E+00
         -2   -1    0    0    0  501 -0.00000000000E+00  0.00000000000E+00  0.20732922609E+02  0.20732922609E+02  0.00000000000E+00 0. -1.
          2   -1    0    0  501    0  0.00000000000E+00 -0.00000000000E+00 -0.62348579056E+03  0.62348579056E+03  0.00000000000E+00 0.  1.
         25    2    1    2    0    0 -0.30110199210E+02 -0.42297953780E+00 -0.38398929316E+03  0.40497231994E+03  0.12509196475E+03 0.  0.
          5    1    3    3  502    0 -0.16339844661E+01 -0.55459585915E+02 -0.26468282497E+03  0.27046793860E+03  0.41800000000E+01 0. -1.
         -5    1    3    3    0  502 -0.28476214744E+02  0.55036606377E+02 -0.11930646818E+03  0.13450438134E+03  0.41800000000E+01 0. -1.
        -11    1    1    2    0    0  0.61575250561E+02  0.73990120903E+01 -0.11587047129E+03  0.13142382957E+03  0.00000000000E+00 0. -1.
         11    1    1    2    0    0 -0.31465051351E+02 -0.69760325525E+01 -0.10289310349E+03  0.10782256365E+03  0.00000000000E+00 0.  1.
</event>
<event>
 7    1  0.2601031E-009  0.1256743E+03  0.7561462E-02  0.1234019E+00
         -1   -1    0    0    0  501 -0.00000000000E+00  0.00000000000E+00  0.11411692042E+03  0.11411692042E+03  0.00000000000E+00 0.  1.
          1   -1    0    0  501    0  0.00000000000E+00 -0.00000000000E+00 -0.21917554857E+03  0.21917554857E+03  0.00000000000E+00 0. -1.
         25    2    1    2    0    0 -0.54928080936E+02  0.53236382934E+02 -0.15598290224E+03  0.21407823679E+03  0.12509044382E+03 0.  0.
          5    1    3    3  502    0  0.64993300734E+01 -0.35232537598E+02 -0.58628137520E+02  0.68835339079E+02  0.41800000000E+01 0.  1.
         -5    1    3    3    0  502 -0.61427411009E+02  0.88468920532E+02 -0.97354764719E+02  0.14524289772E+03  0.41800000000E+01 0.  1.
        -11    1    1    2    0    0  0.55591500877E+02 -0.13547239533E+01  0.30753736002E+02  0.63545594063E+02  0.00000000000E+00 0.  1.
         11    1    1    2    0    0 -0.66341994103E+00 -0.51881658981E+02  0.20170538085E+02  0.55668638130E+02  0.00000000000E+00 0. -1.
</event>
<event>
 7    1  0.2601031E-009  0.1164424E+03  0.7561462E-02  0.1249084E+00
          2   -1    0    0  501    0  0.00000000000E+00  0.00000000000E+00  0.90929765649E+03  0.90929765649E+03  0.00000000000E+00 0. -1.
         -2   -1    0    0    0  501 -0.00000000000E+00 -0.00000000000E+00 -0.17115350988E+02  0.17115350988E+02  0.00000000000E+00 0.  1.
         25    2    1    2    0    0  0.53500631630E+02 -0.12250239130E+02  0.43399626399E+03  0.45498577839E+03  0.12508763103E+03 0.  0.
          5    1    3    3  502    0  0.17143619826E+02 -0.59728586353E+02  0.32187820632E+03  0.32784822682E+03  0.41800000000E+01 0. -1.
         -5    1    3    3    0  502  0.36357011804E+02  0.47478347223E+02  0.11211805767E+03  0.12713755156E+03  0.41800000000E+01 0. -1.
        -11    1    1    2    0    0 -0.70044222282E+02 -0.21333567210E+02  0.28671540721E+03  0.29591728387E+03  0.00000000000E+00 0.  1.
         11    1    1    2    0    0  0.16543590652E+02  0.33583806341E+02  0.17147063431E+03  0.17550994522E+03  0.00000000000E+00 0. -1.
</event>
<event>
 7    1  0.2601031E-009  0.1609397E+03  0.7561462E-02  0.1187640E+00
          2   -1    0    0  501    0  0.00000000000E+00  0.00000000000E+00  0.66601232538E+02  0.66601232538E+02  0.00000000000E+00 0. -1.
         -2   -1    0    0    0  501 -0.00000000000E+00 -0.00000000000E+00 -0.48919747761E+03  0.48919747761E+03  0.00000000000E+00 0.  1.
         25    2    1    2    0    0 -0.11234901438E+03  0.87791360019E+02 -0.19549565548E+03  0.27238867763E+03  0.12508963372E+03 0.  0.
          5    1    3    3  502    0 -0.12353361367E+03  0.44094854866E+02 -0.94555402305E+02  0.16175013582E+03  0.41800000000E+01 0.  1.
         -5    1    3    3    0  502  0.11184599289E+02  0.43696505153E+02 -0.10094025318E+03  0.11063854182E+03  0.41800000000E+01 0.  1.
        -11    1    1    2    0    0  0.75032060934E+02 -0.74493657768E+02 -0.21869481643E+03  0.24291261381E+03  0.00000000000E+00 0.  1.
         11    1    1    2    0    0  0.37316953444E+02 -0.13297702251E+02 -0.84057731642E+01  0.40497418708E+02  0.00000000000E+00 0. -1.
</event>
<event>
 7    1  0.2601031E-009  0.1184347E+03  0.7561462E-02  0.1245702E+00
          2   -1    0    0  501    0  0.00000000000E+00  0.00000000000E+00  0.11888555630E+03  0.11888555630E+03  0.00000000000E+00 0. -1.
         -2   -1    0    0    0  501 -0.00000000000E+00 -0.00000000000E+00 -0.14107696107E+03  0.14107696107E+03  0.00000000000E+00 0.  1.
         25    2    1    2    0    0 -0.44985876843E+02 -0.19142001990E+02  0.37787996586E+02  0.13951707146E+03  0.12508770997E+03 0.  0.
          5    1    3    3  502    0 -0.66066845752E+02 -0.58963274349E+02  0.30077899747E+02  0.93614359384E+02  0.41800000000E+01 0. -1.
         -5    1    3    3    0  502  0.21080968909E+02  0.39821272359E+02  0.77100968393E+01  0.45902712074E+02  0.41800000000E+01 0. -1.
        -11    1    1    2    0    0  0.13185090890E+02  0.54115250865E+02 -0.22303204224E+02  0.59997832600E+02  0.00000000000E+00 0. -1.
         11    1    1    2    0    0  0.31800785953E+02 -0.34973248875E+02 -0.37676197134E+02  0.60447613307E+02  0.00000000000E+00 0.  1.
</event>
<event>
 7    1  0.2601031E-009  0.1437173E+03  0.7561462E-02  0.1208413E+00
          1   -1    0    0  501    0  0.00000000000E+00  0.00000000000E+00  0.25884447665E+02  0.25884447665E+02  0.00000000000E+00 0. -1.
         -1   -1    0    0    0  501 -0.00000000000E+00 -0.00000000000E+00 -0.99364815628E+03  0.99364815628E+03  0.00000000000E+00 0.  1.
         25    2    1    2    0    0  0.91066092013E+02  0.64832467769E+02 -0.50545662542E+03  0.53257090285E+03  0.12509630043E+03 0.  0.
          5    1    3    3  502    0  0.43125794051E+01  0.50262287955E+02 -0.60039856512E+02  0.78531221190E+02  0.41800000000E+01 0.  1.
         -5    1    3    3    0  502  0.86753512608E+02  0.14570179815E+02 -0.44541676891E+03  0.45403968166E+03  0.41800000000E+01 0.  1.
        -11    1    1    2    0    0 -0.35969174012E+02 -0.83221707519E+02 -0.22341791115E+03  0.24111241590E+03  0.00000000000E+00 0. -1.
         11    1    1    2    0    0 -0.55096918001E+02  0.18389239750E+02 -0.23888917204E+03  0.24584928519E+03  0.00000000000E+00 0.  1.
</event>
<event>
 7    1  0.2601031E-009  0.1204175E+03  0.7561462E-02  0.1242410E+00
         -1   -1    0    0    0  501 -0.00000000000E+00  0.00000000000E+00  0.25664562704E+03  0.25664562704E+03  0.00000000000E+00 0.  1.
          1   -1    0    0  501    0  0.00000000000E+00 -0.00000000000E+00 -0.60606606033E+02  0.60606606033E+02  0.00000000000E+00 0. -1.
         25    2    1    2    0    0 -0.45777055457E+02 -0.41811104052E+02  0.11570686411E+03  0.18132810718E+03  0.12509235318E+03 0.  0.
          5    1    3    3  502    0 -0.27784314811E+02 -0.86663710372E+02  0.75161427188E+02  0.11810706745E+03  0.41800000000E+01 0.  1.
         -5    1    3    3    0  502 -0.17992740646E+02  0.44852606320E+02  0.40545436923E+02  0.63221039733E+02  0.41800000000E+01 0.  1.
        -11    1    1    2    0    0  0.58327054973E+02  0.56977003504E+02  0.82652317351E+02  0.11610266936E+03  0.00000000000E+00 0.  1.
         11    1    1    2    0    0 -0.12549999516E+02 -0.15165899452E+02 -0.23201604593E+01  0.19821456520E+02  0.00000000000E+00 0. -1.
</event>
<event>
 7    1  0.2601031E-009  0.1163117E+03  0.7561462E-02  0.1249309E+00
         -2   -1    0    0    0  501 -0.00000000000E+00  0.00000000000E+00  0.22707310272E+03  0.22707310272E+03  0.00000000000E+00 0.  1.
          2   -1    0    0  501    0  0.00000000000E+00 -0.00000000000E+00 -0.22368797439E+03  0.22368797439E+03  0.00000000000E+00 0. -1.
         25    2    1    2    0    0 -0.21162914180E+02  0.91216737946E+02  0.17540330087E+03  0.23491019013E+03  0.12509243484E+03 0.  0.
          5    1    3    3  502    0 -0.24526411715E+01  0.10930412840E+03  0.78954331892E+02  0.13492467105E+03  0.41800000000E+01 0.  1.
         -5    1    3    3    0  502 -0.18710273008E+02 -0.18087390452E+02  0.96448968975E+02  0.99985519080E+02  0.41800000000E+01 0.  1.
        -11    1    1    2    0    0 -0.38736803227E+01 -0.36229366414E+02 -0.32345501473E+01  0.36579156697E+02  0.00000000000E+00 0.  1.
         11    1    1    2    0    0  0.25036594503E+02 -0.54987371532E+02 -0.16878362239E+03  0.17927173029E+03  0.00000000000E+00 0. -1.
</event>
<event>
 7    1  0.2601031E-009  0.1124639E+03  0.7561462E-02  0.1256074E+00
          2   -1    0    0  501    0  0.00000000000E+00  0.00000000000E+00  0.40159956520E+03  0.40159956520E+03  0.00000000000E+00 0. -1.
         -2   -1    0    0    0  501 -0.00000000000E+00 -0.00000000000E+00 -0.54293862256E+02  0.54293862256E+02  0.00000000000E+00 0.  1.
         25    2    1    2    0    0 -0.65080640597E+02 -0.69333330268E+02  0.23543018181E+03  0.28305090001E+03  0.12509133071E+03 0.  0.
          5    1    3    3  502    0 -0.27832865090E+02 -0.57949318905E+02  0.25157234177E+02  0.69160326576E+02  0.41800000000E+01 0.  1.
         -5    1    3    3    0  502 -0.37247775507E+02 -0.11384011363E+02  0.21027294764E+03  0.21389057343E+03  0.41800000000E+01 0.  1.
        -11    1    1    2    0    0 -0.23379356146E+00  0.54313335574E+02  0.17445129789E+02  0.57046696960E+02  0.00000000000E+00 0.  1.
         11    1    1    2    0    0  0.65314434158E+02  0.15019994694E+02  0.94430391343E+02  0.11579583049E+03  0.00000000000E+00 0. -1.
</event>
<event>
 7    1  0.3430232E-009  0.2489379E+03  0.7561462E-02  0.1113978E+00
         -1   -1    0    0    0  501 -0.00000000000E+00  0.00000000000E+00  0.43748187636E+02  0.43748187636E+02  0.00000000000E+00 0. -1.
          1   -1    0    0  501    0  0.00000000000E+00 -0.00000000000E+00 -0.16710895930E+04  0.16710895930E+04  0.00000000000E+00 0.  1.
         25    2    1    2    0    0  0.22780882078E+03 -0.76217544757E+02 -0.64819024964E+03  0.70249759389E+03  0.12508515793E+03 0.  0.
          5    1    3    3  502    0  0.16017075875E+03 -0.64518523166E+02 -0.58184429561E+03  0.60694115738E+03  0.41800000000E+01 0.  1.
         -5    1    3    3    0  502  0.67638062031E+02 -0.11699021591E+02 -0.66345954032E+02  0.95556436507E+02  0.41800000000E+01 0.  1.
        -11    1    1    2    0    0 -0.11611488100E+03 -0.81525558412E+01 -0.40731514165E+03  0.42362100322E+03  0.00000000000E+00 0.  1.
         11    1    1    2    0    0 -0.11169393978E+03  0.84370100598E+02 -0.57183601409E+03  0.58871918354E+03  0.00000000000E+00 0. -1.
</event>
<event>
 7    1  0.2601031E-009  0.2027733E+03  0.7561462E-02  0.1147420E+00
          2   -1    0    0  501    0  0.00000000000E+00  0.00000000000E+00  0.34149641453E+03  0.34149641453E+03  0.00000000000E+00 0. -1.
         -2   -1    0    0    0  501 -0.00000000000E+00 -0.00000000000E+00 -0.13963436994E+03  0.13963436994E+03  0.00000000000E+00 0.  1.
         25    2    1    2    0    0  0.74345458486E+02 -0.16955192548E+03  0.64614175768E+02  0.23258524227E+03  0.12508317465E+03 0.  0.
          5    1    3    3  502    0 -0.25697319505E+02 -0.86339681060E+02  0.77393142460E+01  0.90511116114E+02  0.41800000000E+01 0.  1.
         -5    1    3    3    0  502  0.10004277799E+03 -0.83212244418E+02  0.56874861522E+02  0.14207412615E+03  0.41800000000E+01 0.  1.
        -11    1    1    2    0    0 -0.26312930737E+02  0.64552500806E+02  0.68591169486E+00  0.69712740293E+02  0.00000000000E+00 0.  1.
         11    1    1    2    0    0 -0.48032527749E+02  0.10499942467E+03  0.13656195713E+03  0.17883280191E+03  0.00000000000E+00 0. -1.
</event>
<event>
 7    1  0.2601031E-009  0.7602335E+02  0.7561462E-02  0.1340731E+00
         -2   -1    0    0    0  501 -0.00000000000E+00  0.00000000000E+00  0.21253899136E+02  0.21253899136E+02  0.00000000000E+00 0. -1.
          2   -1    0    0  501    0  0.00000000000E+00 -0.00000000000E+00 -0.57542378791E+03  0.57542378791E+03  0.00000000000E+00 0.  1.
         25    2    1    2    0    0 -0.41672272069E+01  0.26105591905E+01 -0.38670081854E+03  0.40646142011E+03  0.12509669130E+03 0.  0.
          5    1    3    3  502    0 -0.30517903834E+02 -0.15301370859E+02 -0.36733582317E+03  0.36894248032E+03  0.41800000000E+01 0. -1.
         -5    1    3    3    0  502  0.26350676627E+02  0.17911930050E+02 -0.19364995373E+02  0.37518939785E+02  0.41800000000E+01 0. -1.
        -11    1    1    2    0    0 -0.36288154889E+01 -0.43621503187E+02 -0.11576074221E+03  0.12376006334E+03  0.00000000000E+00 0.  1.
         11    1    1    2    0    0  0.77960426957E+01  0.41010943996E+02 -0.51708328025E+02  0.66456203596E+02  0.00000000000E+00 0. -1.
</event>
<event>
 7    1  0.2601031E-009  0.9365576E+02  0.7561462E-02  0.1294233E+00
          4   -1    0    0  501    0  0.00000000000E+00  0.00000000000E+00  0.63861679826E+02  0.63861679826E+02  0.00000000000E+00 0. -1.
         -4   -1    0    0    0  501 -0.00000000000E+00 -0.00000000000E+00 -0.18343341299E+03  0.18343341299E+03  0.00000000000E+00 0.  1.
         25    2    1    2    0    0 -0.13811628681E+02  0.63886419756E+00 -0.66484617710E+02  0.14234269334E+03  0.12510023469E+03 0.  0.
          5    1    3    3  502    0  0.35063968237E+02  0.23927741879E+02  0.14313341365E+02  0.44992919898E+02  0.41800000000E+01 0.  1.
         -5    1    3    3    0  502 -0.48875596918E+02 -0.23288877681E+02 -0.80797959076E+02  0.97349773439E+02  0.41800000000E+01 0.  1.
        -11    1    1    2    0    0 -0.15695063511E+02 -0.38952444357E+02 -0.21367915184E+02  0.47119165308E+02  0.00000000000E+00 0. -1.
         11    1    1    2    0    0  0.29506692192E+02  0.38313580160E+02 -0.31719200266E+02  0.57833234168E+02  0.00000000000E+00 0.  1.
</event>
<event>
 7    1  0.2601031E-009  0.2159448E+03  0.7561462E-02  0.1136943E+00
         -2   -1    0    0    0  501 -0.00000000000E+00  0.00000000000E+00  0.98599020645E+02  0.98599020645E+02  0.00000000000E+00 0.  1.
          2   -1    0    0  501    0  0.00000000000E+00 -0.00000000000E+00 -0.69009750800E+03  0.69009750800E+03  0.00000000000E+00 0. -1.
         25    2    1    2    0    0 -0.20320844311E+03  0.86525538052E+01 -0.12269040432E+03  0.26845634735E+03  0.12508931642E+03 0.  0.
          5    1    3    3  502    0 -0.12978209305E+03 -0.45037719879E+02 -0.11097362731E+03  0.17664768962E+03  0.41800000000E+01 0.  1.
         -5    1    3    3    0  502 -0.73426350058E+02  0.53690273684E+02 -0.11716777008E+02  0.91808657732E+02  0.41800000000E+01 0.  1.
        -11    1    1    2    0    0  0.65913190693E+02 -0.25181942398E+01 -0.27403614480E+03  0.28186290757E+03  0.00000000000E+00 0.  1.
         11    1    1    2    0    0  0.13729525242E+03 -0.61343595653E+01 -0.19477193824E+03  0.23837727373E+03  0.00000000000E+00 0. -1.
</event>
<event>
 7    1  0.2601031E-009  0.1185736E+03  0.7561462E-02  0.1245469E+00
         -1   -1    0    0    0  501 -0.00000000000E+00  0.00000000000E+00  0.15163026838E+03  0.15163026838E+03  0.00000000000E+00 0.  1.
          1   -1    0    0  501    0  0.00000000000E+00 -0.00000000000E+00 -0.14994100724E+03  0.14994100724E+03  0.00000000000E+00 0. -1.
         25    2    1    2    0    0 -0.51676629167E+02 -0.34146346790E+02 -0.83034048704E+02  0.16241317608E+03  0.12508772730E+03 0.  0.
          5    1    3    3  502    0 -0.69363961156E+00 -0.67775935408E+02 -0.74160575807E+02  0.10055506929E+03  0.41800000000E+01 0.  1.
         -5    1    3    3    0  502 -0.50982989555E+02  0.33629588618E+02 -0.88734728969E+01  0.61858106792E+02  0.41800000000E+01 0.  1.
        -11    1    1    2    0    0  0.37680807397E+02 -0.26315260586E+02  0.50514753052E+02  0.68294044116E+02  0.00000000000E+00 0.  1.
         11    1    1    2    0    0  0.13995821770E+02  0.60461607376E+02  0.34208556783E+02  0.70864055421E+02  0.00000000000E+00 0. -1.
</event>
<event>
 7    1  0.2601031E-009  0.1562676E+03  0.7561462E-02  0.1192976E+00
         -2   -1    0    0    0  501 -0.00000000000E+00  0.00000000000E+00  0.19577498687E+03  0.19577498687E+03  0.00000000000E+00 0.  1.
          2   -1    0    0  501    0  0.00000000000E+00 -0.00000000000E+00 -0.13145472001E+03  0.13145472001E+03  0.00000000000E+00 0. -1.
         25    2    1    2    0    0  0.41291501904E+02  0.11445170973E+03  0.36887069482E+02  0.17836067747E+03  0.12509074060E+03 0.  0.
          5    1    3    3  502    0 -0.10175810348E+02  0.12084075135E+03  0.16407363648E+02  0.12244471522E+03  0.41800000000E+01 0. -1.
         -5    1    3    3    0  502  0.51467312251E+02 -0.63890416229E+01  0.20479705834E+02  0.55915962249E+02  0.41800000000E+01 0. -1.
        -11    1    1    2    0    0  0.11361329367E+02  0.18388029730E+01  0.17344880837E+02  0.20816000879E+02  0.00000000000E+00 0.  1.
         11    1    1    2    0    0 -0.52652831270E+02 -0.11629051270E+03  0.10088316542E+02  0.12805302853E+03  0.00000000000E+00 0. -1.
</event>
<event>
 7    1  0.2601031E-009  0.3018101E+03  0.7561462E-02  0.1084339E+00
         -1   -1    0    0    0  501 -0.00000000000E+00  0.00000000000E+00  0.58151168041E+02  0.58151168041E+02  0.00000000000E+00 0.  1.
          1   -1    0    0  501    0  0.00000000000E+00 -0.00000000000E+00 -0.18340607148E+04  0.18340607148E+04  0.00000000000E+00 0. -1.
         25    2    1    2    0    0 -0.17382462021E+02  0.28655501771E+03 -0.12282681530E+04  0.12675584550E+04  0.12508338470E+03 0.  0.
          5    1    3    3  502    0  0.10306371102E+02 -0.67571553235E+01 -0.19835550922E+02  0.23723446498E+02  0.41800000000E+01 0. -1.
         -5    1    3    3    0  502 -0.27688833124E+02  0.29331217304E+03 -0.12084326020E+04  0.12438350085E+04  0.41800000000E+01 0. -1.
        -11    1    1    2    0    0 -0.27033358893E+02 -0.14838431584E+03 -0.33281305379E+03  0.36539463112E+03  0.00000000000E+00 0. -1.
         11    1    1    2    0    0  0.44415820915E+02 -0.13817070187E+03 -0.21482834006E+03  0.25925879676E+03  0.00000000000E+00 0.  1.
</event>
<event>
 7    1  0.2601031E-009  0.1172972E+03  0.7561462E-02  0.1247624E+00
         -2   -1    0    0    0  501 -0.00000000000E+00  0.00000000000E+00  0.39135511656E+02  0.39135511656E+02  0.00000000000E+00 0.  1.
          2   -1    0    0  501    0  0.00000000000E+00 -0.00000000000E+00 -0.53535290540E+03  0.53535290540E+03  0.00000000000E+00 0. -1.
         25    2    1    2    0    0  0.81862178002E+02 -0.32548044611E+02 -0.19081701422E+03  0.24458010640E+03  0.12508998414E+03 0.  0.
          5    1    3    3  502    0  0.60031633635E+01 -0.33160136821E+02  0.52005018041E+01  0.34353315172E+02  0.41800000000E+01 0.  1.
         -5    1    3    3    0  502  0.75859014638E+02  0.61209220935E+00 -0.19601751603E+03  0.21022679123E+03  0.41800000000E+01 0.  1.
        -11    1    1    2    0    0 -0.90043374968E+02  0.51702859493E+02 -0.25957434822E+03  0.27957080912E+03  0.00000000000E+00 0.  1.
         11    1    1    2    0    0  0.81811969659E+01 -0.19154814882E+02 -0.45826031298E+02  0.50337501542E+02  0.00000000000E+00 0. -1.
</event>
<event>
 7    1  0.2601031E-009  0.1099339E+03  0.7561462E-02  0.1260692E+00
         -2   -1    0    0    0  501 -0.00000000000E+00  0.00000000000E+00  0.92260747301E+01  0.92260747301E+01  0.00000000000E+00 0. -1.
          2   -1    0    0  501    0  0.00000000000E+00 -0.00000000000E+00 -0.13974777339E+04  0.13974777339E+04  0.00000000000E+00 0.  1.
         25    2    1    2    0    0 -0.28097410789E+02 -0.21053476808E+02 -0.93443870008E+03  0.94342700778E+03  0.12508445712E+03 0.  0.
          5    1    3    3  502    0 -0.49018602299E+01 -0.71744799405E+02 -0.60579877990E+03  0.61006637229E+03  0.41800000000E+01 0.  1.
         -5    1    3    3    0  502 -0.23195550559E+02  0.50691322597E+02 -0.32863992018E+03  0.33336063548E+03  0.41800000000E+01 0.  1.
        -11    1    1    2    0    0 -0.29260819648E+02  0.18289989701E+02 -0.13545215982E+03  0.13977842069E+03  0.00000000000E+00 0. -1.
         11    1    1    2    0    0  0.57358230437E+02  0.27634871070E+01 -0.31836079927E+03  0.32349838017E+03  0.00000000000E+00 0.  1.
</event>
<event>
 7    1  0.2601031E-009  0.8415758E+02  0.7561462E-02  0.1317650E+00
         -1   -1    0    0    0  501 -0.00000000000E+00  0.00000000000E+00  0.20359276086E+03  0.20359276086E+03  0.00000000000E+00 0.  1.
          1   -1    0    0  501    0  0.00000000000E+00 -0.00000000000E+00 -0.53163326303E+02  0.53163326303E+02  0.00000000000E+00 0. -1.
         25    2    1    2    0    0  0.74882531918E+01  0.47427202528E+00  0.64808217090E+02  0.14108225176E+03  0.12509115832E+03 0.  0.
          5    1    3    3  502    0  0.23459264298E+02  0.54881844778E+02  0.58833825715E+02  0.83912129135E+02  0.41800000000E+01 0. -1.
         -5    1    3    3    0  502 -0.15971011107E+02 -0.54407572752E+02  0.59743913751E+01  0.57170122624E+02  0.41800000000E+01 0. -1.
        -11    1    1    2    0    0  0.12585325802E+02 -0.19995141741E+02  0.84402717553E+02  0.87647104054E+02  0.00000000000E+00 0.  1.
         11    1    1    2    0    0 -0.20073578993E+02  0.19520869715E+02  0.12184999116E+01  0.28026731349E+02  0.00000000000E+00 0. -1.
</event>
<event>
 7    1  0.2601031E-009  0.1217545E+03  0.7561462E-02  0.1240230E+00
          1   -1    0    0  501    0  0.00000000000E+00  0.00000000000E+00  0.54859700359E+02  0.54859700359E+02  0.00000000000E+00 0. -1.
         -1   -1    0    0    0  501 -0.00000000000E+00 -0.00000000000E+00 -0.30913559314E+03  0.30913559314E+03  0.00000000000E+00 0.  1.
         25    2    1    2    0    0 -0.16162508563E+02 -0.67920905622E+02 -0.16351261039E+03  0.21738644242E+03  0.12508403370E+03 0.  0.
          5    1    3    3  502    0 -0.69191218194E+02 -0.51192147810E+02 -0.84585337069E+02  0.12074854997E+03  0.41800000000E+01 0. -1.
         -5    1    3    3    0  502  0.53028709631E+02 -0.16728757812E+02 -0.78927273322E+02  0.96637892449E+02  0.41800000000E+01 0. -1.
        -11    1    1    2    0    0 -0.19340656599E+02  0.62793263458E+02 -0.89090188738E+02  0.11069831373E+03  0.00000000000E+00 0. -1.
         11    1    1    2    0    0  0.35503165162E+02  0.51276421637E+01 -0.16730936562E+01  0.35910537354E+02  0.00000000000E+00 0.  1.
</event>
<event>
 7    1  0.2601031E-009  0.1070261E+03  0.7561462E-02  0.1266178E+00
          1   -1    0    0  501    0  0.00000000000E+00  0.00000000000E+00  0.24124580123E+03  0.24124580123E+03  0.00000000000E+00 0. -1.
         -1   -1    0    0    0  501 -0.00000000000E+00 -0.00000000000E+00 -0.62442577361E+02  0.62442577361E+02  0.00000000000E+00 0.  1.
         25    2    1    2    0    0 -0.51467415215E+02  0.27367995299E+02  0.93238798994E+02  0.16654949228E+03  0.12508939901E+03 0.  0.
          5    1    3    3  502    0 -0.30554835877E+02 -0.49368386232E+02  0.43229244042E+02  0.72505692846E+02  0.41800000000E+01 0.  1.
         -5    1    3    3    0  502 -0.20912579339E+02  0.76736381531E+02  0.50009554952E+02  0.94043799432E+02  0.41800000000E+01 0.  1.
        -11    1    1    2    0    0  0.35669044432E+02  0.87930626040E+01 -0.61935065168E+01  0.37255311080E+02  0.00000000000E+00 0.  1.
         11    1    1    2    0    0  0.15798370783E+02 -0.36161057903E+02  0.91757931389E+02  0.99883575231E+02  0.00000000000E+00 0. -1.
</event>
<event>
 7    1  0.2601031E-009  0.1307204E+03  0.7561462E-02  0.1226391E+00
          2   -1    0    0  501    0  0.00000000000E+00  0.00000000000E+00  0.25648032552E+04  0.25648032552E+04  0.00000000000E+00 0. -1.
         -2   -1    0    0    0  501 -0.00000000000E+00 -0.00000000000E+00 -0.78106058067E+01  0.78106058067E+01  0.00000000000E+00 0.  1.
         25    2    1    2    0    0 -0.53683890159E+02 -0.48874690595E+02  0.18845601649E+04  0.18901020683E+04  0.12509243888E+03 0.  0.
          5    1    3    3  502    0 -0.94602784385E+02 -0.29748623713E+02  0.13057004489E+04  0.13094677553E+04  0.41800000000E+01 0. -1.
         -5    1    3    3    0  502  0.40918894226E+02 -0.19126066881E+02  0.57885971594E+03  0.58063431304E+03  0.41800000000E+01 0. -1.
        -11    1    1    2    0    0  0.41966776851E+02  0.76254537782E+02  0.50877826130E+03  0.51616982096E+03  0.00000000000E+00 0.  1.
         11    1    1    2    0    0  0.11717113308E+02 -0.27379847187E+02  0.16365422321E+03  0.16634197170E+03  0.00000000000E+00 0. -1.
</event>
<event>
 7    1  0.2601031E-009  0.2443575E+03  0.7561462E-02  0.1116924E+00
          1   -1    0    0  501    0  0.00000000000E+00  0.00000000000E+00  0.34861164569E+03  0.34861164569E+03  0.00000000000E+00 0. -1.
         -1   -1    0    0    0  501 -0.00000000000E+00 -0.00000000000E+00 -0.17611636510E+03  0.17611636510E+03  0.00000000000E+00 0.  1.
         25    2    1    2    0    0  0.18932030124E+03 -0.11010769262E+03  0.12975668388E+03  0.28363730979E+03  0.12508975199E+03 0.  0.
          5    1    3    3  502    0  0.14181605193E+03 -0.13665848847E+03  0.10979251238E+03  0.22551985108E+03  0.41800000000E+01 0.  1.
         -5    1    3    3    0  502  0.47504249309E+02  0.26550795848E+02  0.19964171500E+02  0.58117458705E+02  0.41800000000E+01 0.  1.
        -11    1    1    2    0    0 -0.21282121739E+02  0.57111066713E+02  0.75414361415E+01  0.61412343270E+02  0.00000000000E+00 0.  1.
         11    1    1    2    0    0 -0.16803817950E+03  0.52996625908E+02  0.35197160570E+02  0.17967835774E+03  0.00000000000E+00 0. -1.
</event>
<event>
 7    1  0.2601031E-009  0.1329230E+03  0.7561462E-02  0.1223182E+00
         -1   -1    0    0    0  501 -0.00000000000E+00  0.00000000000E+00  0.95100067252E+02  0.95100067252E+02  0.00000000000E+00 0.  1.
          1   -1    0    0  501    0  0.00000000000E+00 -0.00000000000E+00 -0.20098670646E+03  0.20098670646E+03  0.00000000000E+00 0. -1.
         25    2    1    2    0    0 -0.71161441010E+02 -0.45833620369E+02 -0.43291335548E+02  0.15711937153E+03  0.12509071002E+03 0.  0.
          5    1    3    3  502    0 -0.41742428309E+02 -0.88945982278E+02 -0.33197206077E+02  0.10379472518E+03  0.41800000000E+01 0.  1.
         -5    1    3    3    0  502 -0.29419012701E+02  0.43112361910E+02 -0.10094129471E+02  0.53324646342E+02  0.41800000000E+01 0.  1.
        -11    1    1    2    0    0  0.15387657552E+02 -0.22299022854E+02  0.55155761879E+01  0.27648652876E+02  0.00000000000E+00 0.  1.
         11    1    1    2    0    0  0.55773783458E+02  0.68132643223E+02 -0.68110879844E+02  0.11131874931E+03  0.00000000000E+00 0. -1.
</event>
<event>
 7    1  0.2601031E-009  0.1353133E+03  0.7561462E-02  0.1219778E+00
         -1   -1    0    0    0  501 -0.00000000000E+00  0.00000000000E+00  0.50022583222E+02  0.50022583222E+02  0.00000000000E+00 0.  1.
          1   -1    0    0  501    0  0.00000000000E+00 -0.00000000000E+00 -0.49819694753E+03  0.49819694753E+03  0.00000000000E+00 0. -1.
         25    2    1    2    0    0  0.11429355718E+03  0.18179741556E+02 -0.25050710191E+03  0.30297687363E+03  0.12509059771E+03 0.  0.
          5    1    3    3  502    0  0.11673809540E+01 -0.29990553586E+02 -0.84650427318E+01  0.31463080446E+02  0.41800000000E+01 0. -1.
         -5    1    3    3    0  502  0.11312617623E+03  0.48170295142E+02 -0.24204205917E+03  0.27151379319E+03  0.41800000000E+01 0. -1.
        -11    1    1    2    0    0 -0.50074855511E+02  0.16042252981E+01 -0.17693129880E+02  0.53132960939E+02  0.00000000000E+00 0.  1.
         11    1    1    2    0    0 -0.64218701670E+02 -0.19783966854E+02 -0.17997413252E+03  0.19210969618E+03  0.00000000000E+00 0. -1.
</event>
<event>
 7    1  0.2601031E-009  0.9917283E+02  0.7561462E-02  0.1282045E+00
         -1   -1    0    0    0  501 -0.00000000000E+00  0.00000000000E+00  0.54698580216E+02  0.54698580216E+02  0.00000000000E+00 0.  1.
          1   -1    0    0  501    0  0.00000000000E+00 -0.00000000000E+00 -0.25852329150E+03  0.25852329150E+03  0.00000000000E+00 0. -1.
         25    2    1    2    0    0 -0.13489477717E+02 -0.77735921257E+01 -0.55464410141E+02  0.13771648995E+03  0.12508851294E+03 0.  0.
          5    1    3    3  502    0  0.20713323096E+02 -0.59928061890E+02 -0.27845902989E+02  0.69377813953E+02  0.41800000000E+01 0. -1.
         -5    1    3    3    0  502 -0.34202800814E+02  0.52154469764E+02 -0.27618507152E+02  0.68338675998E+02  0.41800000000E+01 0. -1.
        -11    1    1    2    0    0  0.55952264908E+01  0.39349023946E+02 -0.22853108606E+02  0.45846666378E+02  0.00000000000E+00 0.  1.
         11    1    1    2    0    0  0.78942512266E+01 -0.31575431821E+02 -0.12550719254E+03  0.12965871539E+03  0.00000000000E+00 0. -1.
</event>
<event>
 7    1  0.2601031E-009  0.9564436E+02  0.7561462E-02  0.1289731E+00
          2   -1    0    0  501    0  0.00000000000E+00  0.00000000000E+00  0.49494961772E+03  0.49494961772E+03  0.00000000000E+00 0. -1.
         -2   -1    0    0    0  501 -0.00000000000E+00 -0.00000000000E+00 -0.33908432345E+02  0.33908432345E+02  0.00000000000E+00 0.  1.
         25    2    1    2    0    0 -0.73529977386E+02 -0.57715069903E+01  0.28325703665E+03  0.31831337872E+03  0.12509552507E+03 0.  0.
          5    1    3    3  502    0 -0.31425226869E+01  0.18943388209E+02 -0.52067893190E+01  0.20330038384E+02  0.41800000000E+01 0. -1.
         -5    1    3    3    0  502 -0.70387454699E+02 -0.24714895199E+02  0.28846382597E+03  0.29798334033E+03  0.41800000000E+01 0. -1.
        -11    1    1    2    0    0  0.19963774698E+02  0.31657259469E+02  0.21141743799E+02  0.42984970724E+02  0.00000000000E+00 0.  1.
         11    1    1    2    0    0  0.53566202688E+02 -0.25885752479E+02  0.15664240492E+03  0.16755970062E+03  0.00000000000E+00 0. -1.
</event>
<event>
 7    1  0.2601031E-009  0.1702142E+03  0.7561462E-02  0.1177625E+00
          2   -1    0    0  501    0  0.00000000000E+00  0.00000000000E+00  0.70287717787E+03  0.70287717787E+03  0.00000000000E+00 0. -1.
         -2   -1    0    0    0  501 -0.00000000000E+00 -0.00000000000E+00 -0.47525797500E+02  0.47525797500E+02  0.00000000000E+00 0.  1.
         25    2    1    2    0    0  0.12695986241E+03  0.32038128504E+02  0.46612685833E+03  0.50006253152E+03  0.12507213531E+03 0.  0.
          5    1    3    3  502    0  0.13706644168E+03  0.59392349964E+02  0.35668718121E+03  0.38672713677E+03  0.41800000000E+01 0.  1.
         -5    1    3    3    0  502 -0.10106579272E+02 -0.27354221460E+02  0.10943967712E+03  0.11333539475E+03  0.41800000000E+01 0.  1.
        -11    1    1    2    0    0 -0.13645295157E+03 -0.46561769660E+02  0.18020886717E+03  0.23078700612E+03  0.00000000000E+00 0. -1.
         11    1    1    2    0    0  0.94930891604E+01  0.14523641156E+02  0.90156548644E+01  0.19553437725E+02  0.00000000000E+00 0.  1.
</event>
<event>
 7    1  0.2601031E-009  0.9218511E+02  0.7561462E-02  0.1297645E+00
          1   -1    0    0  501    0  0.00000000000E+00  0.00000000000E+00  0.50076628452E+02  0.50076628452E+02  0.00000000000E+00 0. -1.
         -1   -1    0    0    0  501 -0.00000000000E+00 -0.00000000000E+00 -0.31461639958E+03  0.31461639958E+03  0.00000000000E+00 0.  1.
         25    2    1    2    0    0  0.54319183511E+02 -0.48788216554E+01 -0.10210245321E+03  0.17043133638E+03  0.12509017896E+03 0.  0.
          5    1    3    3  502    0 -0.71485995797E+01  0.28117286147E+02  0.15854335778E+02  0.33324414761E+02  0.41800000000E+01 0.  1.
         -5    1    3    3    0  502  0.61467783091E+02 -0.32996107802E+02 -0.11795678898E+03  0.13710692162E+03  0.41800000000E+01 0.  1.
        -11    1    1    2    0    0 -0.35813633637E+02 -0.29320149673E+02 -0.14394568132E+03  0.15120399036E+03  0.00000000000E+00 0.  1.
         11    1    1    2    0    0 -0.18505549874E+02  0.34198971329E+02 -0.18491636603E+02  0.43057701289E+02  0.00000000000E+00 0. -1.
</event>
<event>
 7    1  0.2601031E-009  0.1241377E+03  0.7561462E-02  0.1236423E+00
          2   -1    0    0  501    0  0.00000000000E+00  0.00000000000E+00  0.22258448998E+03  0.22258448998E+03  0.00000000000E+00 0. -1.
         -2   -1    0    0    0  501 -0.00000000000E+00 -0.00000000000E+00 -0.85813983679E+02  0.85813983679E+02  0.00000000000E+00 0.  1.
         25    2    1    2    0    0  0.75429496843E+02 -0.11857473009E+02  0.36043364893E+02  0.15092282326E+03  0.12509342816E+03 0.  0.
          5    1    3    3  502    0  0.97526397124E+02  0.97411810981E+01  0.56901468930E+02  0.11340872238E+03  0.41800000000E+01 0.  1.
         -5    1    3    3    0  502 -0.22096900281E+02 -0.21598654107E+02 -0.20858104037E+02  0.37514100886E+02  0.41800000000E+01 0.  1.
        -11    1    1    2    0    0 -0.61344687000E+02 -0.34612827489E+02  0.45105519331E+02  0.83640458655E+02  0.00000000000E+00 0.  1.
         11    1    1    2    0    0 -0.14084809844E+02  0.46470300498E+02  0.55621622075E+02  0.73835191738E+02  0.00000000000E+00 0. -1.
</event>
<event>
 7    1  0.2601031E-009  0.1069776E+03  0.7561462E-02  0.1266271E+00
          1   -1    0    0  501    0  0.00000000000E+00  0.00000000000E+00  0.91682478354E+02  0.91682478354E+02  0.00000000000E+00 0. -1.
         -1   -1    0    0    0  501 -0.00000000000E+00 -0.00000000000E+00 -0.15091674769E+03  0.15091674769E+03  0.00000000000E+00 0.  1.
         25    2    1    2    0    0  0.48407925402E+01 -0.31705144936E+02 -0.67493658358E+02  0.14571219226E+03  0.12509196444E+03 0.  0.
          5    1    3    3  502    0 -0.44580169457E+02  0.22067064655E+02 -0.62515725176E+01  0.50308065062E+02  0.41800000000E+01 0.  1.
         -5    1    3    3    0  502  0.49420961998E+02 -0.53772209591E+02 -0.61242085841E+02  0.95404127202E+02  0.41800000000E+01 0.  1.
        -11    1    1    2    0    0 -0.39857759727E+02 -0.49820698200E+01  0.19937223190E+02  0.44843671780E+02  0.00000000000E+00 0. -1.
         11    1    1    2    0    0  0.35016967186E+02  0.36687214756E+02 -0.11677834169E+02  0.52043362001E+02  0.00000000000E+00 0.  1.
</event>
<event>
 7    1  0.2601031E-009  0.9682188E+02  0.7561462E-02  0.1287125E+00
          1   -1    0    0  501    0  0.00000000000E+00  0.00000000000E+00  0.72199162040E+03  0.72199162040E+03  0.00000000000E+00 0. -1.
         -1   -1    0    0    0  501 -0.00000000000E+00 -0.00000000000E+00 -0.19060547979E+02  0.19060547979E+02  0.00000000000E+00 0.  1.
         25    2    1    2    0    0  0.12236728512E+02 -0.29921093622E+02  0.30638610853E+03  0.33251322303E+03  0.12509031387E+03 0.  0.
          5    1    3    3  502    0 -0.37151942793E+02  0.10059794938E+02  0.30258329321E+02  0.49137615131E+02  0.41800000000E+01 0. -1.
         -5    1    3    3    0  502  0.49388671305E+02 -0.39980888561E+02  0.27612777920E+03  0.28337560790E+03  0.41800000000E+01 0. -1.
        -11    1    1    2    0    0 -0.42692605618E+02 -0.71316066933E+01  0.11377920742E+03  0.12173424510E+03  0.00000000000E+00 0.  1.
         11    1    1    2    0    0  0.30455877106E+02  0.37052700315E+02  0.28276575648E+03  0.28680470026E+03  0.00000000000E+00 0. -1.
</event>
<event>
 7    1  0.2601031E-009  0.1575768E+03  0.7561462E-02  0.1191460E+00
         -2   -1    0    0    0  501 -0.00000000000E+00  0.00000000000E+00  0.33276811799E+02  0.33276811799E+02  0.00000000000E+00 0.  1.
          2   -1    0    0  501    0  0.00000000000E+00 -0.00000000000E+00 -0.10303134619E+04  0.10303134619E+04  0.00000000000E+00 0. -1.
         25    2    1    2    0    0 -0.11213091286E+03 -0.64562153853E+02 -0.74066838826E+03  0.76221937182E+03  0.12508835305E+03 0.  0.
          5    1    3    3  502    0 -0.84173575089E+02 -0.87994406458E+02 -0.68350218414E+03  0.69427726049E+03  0.41800000000E+01 0. -1.
         -5    1    3    3    0  502 -0.27957337772E+02  0.23432252605E+02 -0.57166204125E+02  0.67942111326E+02  0.41800000000E+01 0. -1.
        -11    1    1    2    0    0  0.12092592403E+03  0.75498790742E+02 -0.24434063231E+03  0.28288777121E+03  0.00000000000E+00 0. -1.
         11    1    1    2    0    0 -0.87950111648E+01 -0.10936636889E+02 -0.12027629570E+02  0.18483130712E+02  0.00000000000E+00 0.  1.
</event>
<event>
 7    1  0.2601031E-009  0.1395339E+03  0.7561462E-02  0.1213958E+00
          2   -1    0    0  501    0  0.00000000000E+00  0.00000000000E+00  0.82927615377E+02  0.82927615377E+02  0.00000000000E+00 0. -1.
         -2   -1    0    0    0  501 -0.00000000000E+00 -0.00000000000E+00 -0.27573772818E+03  0.27573772818E+03  0.00000000000E+00 0.  1.
         25    2    1    2    0    0  0.79067595337E+02  0.77182070008E+02 -0.12936773396E+03  0.21117558931E+03  0.12510140834E+03 0.  0.
          5    1    3    3  502    0  0.10061056548E+03  0.71904899315E+02 -0.13947123484E+03  0.18644703854E+03  0.41800000000E+01 0.  1.
         -5    1    3    3    0  502 -0.21542970148E+02  0.52771706924E+01  0.10103500880E+02  0.24728550773E+02  0.41800000000E+01 0.  1.
        -11    1    1    2    0    0  0.12997100066E+02 -0.21635240203E+02 -0.16579179723E+02  0.30197308308E+02  0.00000000000E+00 0. -1.
         11    1    1    2    0    0 -0.92064695403E+02 -0.55546829804E+02 -0.46863199114E+02  0.11729244593E+03  0.00000000000E+00 0.  1.
</event>
<event>
 7    1  0.2601031E-009  0.1657405E+03  0.7561462E-02  0.1182364E+00
          1   -1    0    0  501    0  0.00000000000E+00  0.00000000000E+00  0.94144502361E+02  0.94144502361E+02  0.00000000000E+00 0. -1.
         -1   -1    0    0    0  501 -0.00000000000E+00 -0.00000000000E+00 -0.35092483625E+03  0.35092483625E+03  0.00000000000E+00 0.  1.
         25    2    1    2    0    0 -0.10852155832E+03  0.96127649706E+02 -0.13955398291E+03  0.23694336535E+03  0.12509752427E+03 0.  0.
          5    1    3    3  502    0 -0.11804544376E+03  0.92862262657E+02 -0.15639913009E+03  0.21687850726E+03  0.41800000000E+01 0. -1.
         -5    1    3    3    0  502  0.95238854384E+01  0.32653870491E+01  0.16845147185E+02  0.20064858088E+02  0.41800000000E+01 0. -1.
        -11    1    1    2    0    0  0.10680446394E+03 -0.39807783193E+02 -0.64543820897E+02  0.13098762512E+03  0.00000000000E+00 0.  1.
         11    1    1    2    0    0  0.17170943874E+01 -0.56319866513E+02 -0.52682530083E+02  0.77138348136E+02  0.00000000000E+00 0. -1.
</event>
<event>
 7    1  0.2601031E-009  0.1200195E+03  0.7561462E-02  0.1243065E+00
         -2   -1    0    0    0  501 -0.00000000000E+00  0.00000000000E+00  0.23862417191E+02  0.23862417191E+02  0.00000000000E+00 0.  1.
          2   -1    0    0  501    0  0.00000000000E+00 -0.00000000000E+00 -0.66331136777E+03  0.66331136777E+03  0.00000000000E+00 0. -1.
         25    2    1    2    0    0  0.49388495387E+02  0.38198137244E+02 -0.31739740148E+03  0.34682363646E+03  0.12508878116E+03 0.  0.
          5    1    3    3  502    0 -0.31881682956E+02 -0.12512248723E+02 -0.14993174036E+03  0.15385056790E+03  0.41800000000E+01 0. -1.
         -5    1    3    3    0  502  0.81270178344E+02  0.50710385967E+02 -0.16746566112E+03  0.19297306855E+03  0.41800000000E+01 0. -1.
        -11    1    1    2    0    0 -0.63328166300E+02 -0.57704844779E+02 -0.26355476166E+03  0.27713068786E+03  0.00000000000E+00 0. -1.
         11    1    1    2    0    0  0.13939670912E+02  0.19506707535E+02 -0.58496787441E+02  0.63219460651E+02  0.00000000000E+00 0.  1.
</event>
<event>
 7    1  0.2601031E-009  0.1771781E+03  0.7561462E-02  0.1170562E+00
         -1   -1    0    0    0  501 -0.00000000000E+00  0.00000000000E+00  0.11037518066E+04  0.11037518066E+04  0.00000000000E+00 0.  1.
          1   -1    0    0  501    0  0.00000000000E+00 -0.00000000000E+00 -0.50080132912E+02  0.50080132912E+02  0.00000000000E+00 0. -1.
         25    2    1    2    0    0 -0.10874277328E+03 -0.92687423735E+02  0.92021302052E+03  0.93960428197E+03  0.12509298265E+03 0.  0.
          5    1    3    3  502    0 -0.13250157010E+03 -0.55148338406E+02  0.75129030803E+03  0.76488731500E+03  0.41800000000E+01 0. -1.
         -5    1    3    3    0  502  0.23758796817E+02 -0.37539085329E+02  0.16892271249E+03  0.17471696697E+03  0.41800000000E+01 0. -1.
        -11    1    1    2    0    0  0.33727734635E+02 -0.13341748909E+02  0.41329824657E+02  0.54988332888E+02  0.00000000000E+00 0.  1.
         11    1    1    2    0    0  0.75015038648E+02  0.10602917264E+03  0.92128828530E+02  0.15923932467E+03  0.00000000000E+00 0. -1.
</event>
<event>
 7    1  0.2601031E-009  0.1500602E+03  0.7561462E-02  0.1200399E+00
         -2   -1    0    0    0  501 -0.00000000000E+00  0.00000000000E+00  0.17780598908E+03  0.17780598908E+03  0.00000000000E+00 0. -1.
          2   -1    0    0  501    0  0.00000000000E+00 -0.00000000000E+00 -0.14722346672E+03  0.14722346672E+03  0.00000000000E+00 0.  1.
         25    2    1    2    0    0  0.73382402594E+02 -0.92284964784E+02  0.24043251756E+02  0.17357139364E+03  0.12508980374E+03 0.  0.
          5    1    3    3  502    0 -0.22250027857E+02 -0.57178058524E+02  0.35440105273E+02  0.70977937262E+02  0.41800000000E+01 0. -1.
         -5    1    3    3    0  502  0.95632430451E+02 -0.35106906261E+02 -0.11396853517E+02  0.10259345638E+03  0.41800000000E+01 0. -1.
        -11    1    1    2    0    0 -0.67746719084E+01  0.63905270063E+02  0.35572763047E+02  0.73452033274E+02  0.00000000000E+00 0. -1.
         11    1    1    2    0    0 -0.66607730686E+02  0.28379694721E+02 -0.29033492446E+02  0.78006028890E+02  0.00000000000E+00 0.  1.
</event>
<event>
 7    1  0.2601031E-009  0.2386386E+03  0.7561462E-02  0.1120703E+00
         -1   -1    0    0    0  501 -0.00000000000E+00  0.00000000000E+00  0.47702804267E+02  0.47702804267E+02  0.00000000000E+00 0.  1.
          1   -1    0    0  501    0  0.00000000000E+00 -0.00000000000E+00 -0.12887669076E+04  0.12887669076E+04  0.00000000000E+00 0. -1.
         25    2    1    2    0    0  0.10827489081E+02  0.22061086595E+03 -0.56067317618E+03  0.61545662562E+03  0.12508420697E+03 0.  0.
          5    1    3    3  502    0  0.49725024270E+02  0.29142476942E+02 -0.14682597095E+03  0.15778846646E+03  0.41800000000E+01 0.  1.
         -5    1    3    3    0  502 -0.38897535190E+02  0.19146838901E+03 -0.41384720523E+03  0.45766815916E+03  0.41800000000E+01 0.  1.
        -11    1    1    2    0    0 -0.20665891300E+02 -0.66400900522E+02 -0.11064680586E+03  0.13068616721E+03  0.00000000000E+00 0.  1.
         11    1    1    2    0    0  0.98384022197E+01 -0.15420996543E+03 -0.56974412127E+03  0.59032691901E+03  0.00000000000E+00 0. -1.
</event>
<event>
 7    1  0.2601031E-009  0.1235829E+03  0.7561462E-02  0.1237301E+00
         -1   -1    0    0    0  501 -0.00000000000E+00  0.00000000000E+00  0.25340370443E+02  0.25340370443E+02  0.00000000000E+00 0.  1.
          1   -1    0    0  501    0  0.00000000000E+00 -0.00000000000E+00 -0.76005963368E+03  0.76005963368E+03  0.00000000000E+00 0. -1.
         25    2    1    2    0    0  0.77917009457E+02 -0.24192372292E+02 -0.33169440459E+03  0.36376491280E+03  0.12508957795E+03 0.  0.
          5    1    3    3  502    0 -0.22206189481E+02 -0.90518547743E+00 -0.17409490998E+03  0.17555752417E+03  0.41800000000E+01 0.  1.
         -5    1    3    3    0  502  0.10012319894E+03 -0.23287186815E+02 -0.15759949461E+03  0.18820738863E+03  0.41800000000E+01 0.  1.
        -11    1    1    2    0    0  0.23105762556E+01  0.39860706598E+02 -0.17204659855E+03  0.17661893094E+03  0.00000000000E+00 0.  1.
         11    1    1    2    0    0 -0.80227585713E+02 -0.15668334306E+02 -0.23097826010E+03  0.24501616038E+03  0.00000000000E+00 0. -1.
</event>
<event>
 7    1  0.2601031E-009  0.1114316E+03  0.7561462E-02  0.1257942E+00
          2   -1    0    0  501    0  0.00000000000E+00  0.00000000000E+00  0.17914829431E+03  0.17914829431E+03  0.00000000000E+00 0. -1.
         -2   -1    0    0    0  501 -0.00000000000E+00 -0.00000000000E+00 -0.11988131156E+03  0.11988131156E+03  0.00000000000E+00 0.  1.
         25    2    1    2    0    0  0.30957540833E+02  0.93153771040E+02  0.41828273120E+02  0.16442308680E+03  0.12509737266E+03 0.  0.
          5    1    3    3  502    0 -0.73577858560E+01  0.67011585819E+02  0.79646159056E+02  0.10443022886E+03  0.41800000000E+01 0. -1.
         -5    1    3    3    0  502  0.38315326689E+02  0.26142185221E+02 -0.37817885936E+02  0.59992857942E+02  0.41800000000E+01 0. -1.
        -11    1    1    2    0    0  0.24306566342E+01 -0.65079180568E+02 -0.28649070924E+02  0.71147572692E+02  0.00000000000E+00 0.  1.
         11    1    1    2    0    0 -0.33388197467E+02 -0.28074590471E+02  0.46087780549E+02  0.63458946384E+02  0.00000000000E+00 0. -1.
</event>
<event>
 7    1  0.2601031E-009  0.1274751E+03  0.7561462E-02  0.1231251E+00
          2   -1    0    0  501    0  0.00000000000E+00  0.00000000000E+00  0.32378410733E+03  0.32378410733E+03  0.00000000000E+00 0.  1.
         -2   -1    0    0    0  501 -0.00000000000E+00 -0.00000000000E+00 -0.55202049572E+02  0.55202049572E+02  0.00000000000E+00 0. -1.
         25    2    1    2    0    0 -0.32463961617E+02  0.67737932492E+02  0.13602324146E+03  0.19947928686E+03  0.12508927759E+03 0.  0.
          5    1    3    3  502    0 -0.16850190047E+02 -0.30120720034E+02  0.49621178680E+01  0.35118110623E+02  0.41800000000E+01 0. -1.
         -5    1    3    3    0  502 -0.15613771570E+02  0.97858652526E+02  0.13106112359E+03  0.16436117624E+03  0.41800000000E+01 0. -1.
        -11    1    1    2    0    0  0.35354070897E+02  0.14860996621E+02  0.44200175753E+02  0.58518502084E+02  0.00000000000E+00 0. -1.
         11    1    1    2    0    0 -0.28901092799E+01 -0.82598929112E+02  0.88358640546E+02  0.12098836796E+03  0.00000000000E+00 0.  1.
</event>
<event>
 7    1  0.2601031E-009  0.1246618E+03  0.7561462E-02  0.1235599E+00
          1   -1    0    0  501    0  0.00000000000E+00  0.00000000000E+00  0.54777819978E+03  0.54777819978E+03  0.00000000000E+00 0. -1.
         -1   -1    0    0    0  501 -0.00000000000E+00 -0.00000000000E+00 -0.34366412379E+02  0.34366412379E+02  0.00000000000E+00 0.  1.
         25    2    1    2    0    0  0.80014382423E+02 -0.75605189607E+01  0.22892322469E+03  0.27297062618E+03  0.12509059563E+03 0.  0.
          5    1    3    3  502    0  0.10759484232E+03 -0.24200252293E+02  0.20432914525E+03  0.23222871120E+03  0.41800000000E+01 0. -1.
         -5    1    3    3    0  502 -0.27580459896E+02  0.16639733332E+02  0.24594079436E+02  0.40741914986E+02  0.41800000000E+01 0. -1.
        -11    1    1    2    0    0 -0.48469377299E+02 -0.30330457932E+02  0.76995221731E+02  0.95903500372E+02  0.00000000000E+00 0.  1.
         11    1    1    2    0    0 -0.31545005124E+02  0.37890976892E+02  0.20749334098E+03  0.21327048560E+03  0.00000000000E+00 0. -1.
</event>
<event>
 7    1  0.2601031E-009  0.9597614E+02  0.7561462E-02  0.1288993E+00
         -2   -1    0    0    0  501 -0.00000000000E+00  0.00000000000E+00  0.27175104057E+02  0.27175104057E+02  0.00000000000E+00 0. -1.
          2   -1    0    0  501    0  0.00000000000E+00 -0.00000000000E+00 -0.55741836493E+03  0.55741836493E+03  0.00000000000E+00 0.  1.
         25    2    1    2    0    0 -0.50531294664E+02  0.21227461589E+01 -0.24415017996E+03  0.27895112660E+03  0.12508598187E+03 0.  0.
          5    1    3    3  502    0 -0.53510132629E+02 -0.23998230918E+02 -0.24535732287E+03  0.25230326527E+03  0.41800000000E+01 0. -1.
         -5    1    3    3    0  502  0.29788379655E+01  0.26120977076E+02  0.12071429079E+01  0.26647861322E+02  0.41800000000E+01 0. -1.
        -11    1    1    2    0    0  0.76638799735E+02 -0.13913186260E+02 -0.18928622021E+03  0.20468599253E+03  0.00000000000E+00 0.  1.
         11    1    1    2    0    0 -0.26107505071E+02  0.11790440101E+02 -0.96806860703E+02  0.10095634986E+03  0.00000000000E+00 0. -1.
</event>
<event>
 7    1  0.2601031E-009  0.9432953E+02  0.7561462E-02  0.1292693E+00
          2   -1    0    0  501    0  0.00000000000E+00  0.00000000000E+00  0.12278765168E+03  0.12278765168E+03  0.00000000000E+00 0. -1.
         -2   -1    0    0    0  501 -0.00000000000E+00 -0.00000000000E+00 -0.11610559465E+03  0.11610559465E+03  0.00000000000E+00 0.  1.
         25    2    1    2    0    0  0.38461626816E+02  0.26627753501E+02 -0.17990428337E+02  0.13475744563E+03  0.12509028598E+03 0.  0.
          5    1    3    3  502    0 -0.34513291409E+02  0.24121245640E+02 -0.40155837651E+02  0.58334942123E+02  0.41800000000E+01 0.  1.
         -5    1    3    3    0  502  0.72974918225E+02  0.25065078611E+01  0.22165409314E+02  0.76422503503E+02  0.41800000000E+01 0.  1.
        -11    1    1    2    0    0  0.83792973308E-01 -0.33969139182E+02  0.47760657570E+02  0.58608786454E+02  0.00000000000E+00 0. -1.
         11    1    1    2    0    0 -0.38545419789E+02  0.73413856809E+01 -0.23088172202E+02  0.45527014245E+02  0.00000000000E+00 0.  1.
</event>
<event>
 7    1  0.2601031E-009  0.1422070E+03  0.7561462E-02  0.1210390E+00
         -1   -1    0    0    0  501 -0.00000000000E+00  0.00000000000E+00  0.19868492688E+02  0.19868492688E+02  0.00000000000E+00 0.  1.
          1   -1    0    0  501    0  0.00000000000E+00 -0.00000000000E+00 -0.13938054090E+04  0.13938054090E+04  0.00000000000E+00 0. -1.
         25    2    1    2    0    0 -0.75869226034E+02 -0.90990622167E+02 -0.85126775243E+03  0.86852597222E+03  0.12508055534E+03 0.  0.
          5    1    3    3  502    0 -0.15151734073E+02  0.45032946504E+01 -0.89676221610E+01  0.18647931664E+02  0.41800000000E+01 0. -1.
         -5    1    3    3    0  502 -0.60717491962E+02 -0.95493916817E+02 -0.84230013027E+03  0.84987804056E+03  0.41800000000E+01 0. -1.
        -11    1    1    2    0    0 -0.24697751892E+02  0.17841549491E+02 -0.95078386153E+02  0.99840870140E+02  0.00000000000E+00 0.  1.
         11    1    1    2    0    0  0.10056697793E+03  0.73149072676E+02 -0.42759077773E+03  0.44530705932E+03  0.00000000000E+00 0. -1.
</event>
<event>
 7    1  0.2601031E-009  0.9745011E+02  0.7561462E-02  0.1285751E+00
          1   -1    0    0  501    0  0.00000000000E+00  0.00000000000E+00  0.75240778504E+03  0.75240778504E+03  0.00000000000E+00 0. -1.
         -1   -1    0    0    0  501 -0.00000000000E+00 -0.00000000000E+00 -0.29060110930E+02  0.29060110930E+02  0.00000000000E+00 0.  1.
         25    2    1    2    0    0  0.21430377769E+02  0.61880315847E+02  0.58891804254E+03  0.60560679341E+03  0.12508674116E+03 0.  0.
          5    1    3    3  502    0  0.44567113688E+02  0.51720529813E+00  0.73811356581E+02  0.86325453281E+02  0.41800000000E+01 0. -1.
         -5    1    3    3    0  502 -0.23136735919E+02  0.61363110549E+02  0.51510668596E+03  0.51928134013E+03  0.41800000000E+01 0. -1.
        -11    1    1    2    0    0  0.11332137612E+02 -0.47162624376E+02  0.14436136966E+02  0.50607633133E+02  0.00000000000E+00 0.  1.
         11    1    1    2    0    0 -0.32762515381E+02 -0.14717691471E+02  0.11999349460E+03  0.12525346943E+03  0.00000000000E+00 0. -1.
</event>
<event>
 7    1  0.3124601E-009  0.8558904E+02  0.7561462E-02  0.1313899E+00
         -2   -1    0    0    0  501 -0.00000000000E+00  0.00000000000E+00  0.13022075066E+03  0.13022075066E+03  0.00000000000E+00 0. -1.
          2   -1    0    0  501    0  0.00000000000E+00 -0.00000000000E+00 -0.12453876794E+03  0.12453876794E+03  0.00000000000E+00 0.  1.
         25    2    1    2    0    0  0.64486890937E+02  0.16408089841E+02 -0.37522953225E+01  0.14173773290E+03  0.12509084975E+03 0.  0.
          5    1    3    3  502    0  0.45755245011E+02  0.35470312876E+02 -0.57414640602E+02  0.81643119104E+02  0.41800000000E+01 0.  1.
         -5    1    3    3    0  502  0.18731645926E+02 -0.19062223036E+02  0.53662345279E+02  0.60094613794E+02  0.41800000000E+01 0.  1.
        -11    1    1    2    0    0 -0.29059418832E+02  0.20005062514E+02  0.40312639665E+02  0.53570152751E+02  0.00000000000E+00 0. -1.
         11    1    1    2    0    0 -0.35427472106E+02 -0.36413152354E+02 -0.30878361625E+02  0.59451632953E+02  0.00000000000E+00 0.  1.
</event>
<event>
 7    1  0.2601031E-009  0.1225862E+03  0.7561462E-02  0.1238891E+00
         -2   -1    0    0    0  501 -0.00000000000E+00  0.00000000000E+00  0.44293200001E+02  0.44293200001E+02  0.00000000000E+00 0.  1.
          2   -1    0    0  501    0  0.00000000000E+00 -0.00000000000E+00 -0.47871299576E+03  0.47871299576E+03  0.00000000000E+00 0. -1.
         25    2    1    2    0    0 -0.21866404693E+02  0.93519428081E+02 -0.25182575597E+03  0.29713215678E+03  0.12508910480E+03 0.  0.
          5    1    3    3  502    0 -0.40977456360E+02  0.74213653982E+02 -0.61461794172E+02  0.10479428854E+03  0.41800000000E+01 0.  1.
         -5    1    3    3    0  502  0.19111051668E+02  0.19305774098E+02 -0.19036396179E+03  0.19233786824E+03  0.41800000000E+01 0.  1.
        -11    1    1    2    0    0 -0.16884239127E+02  0.11792278801E+02 -0.24556453268E+02  0.32049255332E+02  0.00000000000E+00 0.  1.
         11    1    1    2    0    0  0.38750643820E+02 -0.10531170688E+03 -0.15803758652E+03  0.19382478365E+03  0.00000000000E+00 0. -1.
</event>
<event>
 7    1  0.2601031E-009  0.1047697E+03  0.7561462E-02  0.1270574E+00
         -1   -1    0    0    0  501 -0.00000000000E+00  0.00000000000E+00  0.11633585783E+04  0.11633585783E+04  0.00000000000E+00 0.  1.
          1   -1    0    0  501    0  0.00000000000E+00 -0.00000000000E+00 -0.10982984775E+02  0.10982984775E+02  0.00000000000E+00 0. -1.
         25    2    1    2    0    0  0.26872622393E+02 -0.18996466019E+01  0.81163822734E+03  0.82166289377E+03  0.12509017720E+03 0.  0.
          5    1    3    3  502    0 -0.36533382563E+02  0.34154571362E+02  0.44463172932E+03  0.44745510378E+03  0.41800000000E+01 0.  1.
         -5    1    3    3    0  502  0.63406004956E+02 -0.36054217964E+02  0.36700649802E+03  0.37420778999E+03  0.41800000000E+01 0.  1.
        -11    1    1    2    0    0  0.29336868988E+02 -0.46514674077E+01  0.17608904949E+03  0.17857671007E+03  0.00000000000E+00 0.  1.
         11    1    1    2    0    0 -0.56209491381E+02  0.65511140096E+01  0.16464831667E+03  0.17410195921E+03  0.00000000000E+00 0. -1.
</event>
<event>
 7    1  0.2601031E-009  0.1092352E+03  0.7561462E-02  0.1261993E+00
          1   -1    0    0  501    0  0.00000000000E+00  0.00000000000E+00  0.32245092694E+03  0.32245092694E+03  0.00000000000E+00 0. -1.
         -1   -1    0    0    0  501 -0.00000000000E+00 -0.00000000000E+00 -0.56146443275E+02  0.56146443275E+02  0.00000000000E+00 0.  1.
         25    2    1    2    0    0  0.73811988029E+02  0.24367174519E+02  0.11957152547E+03  0.18970241146E+03  0.12509071284E+03 0.  0.
          5    1    3    3  502    0  0.22154370693E+02 -0.25595435749E+02  0.11227967547E+03  0.11734624151E+03  0.41800000000E+01 0. -1.
         -5    1    3    3    0  502  0.51657617336E+02  0.49962610268E+02  0.72918499972E+01  0.72356169951E+02  0.41800000000E+01 0. -1.
        -11    1    1    2    0    0 -0.58687397230E+01  0.26726260405E+02  0.12677501420E+02  0.30157157416E+02  0.00000000000E+00 0.  1.
         11    1    1    2    0    0 -0.67943248306E+02 -0.51093434924E+02  0.13405545678E+03  0.15873780134E+03  0.00000000000E+00 0. -1.
</event>
<event>
 7    1  0.2601031E-009  0.1080217E+03  0.7561462E-02  0.1264278E+00
          2   -1    0    0  501    0  0.00000000000E+00  0.00000000000E+00  0.12234268382E+02  0.12234268382E+02  0.00000000000E+00 0. -1.
         -2   -1    0    0    0  501 -0.00000000000E+00 -0.00000000000E+00 -0.15436856907E+04  0.15436856907E+04  0.00000000000E+00 0.  1.
         25    2    1    2    0    0 -0.42119813426E+02 -0.82715366431E+01 -0.12607921264E+04  0.12677093418E+04  0.12509073605E+03 0.  0.
          5    1    3    3  502    0 -0.50686960174E+02 -0.59914942869E+02 -0.67203923325E+03  0.67661892653E+03  0.41800000000E+01 0.  1.
         -5    1    3    3    0  502  0.85671467478E+01  0.51643406226E+02 -0.58875289315E+03  0.59109041525E+03  0.41800000000E+01 0.  1.
        -11    1    1    2    0    0  0.24509101003E+01  0.36289089864E+02 -0.19459101694E+03  0.19796102868E+03  0.00000000000E+00 0.  1.
         11    1    1    2    0    0  0.39668903326E+02 -0.28017553221E+02 -0.76068278995E+02  0.90249588635E+02  0.00000000000E+00 0. -1.
</event>
<event>
 7    1  0.2601031E-009  0.1770327E+03  0.7561462E-02  0.1170706E+00
         -2   -1    0    0    0  501 -0.00000000000E+00  0.00000000000E+00  0.13454499241E+03  0.13454499241E+03  0.00000000000E+00 0.  1.
          2   -1    0    0  501    0  0.00000000000E+00 -0.00000000000E+00 -0.38599623806E+03  0.38599623806E+03  0.00000000000E+00 0. -1.
         25    2    1    2    0    0 -0.18661362180E+02 -0.15464049233E+03  0.13428410510E+02  0.20022457449E+03  0.12509048611E+03 0.  0.
          5    1    3    3  502    0 -0.36850480330E+02 -0.12113187769E+02 -0.30934379292E+02  0.49790515569E+02  0.41800000000E+01 0. -1.
         -5    1    3    3    0  502  0.18189118150E+02 -0.14252730456E+03  0.44362789802E+02  0.15043405892E+03  0.41800000000E+01 0. -1.
        -11    1    1    2    0    0  0.28516064351E+02  0.16764769833E+02 -0.18736945353E+02  0.38017056104E+02  0.00000000000E+00 0. -1.
         11    1    1    2    0    0 -0.98547021710E+01  0.13787572250E+03 -0.24614271080E+03  0.28229959988E+03  0.00000000000E+00 0.  1.
</event>
<event>
 7    1  0.2601031E-009  0.9265723E+02  0.7561462E-02  0.1296541E+00
         -2   -1    0    0    0  501 -0.00000000000E+00  0.00000000000E+00  0.19121768440E+02  0.19121768440E+02  0.00000000000E+00 0.  1.
          2   -1    0    0  501    0  0.00000000000E+00 -0.00000000000E+00 -0.83142168602E+03  0.83142168602E+03  0.00000000000E+00 0. -1.
         25    2    1    2    0    0 -0.31639180172E+02 -0.12129534244E+02 -0.62206177628E+03  0.63541865683E+03  0.12509137707E+03 0.  0.
          5    1    3    3  502    0 -0.41298373266E+02  0.38240575465E+02 -0.49685210502E+03  0.50004738166E+03  0.41800000000E+01 0. -1.
         -5    1    3    3    0  502  0.96591930942E+01 -0.50370109709E+02 -0.12520967126E+03  0.13537127517E+03  0.41800000000E+01 0. -1.
        -11    1    1    2    0    0  0.18032742187E+02  0.41390235339E+02 -0.17248148409E+03  0.17829243878E+03  0.00000000000E+00 0.  1.
         11    1    1    2    0    0  0.13606437986E+02 -0.29260701095E+02 -0.17756657213E+02  0.36832358852E+02  0.00000000000E+00 0. -1.
</event>
<event>
 7    1  0.2601031E-009  0.1161847E+03  0.7561462E-02  0.1249527E+00
          1   -1    0    0  501    0  0.00000000000E+00  0.00000000000E+00  0.22038006078E+03  0.22038006078E+03  0.00000000000E+00 0. -1.
         -1   -1    0    0    0  501 -0.00000000000E+00 -0.00000000000E+00 -0.67556496435E+02  0.67556496435E+02  0.00000000000E+00 0.  1.
         25    2    1    2    0    0  0.19125259656E+02  0.52473608258E+02  0.10706516635E+03  0.17386868304E+03  0.12509242174E+03 0.  0.
          5    1    3    3  502    0  0.42191003909E+02  0.84071490592E+02  0.92282702038E+02  0.13183954580E+03  0.41800000000E+01 0. -1.
         -5    1    3    3    0  502 -0.23065744253E+02 -0.31597882334E+02  0.14782464310E+02  0.42029137239E+02  0.41800000000E+01 0. -1.
        -11    1    1    2    0    0  0.28859450161E+02 -0.15531978264E+01  0.31337278838E+02  0.42629864321E+02  0.00000000000E+00 0.  1.
         11    1    1    2    0    0 -0.47984709816E+02 -0.50920410432E+02  0.14421119163E+02  0.71438009859E+02  0.00000000000E+00 0. -1.
</event>
<event>
 7    1  0.2601031E-009  0.1582684E+03  0.7561462E-02  0.1190666E+00
          2   -1    0    0  501    0  0.00000000000E+00  0.00000000000E+00  0.20496858396E+03  0.20496858396E+03  0.00000000000E+00 0. -1.
         -2   -1    0    0    0  501 -0.00000000000E+00 -0.00000000000E+00 -0.15264004923E+03  0.15264004923E+03  0.00000000000E+00 0.  1.
         25    2    1    2    0    0  0.11368071035E+03 -0.74136418913E+02  0.57683791148E+02  0.19337884427E+03  0.12509374539E+03 0.  0.
          5    1    3    3  502    0  0.33600075943E+02 -0.89156836019E+02  0.58327352873E+02  0.11179203462E+03  0.41800000000E+01 0.  1.
         -5    1    3    3    0  502  0.80080634408E+02  0.15020417106E+02 -0.64356172482E+00  0.81586809650E+02  0.41800000000E+01 0.  1.
        -11    1    1    2    0    0 -0.94860121625E+02  0.45234744570E+02 -0.42662556378E+02  0.11342274246E+03  0.00000000000E+00 0.  1.
         11    1    1    2    0    0 -0.18820588725E+02  0.28901674343E+02  0.37307299955E+02  0.50807046457E+02  0.00000000000E+00 0. -1.
</event>
<event>
 7    1  0.2751526E-009  0.1365485E+03  0.7561462E-02  0.1218050E+00
         -1   -1    0    0    0  501 -0.00000000000E+00  0.00000000000E+00  0.21240704927E+02  0.21240704927E+02  0.00000000000E+00 0. -1.
          1   -1    0    0  501    0  0.00000000000E+00 -0.00000000000E+00 -0.89077442527E+03  0.89077442527E+03  0.00000000000E+00 0.  1.
         25    2    1    2    0    0  0.43420135250E+02 -0.72219195286E+02 -0.48979587823E+03  0.51249430340E+03  0.12509791513E+03 0.  0.
          5    1    3    3  502    0 -0.24798951010E+02 -0.78006680419E+02 -0.28211945692E+03  0.29378374790E+03  0.41800000000E+01 0.  1.
         -5    1    3    3    0  502  0.68219086260E+02  0.57874851330E+01 -0.20767642131E+03  0.21871055549E+03  0.41800000000E+01 0.  1.
        -11    1    1    2    0    0 -0.32885414391E+02 -0.13958914890E+02 -0.83470053968E+02  0.90794006928E+02  0.00000000000E+00 0. -1.
         11    1    1    2    0    0 -0.10534720859E+02  0.86178110176E+02 -0.29626778815E+03  0.30872681988E+03  0.00000000000E+00 0.  1.
</event>
<event>
 7    1  0.2601031E-009  0.1744098E+03  0.7561462E-02  0.1173326E+00
         -2   -1    0    0    0  501 -0.00000000000E+00  0.00000000000E+00  0.38008979649E+02  0.38008979649E+02  0.00000000000E+00 0.  1.
          2   -1    0    0  501    0  0.00000000000E+00 -0.00000000000E+00 -0.90589359163E+03  0.90589359163E+03  0.00000000000E+00 0. -1.
         25    2    1    2    0    0  0.61510621757E+01 -0.14343762177E+03 -0.34577340538E+03  0.39473998710E+03  0.12509285608E+03 0.  0.
          5    1    3    3  502    0  0.26910362957E+02  0.74262202366E+01 -0.11355225243E+03  0.11700813140E+03  0.41800000000E+01 0.  1.
         -5    1    3    3    0  502 -0.20759300781E+02 -0.15086384200E+03 -0.23222115295E+03  0.27773185570E+03  0.41800000000E+01 0.  1.
        -11    1    1    2    0    0  0.39056601252E+02  0.90922153400E+02 -0.34717244448E+03  0.36099994777E+03  0.00000000000E+00 0.  1.
         11    1    1    2    0    0 -0.45207663428E+02  0.52515468365E+02 -0.17493876213E+03  0.18816263642E+03  0.00000000000E+00 0. -1.
</event>
<event>
 7    1  0.2601031E-009  0.1074712E+03  0.7561462E-02  0.1265326E+00
         -2   -1    0    0    0  501 -0.00000000000E+00  0.00000000000E+00  0.19726678937E+03  0.19726678937E+03  0.00000000000E+00 0.  1.
          2   -1    0    0  501    0  0.00000000000E+00 -0.00000000000E+00 -0.69887658156E+02  0.69887658156E+02  0.00000000000E+00 0. -1.
         25    2    1    2    0    0  0.13753958544E+02  0.11666550216E+02  0.23299465049E+02  0.12851480371E+03  0.12509160615E+03 0.  0.
          5    1    3    3  502    0 -0.24855734486E+02 -0.46831718318E+02  0.23875382222E+02  0.58296858009E+02  0.41800000000E+01 0.  1.
         -5    1    3    3    0  502  0.38609693030E+02  0.58498268533E+02 -0.57591717299E+00  0.70217945697E+02  0.41800000000E+01 0.  1.
        -11    1    1    2    0    0  0.33163947266E+02 -0.26375840124E+02  0.46020607970E+02  0.62557403226E+02  0.00000000000E+00 0. -1.
         11    1    1    2    0    0 -0.46917905810E+02  0.14709289908E+02  0.58059058191E+02  0.76082240590E+02  0.00000000000E+00 0.  1.
</event>
<event>
 7    1  0.2601031E-009  0.9460558E+02  0.7561462E-02  0.1292067E+00
          1   -1    0    0  501    0  0.00000000000E+00  0.00000000000E+00  0.57080296763E+02  0.57080296763E+02  0.00000000000E+00 0. -1.
         -1   -1    0    0    0  501 -0.00000000000E+00 -0.00000000000E+00 -0.31546421467E+03  0.31546421467E+03  0.00000000000E+00 0.  1.
         25    2    1    2    0    0 -0.46307648619E+02 -0.12840341430E+02 -0.55499918681E+02  0.14504186888E+03  0.12509048751E+03 0.  0.
          5    1    3    3  502    0 -0.38121009165E+02 -0.41404781618E+02 -0.85606280310E+02  0.10253523740E+03  0.41800000000E+01 0. -1.
         -5    1    3    3    0  502 -0.81866394536E+01  0.28564440189E+02  0.30106361629E+02  0.42506631476E+02  0.41800000000E+01 0. -1.
        -11    1    1    2    0    0 -0.22275434417E+02 -0.16953278785E+02 -0.61175792574E+02  0.67276193688E+02  0.00000000000E+00 0. -1.
         11    1    1    2    0    0  0.68583083035E+02  0.29793620215E+02 -0.14170820665E+03  0.16022644887E+03  0.00000000000E+00 0.  1.
</event>
<event>
 7    1  0.2601031E-009  0.1087223E+03  0.7561462E-02  0.1262954E+00
          1   -1    0    0  501    0  0.00000000000E+00  0.00000000000E+00  0.35093103227E+02  0.35093103227E+02  0.00000000000E+00 0. -1.
         -1   -1    0    0    0  501 -0.00000000000E+00 -0.00000000000E+00 -0.49830855823E+03  0.49830855823E+03  0.00000000000E+00 0.  1.
         25    2    1    2    0    0  0.63105542602E+02  0.16756198155E+02 -0.33174927213E+03  0.36051089687E+03  0.12508975785E+03 0.  0.
          5    1    3    3  502    0  0.14656683486E+02 -0.36265400633E+02 -0.27816686928E+02  0.48179229192E+02  0.41800000000E+01 0.  1.
         -5    1    3    3    0  502  0.48448859116E+02  0.53021598788E+02 -0.30393258520E+03  0.31233166768E+03  0.41800000000E+01 0.  1.
        -11    1    1    2    0    0 -0.67743108119E+02 -0.42521535212E+02 -0.12022578292E+03  0.14440030656E+03  0.00000000000E+00 0.  1.
         11    1    1    2    0    0  0.46375655164E+01  0.25765337057E+02 -0.11240399946E+02  0.28490458026E+02  0.00000000000E+00 0. -1.
</event>
<event>
 7    1  0.2758532E-009  0.1297943E+03  0.7561462E-02  0.1227761E+00
         -2   -1    0    0    0  501 -0.00000000000E+00  0.00000000000E+00  0.20296457170E+02  0.20296457170E+02  0.00000000000E+00 0.  1.
          2   -1    0    0  501    0  0.00000000000E+00 -0.00000000000E+00 -0.13103030571E+04  0.13103030571E+04  0.00000000000E+00 0. -1.
         25    2    1    2    0    0 -0.94612731841E+02  0.35873966143E+01 -0.10036349543E+04  0.10158222087E+04  0.12508876776E+03 0.  0.
          5    1    3    3  502    0 -0.65404624333E+02  0.44180870151E+02 -0.29476033755E+03  0.30517346406E+03  0.41800000000E+01 0. -1.
         -5    1    3    3    0  502 -0.29208107508E+02 -0.40593473537E+02 -0.70887461676E+03  0.71064874468E+03  0.41800000000E+01 0. -1.
        -11    1    1    2    0    0 -0.65974354425E+01 -0.25898382256E+02 -0.67861490174E+02  0.72934451438E+02  0.00000000000E+00 0. -1.
         11    1    1    2    0    0  0.10121016728E+03  0.22310985641E+02 -0.21851015546E+03  0.24184285411E+03  0.00000000000E+00 0.  1.
</event>
<event>
 7    1  0.2601031E-009  0.9616100E+02  0.7561462E-02  0.1288582E+00
         -2   -1    0    0    0  501 -0.00000000000E+00  0.00000000000E+00  0.67833367607E+02  0.67833367607E+02  0.00000000000E+00 0.  1.
          2   -1    0    0  501    0  0.00000000000E+00 -0.00000000000E+00 -0.21666013099E+03  0.21666013099E+03  0.00000000000E+00 0. -1.
         25    2    1    2    0    0  0.36705822288E+01 -0.16249958714E+02 -0.23794032731E+02  0.12841867728E+03  0.12509063253E+03 0.  0.
          5    1    3    3  502    0  0.50042251645E+02  0.46405843986E+01 -0.50030961938E+02  0.71037536033E+02  0.41800000000E+01 0. -1.
         -5    1    3    3    0  502 -0.46371669416E+02 -0.20890543112E+02  0.26236929207E+02  0.57381141242E+02  0.41800000000E+01 0. -1.
        -11    1    1    2    0    0  0.89488468054E+01 -0.36006223201E+02 -0.33841096904E+02  0.50217027072E+02  0.00000000000E+00 0.  1.
         11    1    1    2    0    0 -0.12619429034E+02  0.52256181914E+02 -0.91191633744E+02  0.10585779424E+03  0.00000000000E+00 0. -1.
</event>
<event>
 7    1  0.2601031E-009  0.9768807E+02  0.7561462E-02  0.1285234E+00
          2   -1    0    0  501    0  0.00000000000E+00  0.00000000000E+00  0.46666558784E+03  0.46666558784E+03  0.00000000000E+00 0. -1.
         -2   -1    0    0    0  501 -0.00000000000E+00 -0.00000000000E+00 -0.26139061348E+02  0.26139061348E+02  0.00000000000E+00 0.  1.
         25    2    1    2    0    0  0.45484088011E+01 -0.27388859302E+02  0.26155928414E+03  0.29125879490E+03  0.12509032276E+03 0.  0.
          5    1    3    3  502    0 -0.36613764343E+02 -0.63312557592E+02  0.14437750398E+03  0.16189930125E+03  0.41800000000E+01 0.  1.
         -5    1    3    3    0  502  0.41162173144E+02  0.35923698290E+02  0.11718178016E+03  0.12935949365E+03  0.41800000000E+01 0.  1.
        -11    1    1    2    0    0  0.16417002883E+02  0.39736980222E+02  0.34726532087E+02  0.55267328609E+02  0.00000000000E+00 0.  1.
         11    1    1    2    0    0 -0.20965411684E+02 -0.12348120919E+02  0.14424071026E+03  0.14627852568E+03  0.00000000000E+00 0. -1.
</event>
<event>
 7    1  0.2601031E-009  0.1195403E+03  0.7561462E-02  0.1243857E+00
         -2   -1    0    0    0  501 -0.00000000000E+00  0.00000000000E+00  0.14069334456E+03  0.14069334456E+03  0.00000000000E+00 0.  1.
          2   -1    0    0  501    0  0.00000000000E+00 -0.00000000000E+00 -0.15495516001E+03  0.15495516001E+03  0.00000000000E+00 0. -1.
         25    2    1    2    0    0 -0.90774519951E+02  0.31164923626E+02 -0.33642316772E+02  0.16121650049E+03  0.12509072154E+03 0.  0.
          5    1    3    3  502    0 -0.54746119383E+02  0.51476229317E+02 -0.72362769226E+02  0.10440681272E+03  0.41800000000E+01 0. -1.
         -5    1    3    3    0  502 -0.36028400568E+02 -0.20311305690E+02  0.38720452454E+02  0.56809687771E+02  0.41800000000E+01 0. -1.
        -11    1    1    2    0    0  0.50515539623E+02  0.22384787384E+02 -0.17497667295E+02  0.57957456901E+02  0.00000000000E+00 0. -1.
         11    1    1    2    0    0  0.40258980328E+02 -0.53549711011E+02  0.36878168618E+02  0.76474547184E+02  0.00000000000E+00 0.  1.
</event>
<event>
 7    1  0.2601031E-009  0.1855575E+03  0.7561462E-02  0.1162530E+00
         -2   -1    0    0    0  501 -0.00000000000E+00  0.00000000000E+00  0.27087199328E+02  0.27087199328E+02  0.00000000000E+00 0. -1.
          2   -1    0    0  501    0  0.00000000000E+00 -0.00000000000E+00 -0.13446559245E+04  0.13446559245E+04  0.00000000000E+00 0.  1.
         25    2    1    2    0    0 -0.14484256039E+03  0.60885489035E+02 -0.66190955661E+03  0.69170681188E+03  0.12509053682E+03 0.  0.
          5    1    3    3  502    0 -0.26066104699E+02  0.68718343932E+02 -0.35378051671E+03  0.36135824193E+03  0.41800000000E+01 0.  1.
         -5    1    3    3    0  502 -0.11877645569E+03 -0.78328548965E+01 -0.30812903990E+03  0.33034856996E+03  0.41800000000E+01 0.  1.
        -11    1    1    2    0    0 -0.15127377181E+01 -0.28444718333E+02 -0.14757024088E+03  0.15029426592E+03  0.00000000000E+00 0.  1.
         11    1    1    2    0    0  0.14635529810E+03 -0.32440770702E+02 -0.50808892766E+03  0.52974204600E+03  0.00000000000E+00 0. -1.
</event>
<event>
 7    1  0.2601031E-009  0.1513958E+03  0.7561462E-02  0.1198768E+00
         -1   -1    0    0    0  501 -0.00000000000E+00  0.00000000000E+00  0.56026043299E+02  0.56026043299E+02  0.00000000000E+00 0.  1.
          1   -1    0    0  501    0  0.00000000000E+00 -0.00000000000E+00 -0.65011797547E+03  0.65011797547E+03  0.00000000000E+00 0. -1.
         25    2    1    2    0    0 -0.56545400191E+02  0.98329808302E+02 -0.11231697060E+03  0.20280276534E+03  0.12509087201E+03 0.  0.
          5    1    3    3  502    0  0.22912220875E+02  0.82169220591E+02 -0.74078533882E+02  0.11305685410E+03  0.41800000000E+01 0.  1.
         -5    1    3    3    0  502 -0.79457621066E+02  0.16160587711E+02 -0.38238436722E+02  0.89745911236E+02  0.41800000000E+01 0.  1.
        -11    1    1    2    0    0  0.77417258842E+01 -0.85340210013E+02 -0.38223628746E+03  0.39172371030E+03  0.00000000000E+00 0. -1.
         11    1    1    2    0    0  0.48803674307E+02 -0.12989598289E+02 -0.99538674105E+02  0.11161754312E+03  0.00000000000E+00 0.  1.
</event>
<event>
 7    1  0.2664643E-009  0.6927023E+02  0.7561462E-02  0.1362592E+00
          1   -1    0    0  501    0  0.00000000000E+00  0.00000000000E+00  0.14374890280E+03  0.14374890280E+03  0.00000000000E+00 0. -1.
         -1   -1    0    0    0  501 -0.00000000000E+00 -0.00000000000E+00 -0.11620551602E+03  0.11620551602E+03  0.00000000000E+00 0.  1.
         25    2    1    2    0    0  0.61310052567E+02  0.25742399196E+02  0.38314656470E+02  0.14675476477E+03  0.12508938572E+03 0.  0.
          5    1    3    3  502    0  0.44408269053E+02  0.74044178054E+01 -0.42513916089E+02  0.62063074566E+02  0.41800000000E+01 0.  1.
         -5    1    3    3    0  502  0.16901783514E+02  0.18337981391E+02  0.80828572559E+02  0.84691690202E+02  0.41800000000E+01 0.  1.
        -11    1    1    2    0    0 -0.19171355815E+02 -0.10540353111E+01 -0.48060033874E+02  0.51753441723E+02  0.00000000000E+00 0.  1.
         11    1    1    2    0    0 -0.42138696752E+02 -0.24688363885E+02  0.37288764187E+02  0.61446212331E+02  0.00000000000E+00 0. -1.
</event>
<event>
 7    1  0.2601031E-009  0.1323988E+03  0.7561462E-02  0.1223939E+00
          2   -1    0    0  501    0  0.00000000000E+00  0.00000000000E+00  0.10062506099E+04  0.10062506099E+04  0.00000000000E+00 0. -1.
         -2   -1    0    0    0  501 -0.00000000000E+00 -0.00000000000E+00 -0.26072202575E+02  0.26072202575E+02  0.00000000000E+00 0.  1.
         25    2    1    2    0    0 -0.67514098259E+02 -0.94274601399E+02  0.63757897203E+03  0.66000039024E+03  0.12509082946E+03 0.  0.
          5    1    3    3  502    0 -0.22412299686E+02 -0.90467084467E+02  0.57575486556E+03  0.58326472734E+03  0.41800000000E+01 0. -1.
         -5    1    3    3    0  502 -0.45101798574E+02 -0.38075169313E+01  0.61824106472E+02  0.76735662901E+02  0.41800000000E+01 0. -1.
        -11    1    1    2    0    0  0.75484943007E+02  0.82434783381E+02  0.33988691767E+03  0.35779405660E+03  0.00000000000E+00 0. -1.
         11    1    1    2    0    0 -0.79708447482E+01  0.11839818017E+02  0.27125176474E+01  0.14528365657E+02  0.00000000000E+00 0.  1.
</event>
<event>
 7    1  0.2601031E-009  0.1005473E+03  0.7561462E-02  0.1279149E+00
         -1   -1    0    0    0  501 -0.00000000000E+00  0.00000000000E+00  0.20730171014E+03  0.20730171014E+03  0.00000000000E+00 0.  1.
          1   -1    0    0  501    0  0.00000000000E+00 -0.00000000000E+00 -0.56614865217E+02  0.56614865217E+02  0.00000000000E+00 0. -1.
         25    2    1    2    0    0 -0.10199272144E+02  0.14665020187E+02  0.74255465637E+02  0.14656347874E+03  0.12509153111E+03 0.  0.
          5    1    3    3  502    0 -0.42850912636E+02 -0.33534744478E+02  0.68980372674E+02  0.87957626248E+02  0.41800000000E+01 0.  1.
         -5    1    3    3    0  502  0.32651640492E+02  0.48199764666E+02  0.52750929633E+01  0.58605852493E+02  0.41800000000E+01 0.  1.
        -11    1    1    2    0    0 -0.37895832458E+02 -0.82322276292E-01  0.41192623615E+02  0.55972610578E+02  0.00000000000E+00 0.  1.
         11    1    1    2    0    0  0.48095104602E+02 -0.14582697911E+02  0.35238755674E+02  0.61380486040E+02  0.00000000000E+00 0. -1.
</event>
<event>
 7    1  0.2601031E-009  0.1231347E+03  0.7561462E-02  0.1238014E+00
          1   -1    0    0  501    0  0.00000000000E+00  0.00000000000E+00  0.11122890003E+03  0.11122890003E+03  0.00000000000E+00 0. -1.
         -1   -1    0    0    0  501 -0.00000000000E+00 -0.00000000000E+00 -0.25861324383E+03  0.25861324383E+03  0.00000000000E+00 0.  1.
         25    2    1    2    0    0 -0.49608852110E+02 -0.95722680787E+02  0.31620630015E+01  0.16517173444E+03  0.12509130021E+03 0.  0.
          5    1    3    3  502    0 -0.17747847122E+02  0.11866455862E+02  0.41222787868E+02  0.46611044740E+02  0.41800000000E+01 0.  1.
         -5    1    3    3    0  502 -0.31861004988E+02 -0.10758913665E+03 -0.38060724866E+02  0.11856068970E+03  0.41800000000E+01 0.  1.
        -11    1    1    2    0    0  0.18194584582E+02  0.67800481175E+02 -0.14649461135E+03  0.16244574267E+03  0.00000000000E+00 0.  1.
         11    1    1    2    0    0  0.31414267528E+02  0.27922199612E+02 -0.40517954467E+01  0.42224666746E+02  0.00000000000E+00 0. -1.
</event>
<event>
 7    1  0.2601031E-009  0.1004624E+03  0.7561462E-02  0.1279327E+00
          1   -1    0    0  501    0  0.00000000000E+00  0.00000000000E+00  0.35108222423E+03  0.35108222423E+03  0.00000000000E+00 0. -1.
         -1   -1    0    0    0  501 -0.00000000000E+00 -0.00000000000E+00 -0.39445810962E+02  0.39445810962E+02  0.00000000000E+00 0.  1.
         25    2    1    2    0    0  0.33201886453E+02 -0.51384625445E+01  0.11908532836E+03  0.17595125573E+03  0.12509500350E+03 0.  0.
          5    1    3    3  502    0 -0.29872168841E+02  0.22272268513E+02  0.96364390407E+02  0.10340197558E+03  0.41800000000E+01 0. -1.
         -5    1    3    3    0  502  0.63074055294E+02 -0.27410731057E+02  0.22720937956E+02  0.72549280148E+02  0.41800000000E+01 0. -1.
        -11    1    1    2    0    0  0.29990603326E+02 -0.53770472876E+01  0.56255194912E+02  0.63976526007E+02  0.00000000000E+00 0.  1.
         11    1    1    2    0    0 -0.63192489779E+02  0.10515509832E+02  0.13629589000E+03  0.15060025346E+03  0.00000000000E+00 0. -1.
</event>
<event>
 7    1  0.2717146E-009  0.1218644E+03  0.7561462E-02  0.1240053E+00
         -2   -1    0    0    0  501 -0.00000000000E+00  0.00000000000E+00  0.76960069566E+02  0.76960069566E+02  0.00000000000E+00 0.  1.
          2   -1    0    0  501    0  0.00000000000E+00 -0.00000000000E+00 -0.29981579497E+03  0.29981579497E+03  0.00000000000E+00 0. -1.
         25    2    1    2    0    0 -0.23079911670E+02 -0.84354039922E+02 -0.19423412208E+03  0.24702352651E+03  0.12508174167E+03 0.  0.
          5    1    3    3  502    0  0.31801998280E+02 -0.90869038588E+02 -0.11060516927E+03  0.14669534804E+03  0.41800000000E+01 0.  1.
         -5    1    3    3    0  502 -0.54881909950E+02  0.65149986663E+01 -0.83628952812E+02  0.10032817847E+03  0.41800000000E+01 0.  1.
        -11    1    1    2    0    0  0.10900560265E+02  0.56100762582E+01 -0.46501687049E+02  0.48090561113E+02  0.00000000000E+00 0. -1.
         11    1    1    2    0    0  0.12179351405E+02  0.78743963664E+02  0.17880083723E+02  0.81661776910E+02  0.00000000000E+00 0.  1.
</event>
<event>
 7    1  0.2601031E-009  0.4282048E+03  0.7561462E-02  0.1034429E+00
          2   -1    0    0  501    0  0.00000000000E+00  0.00000000000E+00  0.10976103308E+04  0.10976103308E+04  0.00000000000E+00 0. -1.
         -2   -1    0    0    0  501 -0.00000000000E+00 -0.00000000000E+00 -0.17162528316E+03  0.17162528316E+03  0.00000000000E+00 0.  1.
         25    2    1    2    0    0  0.97925948261E+02 -0.40761511914E+03  0.50663212313E+03  0.66937721717E+03  0.12510065542E+03 0.  0.
          5    1    3    3  502    0  0.15625991393E+02 -0.30517376489E+03  0.34081449568E+03  0.45776324803E+03  0.41800000000E+01 0.  1.
         -5    1    3    3    0  502  0.82299956869E+02 -0.10244135425E+03  0.16581762745E+03  0.21161396914E+03  0.41800000000E+01 0.  1.
        -11    1    1    2    0    0 -0.52090726210E+02  0.23819017942E+03  0.18006979766E+03  0.30310581875E+03  0.00000000000E+00 0.  1.
         11    1    1    2    0    0 -0.45835222051E+02  0.16942493972E+03  0.23928312685E+03  0.29675257804E+03  0.00000000000E+00 0. -1.
</event>
<event>
 7    1  0.2601031E-009  0.1869778E+03  0.7561462E-02  0.1161216E+00
          2   -1    0    0  501    0  0.00000000000E+00  0.00000000000E+00  0.12260826874E+03  0.12260826874E+03  0.00000000000E+00 0.  1.
         -2   -1    0    0    0  501 -0.00000000000E+00 -0.00000000000E+00 -0.37577080780E+03  0.37577080780E+03  0.00000000000E+00 0. -1.
         25    2    1    2    0    0  0.12145293163E+03 -0.13439433055E+03 -0.17239750639E+03  0.27960766665E+03  0.12508755475E+03 0.  0.
          5    1    3    3  502    0  0.36346140878E+01 -0.12426274261E+02 -0.90000873144E+02  0.91023361167E+02  0.41800000000E+01 0.  1.
         -5    1    3    3    0  502  0.11781831754E+03 -0.12196805629E+03 -0.82396633250E+02  0.18858430549E+03  0.41800000000E+01 0.  1.
        -11    1    1    2    0    0 -0.21190639512E+02  0.66082853124E+02  0.59406569470E+01  0.69651116897E+02  0.00000000000E+00 0.  1.
         11    1    1    2    0    0 -0.10026229212E+03  0.68311477430E+02 -0.86705689609E+02  0.14912029299E+03  0.00000000000E+00 0. -1.
</event>
<event>
 7    1  0.2601031E-009  0.1091598E+03  0.7561462E-02  0.1262134E+00
          2   -1    0    0  501    0  0.00000000000E+00  0.00000000000E+00  0.13695634165E+03  0.13695634165E+03  0.00000000000E+00 0. -1.
         -2   -1    0    0    0  501 -0.00000000000E+00 -0.00000000000E+00 -0.12184546944E+03  0.12184546944E+03  0.00000000000E+00 0.  1.
         25    2    1    2    0    0  0.40352302490E+02 -0.54647562931E+02  0.26184064627E+02  0.14473786706E+03  0.12509508572E+03 0.  0.
          5    1    3    3  502    0 -0.19415646003E+02 -0.47895272789E+02 -0.32015620723E+02  0.60937647112E+02  0.41800000000E+01 0. -1.
         -5    1    3    3    0  502  0.59767948493E+02 -0.67522901423E+01  0.58199685351E+02  0.83800219953E+02  0.41800000000E+01 0. -1.
        -11    1    1    2    0    0 -0.35013460809E+02 -0.13716547848E+02 -0.23544270780E+02  0.44366866120E+02  0.00000000000E+00 0.  1.
         11    1    1    2    0    0 -0.53388416809E+01  0.68364110779E+02  0.12471078356E+02  0.69697077905E+02  0.00000000000E+00 0. -1.
</event>
<event>
 7    1  0.2601031E-009  0.1334423E+03  0.7561462E-02  0.1222436E+00
          1   -1    0    0  501    0  0.00000000000E+00  0.00000000000E+00  0.36550414181E+02  0.36550414181E+02  0.00000000000E+00 0. -1.
         -1   -1    0    0    0  501 -0.00000000000E+00 -0.00000000000E+00 -0.53525210749E+03  0.53525210749E+03  0.00000000000E+00 0.  1.
         25    2    1    2    0    0 -0.48907466314E+02 -0.61967577465E+02 -0.35559478535E+03  0.38513240137E+03  0.12508954511E+03 0.  0.
          5    1    3    3  502    0 -0.90933693899E+02 -0.39888349387E+02 -0.25919389470E+03  0.27759496493E+03  0.41800000000E+01 0.  1.
         -5    1    3    3    0  502  0.42026227586E+02 -0.22079228078E+02 -0.96400890651E+02  0.10753743644E+03  0.41800000000E+01 0.  1.
        -11    1    1    2    0    0  0.71966977792E+02  0.24833900543E+02 -0.89409227323E+02  0.11743073890E+03  0.00000000000E+00 0. -1.
         11    1    1    2    0    0 -0.23059511478E+02  0.37133676921E+02 -0.53697680632E+02  0.69239381399E+02  0.00000000000E+00 0.  1.
</event>
<event>
 7    1  0.2601031E-009  0.1804555E+03  0.7561462E-02  0.1167363E+00
          2   -1    0    0  501    0  0.00000000000E+00  0.00000000000E+00  0.86274623826E+03  0.86274623826E+03  0.00000000000E+00 0. -1.
         -2   -1    0    0    0  501 -0.00000000000E+00 -0.00000000000E+00 -0.51785079024E+02  0.51785079024E+02  0.00000000000E+00 0.  1.
         25    2    1    2    0    0  0.14850579029E+03 -0.78447831600E+02  0.27736515764E+03  0.34754389496E+03  0.12508915309E+03 0.  0.
          5    1    3    3  502    0  0.12236840129E+03 -0.88282183678E+02  0.28109567056E+03  0.31906115087E+03  0.41800000000E+01 0.  1.
         -5    1    3    3    0  502  0.26137389000E+02  0.98343520779E+01 -0.37305129139E+01  0.28482744094E+02  0.41800000000E+01 0.  1.
        -11    1    1    2    0    0 -0.92473737149E+01  0.34469044209E+02  0.19502570803E+03  0.19826410598E+03  0.00000000000E+00 0. -1.
         11    1    1    2    0    0 -0.13925841657E+03  0.43978787391E+02  0.33857029356E+03  0.36872331634E+03  0.00000000000E+00 0.  1.
</event>
<event>
 7    1  0.2601031E-009  0.1045381E+03  0.7561462E-02  0.1271032E+00
         -1   -1    0    0    0  501 -0.00000000000E+00  0.00000000000E+00  0.23724147736E+02  0.23724147736E+02  0.00000000000E+00 0.  1.
          1   -1    0    0  501    0  0.00000000000E+00 -0.00000000000E+00 -0.55247472072E+03  0.55247472072E+03  0.00000000000E+00 0. -1.
         25    2    1    2    0    0 -0.33292215460E+02  0.59919555999E+01 -0.33336940686E+03  0.35767167505E+03  0.12509832357E+03 0.  0.
          5    1    3    3  502    0  0.13861815549E+02 -0.50748990906E+02 -0.17738771767E+03  0.18507156667E+03  0.41800000000E+01 0.  1.
         -5    1    3    3    0  502 -0.47154031008E+02  0.56740946506E+02 -0.15598168919E+03  0.17260010838E+03  0.41800000000E+01 0.  1.
        -11    1    1    2    0    0  0.22836724350E+02 -0.40420705351E+02 -0.16508824273E+03  0.17149191610E+03  0.00000000000E+00 0. -1.
         11    1    1    2    0    0  0.10455491109E+02  0.34428749751E+02 -0.30292923402E+02  0.47035277314E+02  0.00000000000E+00 0.  1.
</event>
<event>
 7    1  0.2601031E-009  0.7720412E+02  0.7561462E-02  0.1337178E+00
          2   -1    0    0  501    0  0.00000000000E+00  0.00000000000E+00  0.93790972616E+02  0.93790972616E+02  0.00000000000E+00 0. -1.
         -2   -1    0    0    0  501 -0.00000000000E+00 -0.00000000000E+00 -0.17834097236E+03  0.17834097236E+03  0.00000000000E+00 0.  1.
         25    2    1    2    0    0  0.44452247322E+02  0.53674666192E+02 -0.41187304611E+02  0.14899747352E+03  0.12508749327E+03 0.  0.
          5    1    3    3  502    0 -0.71972993171E+00 -0.27273114967E+01 -0.70663879243E+02  0.70843577470E+02  0.41800000000E+01 0. -1.
         -5    1    3    3    0  502  0.45171977253E+02  0.56401977689E+02  0.29476574631E+02  0.78153896053E+02  0.41800000000E+01 0. -1.
        -11    1    1    2    0    0 -0.13634358544E+02 -0.41782315763E+02 -0.68663855522E+02  0.81525350037E+02  0.00000000000E+00 0.  1.
         11    1    1    2    0    0 -0.30817888777E+02 -0.11892350430E+02  0.25301160394E+02  0.41609121412E+02  0.00000000000E+00 0. -1.
</event>
<event>
 7    1  0.2601031E-009  0.1036143E+03  0.7561462E-02  0.1272874E+00
          1   -1    0    0  501    0  0.00000000000E+00  0.00000000000E+00  0.22522883335E+02  0.22522883335E+02  0.00000000000E+00 0. -1.
         -1   -1    0    0    0  501 -0.00000000000E+00 -0.00000000000E+00 -0.69386865890E+03  0.69386865890E+03  0.00000000000E+00 0.  1.
         25    2    1    2    0    0 -0.48281464397E+02 -0.21048442811E+02 -0.46614486531E+03  0.48550264986E+03  0.12509057046E+03 0.  0.
          5    1    3    3  502    0 -0.81877413385E+02 -0.15001226330E+02 -0.41864061702E+03  0.42685640002E+03  0.41800000000E+01 0.  1.
         -5    1    3    3    0  502  0.33595948988E+02 -0.60472164810E+01 -0.47504248292E+02  0.58646249849E+02  0.41800000000E+01 0.  1.
        -11    1    1    2    0    0  0.31333863623E+02 -0.25217054529E+02 -0.15659299254E+03  0.16167583666E+03  0.00000000000E+00 0.  1.
         11    1    1    2    0    0  0.16947600773E+02  0.46265497340E+02 -0.48607917718E+02  0.69213055712E+02  0.00000000000E+00 0. -1.
</event>
<event>
 7    1  0.2601031E-009  0.1005950E+03  0.7561462E-02  0.1279050E+00
          1   -1    0    0  501    0  0.00000000000E+00  0.00000000000E+00  0.22915420556E+03  0.22915420556E+03  0.00000000000E+00 0. -1.
         -1   -1    0    0    0  501 -0.00000000000E+00 -0.00000000000E+00 -0.75232398652E+02  0.75232398652E+02  0.00000000000E+00 0.  1.
         25    2    1    2    0    0  0.43190230324E+02  0.57716533657E+02  0.10022153203E+03  0.17575134644E+03  0.12509031153E+03 0.  0.
          5    1    3    3  502    0  0.29332514452E+02 -0.10723039306E+02 -0.19525518700E+02  0.37068831335E+02  0.41800000000E+01 0.  1.
         -5    1    3    3    0  502  0.13857715872E+02  0.68439572963E+02  0.11974705073E+03  0.13868251510E+03  0.41800000000E+01 0.  1.
        -11    1    1    2    0    0 -0.33056392481E+02  0.73602204973E+01 -0.11689255844E+02  0.35826479479E+02  0.00000000000E+00 0.  1.
         11    1    1    2    0    0 -0.10133837843E+02 -0.65076754155E+02  0.65389530723E+02  0.92808778296E+02  0.00000000000E+00 0. -1.
</event>
<event>
 7    1  0.2601031E-009  0.1611539E+03  0.7561462E-02  0.1187400E+00
         -2   -1    0    0    0  501 -0.00000000000E+00  0.00000000000E+00  0.12128531319E+03  0.12128531319E+03  0.00000000000E+00 0.  1.
          2   -1    0    0  501    0  0.00000000000E+00 -0.00000000000E+00 -0.27071674469E+03  0.27071674469E+03  0.00000000000E+00 0. -1.
         25    2    1    2    0    0 -0.13774687580E+03 -0.22045100071E+02 -0.12005731614E+03  0.22252837329E+03  0.12507969272E+03 0.  0.
          5    1    3    3  502    0 -0.13756281378E+03 -0.51135155100E+02 -0.12488052023E+03  0.19274581332E+03  0.41800000000E+01 0. -1.
         -5    1    3    3    0  502 -0.18406202419E+00  0.29090055029E+02  0.48232040887E+01  0.29782559966E+02  0.41800000000E+01 0. -1.
        -11    1    1    2    0    0  0.53423723148E+02  0.30223864618E+02  0.27681121337E+02  0.67333651809E+02  0.00000000000E+00 0.  1.
         11    1    1    2    0    0  0.84323152655E+02 -0.81787645471E+01 -0.57055236700E+02  0.10214003279E+03  0.00000000000E+00 0. -1.
</event>
<event>
 7    1  0.2601031E-009  0.1074735E+03  0.7561462E-02  0.1265321E+00
         -2   -1    0    0    0  501 -0.00000000000E+00  0.00000000000E+00  0.60134185685E+02  0.60134185685E+02  0.00000000000E+00 0. -1.
          2   -1    0    0  501    0  0.00000000000E+00 -0.00000000000E+00 -0.33232395299E+03  0.33232395299E+03  0.00000000000E+00 0.  1.
         25    2    1    2    0    0 -0.78232147117E+02 -0.31691721997E+02 -0.19025905985E+03  0.24283967143E+03  0.12509181460E+03 0.  0.
          5    1    3    3  502    0  0.29503641968E+01  0.15820017813E+02 -0.12998356353E+03  0.13104265260E+03  0.41800000000E+01 0.  1.
         -5    1    3    3    0  502 -0.81182511314E+02 -0.47511739810E+02 -0.60275496315E+02  0.11179701883E+03  0.41800000000E+01 0.  1.
        -11    1    1    2    0    0  0.61985339529E+02 -0.68257696229E+01 -0.56264756561E+01  0.62613342634E+02  0.00000000000E+00 0. -1.
         11    1    1    2    0    0  0.16246807588E+02  0.38517491620E+02 -0.76304231805E+02  0.87005124613E+02  0.00000000000E+00 0.  1.
</event>
<event>
 7    1  0.2725382E-009  0.7971644E+02  0.7561462E-02  0.1329858E+00
          1   -1    0    0  501    0  0.00000000000E+00  0.00000000000E+00  0.18276964133E+03  0.18276964133E+03  0.00000000000E+00 0. -1.
         -1   -1    0    0    0  501 -0.00000000000E+00 -0.00000000000E+00 -0.84587092980E+02  0.84587092980E+02  0.00000000000E+00 0.  1.
         25    2    1    2    0    0 -0.31385809238E+01  0.42168085908E+01  0.11926459216E+03  0.17291453556E+03  0.12509101287E+03 0.  0.
          5    1    3    3  502    0 -0.40671388978E+02  0.46700430273E+02  0.34960944618E+02  0.71237855931E+02  0.41800000000E+01 0.  1.
         -5    1    3    3    0  502  0.37532808054E+02 -0.42483621682E+02  0.84303647546E+02  0.10167667963E+03  0.41800000000E+01 0.  1.
        -11    1    1    2    0    0  0.17829861671E+02  0.96893432095E+01 -0.52944731497E+02  0.56700369772E+02  0.00000000000E+00 0.  1.
         11    1    1    2    0    0 -0.14691280747E+02 -0.13906151800E+02  0.31862687682E+02  0.37741828973E+02  0.00000000000E+00 0. -1.
</event>
<event>
 7    1  0.2601031E-009  0.1353823E+03  0.7561462E-02  0.1219681E+00
          2   -1    0    0  501    0  0.00000000000E+00  0.00000000000E+00  0.19278613222E+03  0.19278613222E+03  0.00000000000E+00 0. -1.
         -2   -1    0    0    0  501 -0.00000000000E+00 -0.00000000000E+00 -0.11942089168E+03  0.11942089168E+03  0.00000000000E+00 0.  1.
         25    2    1    2    0    0 -0.98475334255E+02  0.44042799618E+02  0.46872909968E+02  0.17170193843E+03  0.12508927338E+03 0.  0.
          5    1    3    3  502    0 -0.39329599533E+02 -0.35109859128E+02  0.49963772006E+02  0.72755553194E+02  0.41800000000E+01 0. -1.
         -5    1    3    3    0  502 -0.59145734722E+02  0.79152658746E+02 -0.30908620378E+01  0.98946385232E+02  0.41800000000E+01 0. -1.
        -11    1    1    2    0    0  0.12897668960E+02 -0.29471969620E+02 -0.23947990232E+02  0.40105524483E+02  0.00000000000E+00 0.  1.
         11    1    1    2    0    0  0.85577665295E+02 -0.14570829997E+02  0.50440320810E+02  0.10039956099E+03  0.00000000000E+00 0. -1.
</event>
<event>
 7    1  0.2601031E-009  0.1013315E+03  0.7561462E-02  0.1277521E+00
         -2   -1    0    0    0  501 -0.00000000000E+00  0.00000000000E+00  0.79259620576E+02  0.79259620576E+02  0.00000000000E+00 0. -1.
          2   -1    0    0  501    0  0.00000000000E+00 -0.00000000000E+00 -0.17652390664E+03  0.17652390664E+03  0.00000000000E+00 0.  1.
         25    2    1    2    0    0  0.36837706522E+02  0.20396258614E+02 -0.28232420073E+02  0.13498520364E+03  0.12510360375E+03 0.  0.
          5    1    3    3  502    0  0.66759167838E+02  0.53487501128E+02 -0.28225455994E+02  0.90176759941E+02  0.41800000000E+01 0.  1.
         -5    1    3    3    0  502 -0.29921461316E+02 -0.33091242514E+02 -0.69640788868E-02  0.44808443702E+02  0.41800000000E+01 0.  1.
        -11    1    1    2    0    0 -0.11367204309E+02 -0.39029047562E+02  0.43845832812E+01  0.40886482582E+02  0.00000000000E+00 0. -1.
         11    1    1    2    0    0 -0.25470502213E+02  0.18632788948E+02 -0.73416449267E+02  0.79911840987E+02  0.00000000000E+00 0.  1.
</event>
<event>
 7    1  0.2601031E-009  0.6863881E+02  0.7561462E-02  0.1364784E+00
          1   -1    0    0  501    0  0.00000000000E+00  0.00000000000E+00  0.40024062267E+03  0.40024062267E+03  0.00000000000E+00 0. -1.
         -1   -1    0    0    0  501 -0.00000000000E+00 -0.00000000000E+00 -0.29466245962E+02  0.29466245962E+02  0.00000000000E+00 0.  1.
         25    2    1    2    0    0  0.52562010241E+01  0.28246569753E+01  0.20369315381E+03  0.23911088877E+03  0.12509000713E+03 0.  0.
          5    1    3    3  502    0 -0.13905282883E+02 -0.14928090099E+02 -0.10477889820E+02  0.23312300212E+02  0.41800000000E+01 0.  1.
         -5    1    3    3    0  502  0.19161483907E+02  0.17752747075E+02  0.21417104363E+03  0.21579858855E+03  0.41800000000E+01 0.  1.
        -11    1    1    2    0    0  0.33873168738E+02 -0.27593054204E+02  0.62884815414E+02  0.76571980582E+02  0.00000000000E+00 0.  1.
         11    1    1    2    0    0 -0.39129369762E+02  0.24768397229E+02  0.10419640749E+03  0.11402399929E+03  0.00000000000E+00 0. -1.
</event>
<event>
 7    1  0.2601031E-009  0.9452943E+02  0.7561462E-02  0.1292239E+00
         -2   -1    0    0    0  501 -0.00000000000E+00  0.00000000000E+00  0.21946099066E+02  0.21946099066E+02  0.00000000000E+00 0.  1.
          2   -1    0    0  501    0  0.00000000000E+00 -0.00000000000E+00 -0.66631092476E+03  0.66631092476E+03  0.00000000000E+00 0. -1.
         25    2    1    2    0    0 -0.41996543780E+02 -0.11485236853E+02 -0.45690234677E+03  0.47571335195E+03  0.12509124024E+03 0.  0.
          5    1    3    3  502    0  0.35891143615E+02  0.21312046812E+02 -0.91751010296E+02  0.10088655916E+03  0.41800000000E+01 0. -1.
         -5    1    3    3    0  502 -0.77887687396E+02 -0.32797283665E+02 -0.36515133647E+03  0.37482679279E+03  0.41800000000E+01 0. -1.
        -11    1    1    2    0    0  0.27317638067E+02 -0.15765829995E+02 -0.11025590047E+02  0.33412248964E+02  0.00000000000E+00 0.  1.
         11    1    1    2    0    0  0.14678905714E+02  0.27251066847E+02 -0.17643688888E+03  0.17913142291E+03  0.00000000000E+00 0. -1.
</event>
<event>
 7    1  0.2601031E-009  0.1610999E+03  0.7561462E-02  0.1187460E+00
         -2   -1    0    0    0  501 -0.00000000000E+00  0.00000000000E+00  0.10049566324E+03  0.10049566324E+03  0.00000000000E+00 0.  1.
          2   -1    0    0  501    0  0.00000000000E+00 -0.00000000000E+00 -0.28674401939E+03  0.28674401939E+03  0.00000000000E+00 0. -1.
         25    2    1    2    0    0 -0.12799470488E+03 -0.17077258108E+02 -0.11415701985E+03  0.21296402744E+03  0.12509026574E+03 0.  0.
          5    1    3    3  502    0 -0.11080700458E+03 -0.58631504689E+02 -0.51191319645E+02  0.13547645262E+03  0.41800000000E+01 0. -1.
         -5    1    3    3    0  502 -0.17187700301E+02  0.41554246580E+02 -0.62965700203E+02  0.77487574827E+02  0.41800000000E+01 0. -1.
        -11    1    1    2    0    0  0.78141138242E+02  0.49161397292E+02 -0.68358382258E+02  0.11487275088E+03  0.00000000000E+00 0.  1.
         11    1    1    2    0    0  0.49853566643E+02 -0.32084139184E+02 -0.37329540488E+01  0.59402904307E+02  0.00000000000E+00 0. -1.
</event>
<event>
 7    1  0.2601031E-009  0.1044905E+03  0.7561462E-02  0.1271127E+00
         -2   -1    0    0    0  501 -0.00000000000E+00  0.00000000000E+00  0.63618156373E+02  0.63618156373E+02  0.00000000000E+00 0.  1.
          2   -1    0    0  501    0  0.00000000000E+00 -0.00000000000E+00 -0.24865543346E+03  0.24865543346E+03  0.00000000000E+00 0. -1.
         25    2    1    2    0    0 -0.90554806011E+01  0.33225105553E+02 -0.17012664909E+03  0.21395432832E+03  0.12508984174E+03 0.  0.
          5    1    3    3  502    0  0.90124785769E+01 -0.42750204323E+02 -0.98788455653E+02  0.10809919570E+03  0.41800000000E+01 0. -1.
         -5    1    3    3    0  502 -0.18067959178E+02  0.75975309877E+02 -0.71338193442E+02  0.10585513263E+03  0.41800000000E+01 0. -1.
        -11    1    1    2    0    0  0.44579724379E+02 -0.21355127506E+02 -0.30130784443E+02  0.57890046361E+02  0.00000000000E+00 0. -1.
         11    1    1    2    0    0 -0.35524243778E+02 -0.11869978047E+02  0.15220156455E+02  0.40429215146E+02  0.00000000000E+00 0.  1.
</event>
<event>
 7    1  0.2601031E-009  0.1544861E+03  0.7561462E-02  0.1195066E+00
         -2   -1    0    0    0  501 -0.00000000000E+00  0.00000000000E+00  0.24181291484E+02  0.24181291484E+02  0.00000000000E+00 0.  1.
          2   -1    0    0  501    0  0.00000000000E+00 -0.00000000000E+00 -0.17639937680E+04  0.17639937680E+04  0.00000000000E+00 0. -1.
         25    2    1    2    0    0 -0.11053916832E+03 -0.29985034707E+02 -0.14755185820E+04  0.14852342344E+04  0.12509050777E+03 0.  0.
          5    1    3    3  502    0 -0.53733514112E+02  0.47815686089E+02 -0.71723327661E+03  0.72084303135E+03  0.41800000000E+01 0.  1.
         -5    1    3    3    0  502 -0.56805654211E+02 -0.77800720796E+02 -0.75828530544E+03  0.76439120308E+03  0.41800000000E+01 0.  1.
        -11    1    1    2    0    0  0.49655690975E+02  0.55513698781E+02 -0.18701873530E+03  0.20130441066E+03  0.00000000000E+00 0. -1.
         11    1    1    2    0    0  0.60883477348E+02 -0.25528664074E+02 -0.77275159138E+02  0.10163641436E+03  0.00000000000E+00 0.  1.
</event>
<event>
 7    1  0.2601031E-009  0.4401294E+02  0.7561462E-02  0.1480599E+00
          1   -1    0    0  501    0  0.00000000000E+00  0.00000000000E+00  0.18884132484E+03  0.18884132484E+03  0.00000000000E+00 0. -1.
         -1   -1    0    0    0  501 -0.00000000000E+00 -0.00000000000E+00 -0.96271525726E+02  0.96271525726E+02  0.00000000000E+00 0.  1.
         25    2    1    2    0    0 -0.77585375396E+01 -0.29852517012E+01  0.13443199558E+03  0.18381584852E+03  0.12508876089E+03 0.  0.
          5    1    3    3  502    0 -0.58768445195E+01  0.25332739413E+02 -0.15903318619E+02  0.30768050487E+02  0.41800000000E+01 0. -1.
         -5    1    3    3    0  502 -0.18816930201E+01 -0.28317991114E+02  0.15033531420E+03  0.15304779804E+03  0.41800000000E+01 0. -1.
        -11    1    1    2    0    0 -0.11048149863E+02  0.78756309247E+01  0.26745667121E+02  0.29990296558E+02  0.00000000000E+00 0. -1.
         11    1    1    2    0    0  0.18806687403E+02 -0.48903792235E+01 -0.68607863590E+02  0.71306705480E+02  0.00000000000E+00 0.  1.
</event>
<event>
 7    1  0.2601031E-009  0.1337373E+03  0.7561462E-02  0.1222013E+00
         -3   -1    0    0    0  501 -0.00000000000E+00  0.00000000000E+00  0.69092717391E+02  0.69092717391E+02  0.00000000000E+00 0.  1.
          3   -1    0    0  501    0  0.00000000000E+00 -0.00000000000E+00 -0.37251518102E+03  0.37251518102E+03  0.00000000000E+00 0. -1.
         25    2    1    2    0    0  0.14438402586E+02 -0.11544355547E+03 -0.17080775451E+03  0.24157434480E+03  0.12508874088E+03 0.  0.
          5    1    3    3  502    0 -0.20351151549E+02  0.21245390124E+00  0.10813147675E+02  0.23422447965E+02  0.41800000000E+01 0. -1.
         -5    1    3    3    0  502  0.34789554134E+02 -0.11565600937E+03 -0.18162090219E+03  0.21815189684E+03  0.41800000000E+01 0. -1.
        -11    1    1    2    0    0 -0.31961434823E+02  0.64653614666E+02 -0.12695179868E+03  0.14600815865E+03  0.00000000000E+00 0. -1.
         11    1    1    2    0    0  0.17523032237E+02  0.50789940808E+02 -0.56629104395E+01  0.54025394961E+02  0.00000000000E+00 0.  1.
</event>
<event>
 7    1  0.2601031E-009  0.4517300E+03  0.7561462E-02  0.1027207E+00
          2   -1    0    0  501    0  0.00000000000E+00  0.00000000000E+00  0.13821766446E+04  0.13821766446E+04  0.00000000000E+00 0. -1.
         -2   -1    0    0    0  501 -0.00000000000E+00 -0.00000000000E+00 -0.15956650048E+03  0.15956650048E+03  0.00000000000E+00 0.  1.
         25    2    1    2    0    0 -0.28240574253E+02  0.44242949877E+03  0.79733420005E+03  0.92083193172E+03  0.12509287945E+03 0.  0.
          5    1    3    3  502    0  0.35725017987E+02  0.31202190441E+03  0.57577500587E+03  0.65587214877E+03  0.41800000000E+01 0. -1.
         -5    1    3    3    0  502 -0.63965592240E+02  0.13040759436E+03  0.22155919417E+03  0.26495978295E+03  0.41800000000E+01 0. -1.
        -11    1    1    2    0    0  0.10185781279E+02 -0.33272247443E+03  0.26317786563E+03  0.42434724470E+03  0.00000000000E+00 0.  1.
         11    1    1    2    0    0  0.18054792973E+02 -0.10970702434E+03  0.16209807840E+03  0.19656396862E+03  0.00000000000E+00 0. -1.
</event>
<event>
 7    1  0.2601031E-009  0.1402978E+03  0.7561462E-02  0.1212929E+00
          2   -1    0    0  501    0  0.00000000000E+00  0.00000000000E+00  0.33720802274E+03  0.33720802274E+03  0.00000000000E+00 0. -1.
         -2   -1    0    0    0  501 -0.00000000000E+00 -0.00000000000E+00 -0.77647771311E+02  0.77647771311E+02  0.00000000000E+00 0.  1.
         25    2    1    2    0    0 -0.54713205123E+02  0.97688343304E+02  0.18847313847E+03  0.25240095292E+03  0.12509024694E+03 0.  0.
          5    1    3    3  502    0 -0.30740146651E+02 -0.72154150502E+01 -0.37466567536E+01  0.32070682364E+02  0.41800000000E+01 0. -1.
         -5    1    3    3    0  502 -0.23973058472E+02  0.10490375835E+03  0.19221979522E+03  0.22033027056E+03  0.41800000000E+01 0. -1.
        -11    1    1    2    0    0  0.71795711115E+02 -0.10073630614E+03  0.46058258578E+02  0.13199920716E+03  0.00000000000E+00 0.  1.
         11    1    1    2    0    0 -0.17082505992E+02  0.30479628346E+01  0.25028854386E+02  0.30455633966E+02  0.00000000000E+00 0. -1.
</event>
<event>
 7    1  0.2601031E-009  0.3775720E+03  0.7561462E-02  0.1051835E+00
          1   -1    0    0  501    0  0.00000000000E+00  0.00000000000E+00  0.11232041950E+04  0.11232041950E+04  0.00000000000E+00 0. -1.
         -1   -1    0    0    0  501 -0.00000000000E+00 -0.00000000000E+00 -0.13787887689E+03  0.13787887689E+03  0.00000000000E+00 0.  1.
         25    2    1    2    0    0 -0.28519105094E+03  0.23315346310E+03  0.63376052367E+03  0.74363635587E+03  0.12509258781E+03 0.  0.
          5    1    3    3  502    0 -0.43941647167E+02 -0.88687400393E+01  0.50730398913E+02  0.67827492063E+02  0.41800000000E+01 0. -1.
         -5    1    3    3    0  502 -0.24124940377E+03  0.24202220314E+03  0.58303012475E+03  0.67580886381E+03  0.41800000000E+01 0. -1.
        -11    1    1    2    0    0  0.19180797565E+03 -0.15578860588E+03  0.29142835343E+03  0.38208752195E+03  0.00000000000E+00 0.  1.
         11    1    1    2    0    0  0.93383075283E+02 -0.77364857223E+02  0.60136441021E+02  0.13535919408E+03  0.00000000000E+00 0. -1.
</event>
<event>
 7    1  0.2601031E-009  0.1755566E+03  0.7561462E-02  0.1172174E+00
         -2   -1    0    0    0  501 -0.00000000000E+00  0.00000000000E+00  0.72966566329E+02  0.72966566329E+02  0.00000000000E+00 0.  1.
          2   -1    0    0  501    0  0.00000000000E+00 -0.00000000000E+00 -0.56013166922E+03  0.56013166922E+03  0.00000000000E+00 0. -1.
         25    2    1    2    0    0 -0.57440727013E+02 -0.14804316308E+03 -0.35832055537E+03  0.41140907186E+03  0.12509032239E+03 0.  0.
          5    1    3    3  502    0 -0.31227068924E+02 -0.18096598315E+01 -0.10654103729E+02  0.33307462056E+02  0.41800000000E+01 0. -1.
         -5    1    3    3    0  502 -0.26213658089E+02 -0.14623350325E+03 -0.34766645164E+03  0.37810160981E+03  0.41800000000E+01 0. -1.
        -11    1    1    2    0    0  0.16821706165E+02  0.12093323726E+03 -0.56823696889E+02  0.13467275226E+03  0.00000000000E+00 0.  1.
         11    1    1    2    0    0  0.40619020848E+02  0.27109925820E+02 -0.72020850634E+02  0.87016411433E+02  0.00000000000E+00 0. -1.
</event>
<event>
 7    1  0.2601031E-009  0.8941269E+02  0.7561462E-02  0.1304280E+00
          3   -1    0    0  501    0  0.00000000000E+00  0.00000000000E+00  0.39022003327E+03  0.39022003327E+03  0.00000000000E+00 0. -1.
         -3   -1    0    0    0  501 -0.00000000000E+00 -0.00000000000E+00 -0.32741482609E+02  0.32741482609E+02  0.00000000000E+00 0.  1.
         25    2    1    2    0    0 -0.83230671738E+01 -0.91597104667E+01  0.17290143010E+03  0.21376393524E+03  0.12508773615E+03 0.  0.
          5    1    3    3  502    0 -0.55281771841E+02  0.18182885011E+02  0.13588685968E+03  0.14788307083E+03  0.41800000000E+01 0.  1.
         -5    1    3    3    0  502  0.46958704668E+02 -0.27342595478E+02  0.37014570418E+02  0.65880864405E+02  0.41800000000E+01 0.  1.
        -11    1    1    2    0    0 -0.16874324797E+02  0.29240550888E+02  0.17088627273E+03  0.17418918124E+03  0.00000000000E+00 0. -1.
         11    1    1    2    0    0  0.25197391970E+02 -0.20080840421E+02  0.13690847829E+02  0.35008399398E+02  0.00000000000E+00 0.  1.
</event>
<event>
 7    1  0.2601031E-009  0.1321568E+03  0.7561462E-02  0.1224290E+00
          2   -1    0    0  501    0  0.00000000000E+00  0.00000000000E+00  0.21688692354E+03  0.21688692354E+03  0.00000000000E+00 0. -1.
         -2   -1    0    0    0  501 -0.00000000000E+00 -0.00000000000E+00 -0.11671048367E+03  0.11671048367E+03  0.00000000000E+00 0.  1.
         25    2    1    2    0    0 -0.10336806777E+03  0.20659595367E+02  0.10391969701E+03  0.19380046240E+03  0.12509012545E+03 0.  0.
          5    1    3    3  502    0  0.15214124188E+02 -0.12411218208E+02 -0.13042005136E+02  0.23938968444E+02  0.41800000000E+01 0.  1.
         -5    1    3    3    0  502 -0.11858219196E+03  0.33070813575E+02  0.11696170215E+03  0.16986149396E+03  0.41800000000E+01 0.  1.
        -11    1    1    2    0    0 -0.27192836850E+01 -0.14545573886E+02  0.25589005669E+02  0.29559523585E+02  0.00000000000E+00 0. -1.
         11    1    1    2    0    0  0.10608735145E+03 -0.61140214802E+01 -0.29332262815E+02  0.11023742123E+03  0.00000000000E+00 0.  1.
</event>
<event>
 7    1  0.2601031E-009  0.1017524E+03  0.7561462E-02  0.1276653E+00
          1   -1    0    0  501    0  0.00000000000E+00  0.00000000000E+00  0.27625263688E+03  0.27625263688E+03  0.00000000000E+00 0. -1.
         -1   -1    0    0    0  501 -0.00000000000E+00 -0.00000000000E+00 -0.49565566450E+02  0.49565566450E+02  0.00000000000E+00 0.  1.
         25    2    1    2    0    0  0.60524826729E+02 -0.19286257837E+02  0.14142370765E+03  0.19920461483E+03  0.12508636652E+03 0.  0.
          5    1    3    3  502    0  0.18537827715E+02 -0.70319312418E+02  0.60861889032E+02  0.94921539663E+02  0.41800000000E+01 0.  1.
         -5    1    3    3    0  502  0.41986999014E+02  0.51033054582E+02  0.80561818622E+02  0.10428307516E+03  0.41800000000E+01 0.  1.
        -11    1    1    2    0    0 -0.28124305770E+02  0.33042114419E+01 -0.55689882155E+01  0.28860145843E+02  0.00000000000E+00 0.  1.
         11    1    1    2    0    0 -0.32400520959E+02  0.15982046395E+02  0.90832350989E+02  0.97753442658E+02  0.00000000000E+00 0. -1.
</event>
<event>
 7    1  0.2601031E-009  0.9228867E+02  0.7561462E-02  0.1297402E+00
         -1   -1    0    0    0  501 -0.00000000000E+00  0.00000000000E+00  0.12439491137E+03  0.12439491137E+03  0.00000000000E+00 0.  1.
          1   -1    0    0  501    0  0.00000000000E+00 -0.00000000000E+00 -0.16394150841E+03  0.16394150841E+03  0.00000000000E+00 0. -1.
         25    2    1    2    0    0 -0.91619396860E+01  0.38260939834E+02 -0.10736020046E+03  0.16947146013E+03  0.12508606037E+03 0.  0.
          5    1    3    3  502    0 -0.38594501659E+02 -0.82204577825E+01  0.90034229819E+01  0.40689624106E+02  0.41800000000E+01 0.  1.
         -5    1    3    3    0  502  0.29432561973E+02  0.46481397617E+02 -0.11636362344E+03  0.12878183602E+03  0.41800000000E+01 0.  1.
        -11    1    1    2    0    0  0.18470338265E+01  0.25487666663E+02  0.43094140133E+02  0.50101273434E+02  0.00000000000E+00 0.  1.
         11    1    1    2    0    0  0.73149058595E+01 -0.63748606497E+02  0.24719463282E+02  0.68763686223E+02  0.00000000000E+00 0. -1.
</event>
<event>
 7    1  0.2601031E-009  0.1615614E+03  0.7561462E-02  0.1186945E+00
         -4   -1    0    0    0  501 -0.00000000000E+00  0.00000000000E+00  0.56233329159E+03  0.56233329159E+03  0.00000000000E+00 0.  1.
          4   -1    0    0  501    0  0.00000000000E+00 -0.00000000000E+00 -0.60766554670E+02  0.60766554670E+02  0.00000000000E+00 0. -1.
         25    2    1    2    0    0 -0.37867022889E+02 -0.14392296510E+03  0.27998195134E+03  0.34085981429E+03  0.12509112123E+03 0.  0.
          5    1    3    3  502    0 -0.67214187499E+02 -0.10863304591E+03  0.26176389126E+03  0.29130172130E+03  0.41800000000E+01 0.  1.
         -5    1    3    3    0  502  0.29347164610E+02 -0.35289919195E+02  0.18218060085E+02  0.49558092989E+02  0.41800000000E+01 0.  1.
        -11    1    1    2    0    0  0.29683786330E+02  0.92365771537E+02  0.20609351554E+03  0.22778740103E+03  0.00000000000E+00 0.  1.
         11    1    1    2    0    0  0.81832365589E+01  0.51557193568E+02  0.15491270044E+02  0.54452630944E+02  0.00000000000E+00 0. -1.
</event>
<event>
 7    1  0.2601031E-009  0.8345695E+02  0.7561462E-02  0.1319518E+00
         -2   -1    0    0    0  501 -0.00000000000E+00  0.00000000000E+00  0.52047764703E+03  0.52047764703E+03  0.00000000000E+00 0.  1.
          2   -1    0    0  501    0  0.00000000000E+00 -0.00000000000E+00 -0.38247960643E+02  0.38247960643E+02  0.00000000000E+00 0. -1.
         25    2    1    2    0    0 -0.31627580462E+02  0.22252534065E+02  0.42889793537E+03  0.44843754637E+03  0.12508922782E+03 0.  0.
          5    1    3    3  502    0 -0.29153304208E+02 -0.42589302496E+02  0.29588627094E+03  0.30038295818E+03  0.41800000000E+01 0. -1.
         -5    1    3    3    0  502 -0.24742762540E+01  0.64841836561E+02  0.13301166442E+03  0.14805458819E+03  0.41800000000E+01 0. -1.
        -11    1    1    2    0    0  0.53627077955E+01 -0.23215869519E+02  0.73431634479E+02  0.77200648797E+02  0.00000000000E+00 0.  1.
         11    1    1    2    0    0  0.26264872667E+02  0.96333545375E+00 -0.20099883456E+02  0.33087412506E+02  0.00000000000E+00 0. -1.
</event>
<event>
 7    1  0.2601031E-009  0.1395195E+03  0.7561462E-02  0.1213977E+00
          2   -1    0    0  501    0  0.00000000000E+00  0.00000000000E+00  0.91828323097E+02  0.91828323097E+02  0.00000000000E+00 0. -1.
         -2   -1    0    0    0  501 -0.00000000000E+00 -0.00000000000E+00 -0.22627718715E+03  0.22627718715E+03  0.00000000000E+00 0.  1.
         25    2    1    2    0    0  0.47557479848E+02 -0.80413234420E+02 -0.88661625189E+02  0.17954429206E+03  0.12508903578E+03 0.  0.
          5    1    3    3  502    0  0.10716293658E+02  0.30815254426E+02 -0.42018532386E+02  0.53361487226E+02  0.41800000000E+01 0.  1.
         -5    1    3    3    0  502  0.36841186190E+02 -0.11122848885E+03 -0.46643092803E+02  0.12618280484E+03  0.41800000000E+01 0.  1.
        -11    1    1    2    0    0  0.13691045732E+02  0.64060623750E+02 -0.11566503912E+02  0.66520615310E+02  0.00000000000E+00 0. -1.
         11    1    1    2    0    0 -0.61248525580E+02  0.16352610671E+02 -0.34220734950E+02  0.72040602871E+02  0.00000000000E+00 0.  1.
</event>
<event>
 7    1  0.2601031E-009  0.1041216E+03  0.7561462E-02  0.1271860E+00
         -1   -1    0    0    0  501 -0.00000000000E+00  0.00000000000E+00  0.20229135873E+02  0.20229135873E+02  0.00000000000E+00 0.  1.
          1   -1    0    0  501    0  0.00000000000E+00 -0.00000000000E+00 -0.96314707746E+03  0.96314707746E+03  0.00000000000E+00 0. -1.
         25    2    1    2    0    0  0.27990073050E+02  0.73547260062E+02 -0.64876064573E+03  0.66538025212E+03  0.12509140986E+03 0.  0.
          5    1    3    3  502    0 -0.21062730685E+02 -0.89539934299E+01 -0.36610072797E+03  0.36683924005E+03  0.41800000000E+01 0.  1.
         -5    1    3    3    0  502  0.49052803735E+02  0.82501253492E+02 -0.28265991776E+03  0.29854101207E+03  0.41800000000E+01 0.  1.
        -11    1    1    2    0    0  0.55282258672E+01 -0.43622485142E+02 -0.25385996237E+03  0.25763998717E+03  0.00000000000E+00 0. -1.
         11    1    1    2    0    0 -0.33518298917E+02 -0.29924774920E+02 -0.40297333482E+02  0.60355974038E+02  0.00000000000E+00 0.  1.
</event>
<event>
 7    1  0.2601031E-009  0.9361089E+02  0.7561462E-02  0.1294336E+00
          2   -1    0    0  501    0  0.00000000000E+00  0.00000000000E+00  0.12242273284E+03  0.12242273284E+03  0.00000000000E+00 0. -1.
         -2   -1    0    0    0  501 -0.00000000000E+00 -0.00000000000E+00 -0.91029284210E+02  0.91029284210E+02  0.00000000000E+00 0.  1.
         25    2    1    2    0    0 -0.37448255134E+01  0.67286294068E+01  0.27891403855E+02  0.12838957094E+03  0.12508658339E+03 0.  0.
          5    1    3    3  502    0  0.45846663940E+02 -0.31758092098E+02  0.33555725913E+02  0.65222328613E+02  0.41800000000E+01 0. -1.
         -5    1    3    3    0  502 -0.49591489454E+02  0.38486721504E+02 -0.56643220575E+01  0.63167242324E+02  0.41800000000E+01 0. -1.
        -11    1    1    2    0    0 -0.32126904740E+02 -0.44917579256E+01 -0.23542990564E+02  0.40082244225E+02  0.00000000000E+00 0.  1.
         11    1    1    2    0    0  0.35871730253E+02 -0.22368714812E+01  0.27045035335E+02  0.44980201886E+02  0.00000000000E+00 0. -1.
</event>
<event>
 7    1  0.2601031E-009  0.1091408E+03  0.7561462E-02  0.1262169E+00
          1   -1    0    0  501    0  0.00000000000E+00  0.00000000000E+00  0.14922333101E+04  0.14922333101E+04  0.00000000000E+00 0. -1.
         -1   -1    0    0    0  501 -0.00000000000E+00 -0.00000000000E+00 -0.13699226672E+02  0.13699226672E+02  0.00000000000E+00 0.  1.
         25    2    1    2    0    0  0.42634223744E+02  0.60870720643E+02  0.11224919105E+04  0.11318832837E+04  0.12509499230E+03 0.  0.
          5    1    3    3  502    0  0.28540082647E+02  0.78704211353E+02  0.38456174789E+03  0.39359128489E+03  0.41800000000E+01 0.  1.
         -5    1    3    3    0  502  0.14094141098E+02 -0.17833490710E+02  0.73793016260E+03  0.73829199880E+03  0.41800000000E+01 0.  1.
        -11    1    1    2    0    0  0.14390693957E+02  0.12054573406E+02  0.32588185860E+02  0.37608438817E+02  0.00000000000E+00 0.  1.
         11    1    1    2    0    0 -0.57024917701E+02 -0.72925294049E+02  0.32345398703E+03  0.33644081423E+03  0.00000000000E+00 0. -1.
</event>
<event>
 7    1  0.2601031E-009  0.1221126E+03  0.7561462E-02  0.1239652E+00
          2   -1    0    0  501    0  0.00000000000E+00  0.00000000000E+00  0.18407659426E+04  0.18407659426E+04  0.00000000000E+00 0.  1.
         -2   -1    0    0    0  501 -0.00000000000E+00 -0.00000000000E+00 -0.16125673858E+02  0.16125673858E+02  0.00000000000E+00 0. -1.
         25    2    1    2    0    0  0.76006698095E+02  0.29645724810E+02  0.15276838013E+04  0.15349661431E+04  0.12508947336E+03 0.  0.
          5    1    3    3  502    0  0.10304223912E+03  0.53859974035E+00  0.87406617231E+03  0.88012904685E+03  0.41800000000E+01 0. -1.
         -5    1    3    3    0  502 -0.27035541028E+02  0.29107125069E+02  0.65361762901E+03  0.65483709620E+03  0.41800000000E+01 0. -1.
        -11    1    1    2    0    0 -0.46100155313E+02  0.14057031416E+02  0.23734657932E+03  0.24219046877E+03  0.00000000000E+00 0.  1.
         11    1    1    2    0    0 -0.29906542782E+02 -0.43702756226E+02  0.59609888086E+02  0.79735004612E+02  0.00000000000E+00 0. -1.
</event>
<event>
 7    1  0.2601031E-009  0.1463929E+03  0.7561462E-02  0.1204977E+00
          2   -1    0    0  501    0  0.00000000000E+00  0.00000000000E+00  0.28512897376E+02  0.28512897376E+02  0.00000000000E+00 0. -1.
         -2   -1    0    0    0  501 -0.00000000000E+00 -0.00000000000E+00 -0.85111635720E+03  0.85111635720E+03  0.00000000000E+00 0.  1.
         25    2    1    2    0    0  0.65155662836E+02 -0.79199386220E+02 -0.52213296397E+03  0.54661681127E+03  0.12509717473E+03 0.  0.
          5    1    3    3  502    0 -0.31864398891E+02 -0.44859743498E+02 -0.24019535691E+03  0.24645287254E+03  0.41800000000E+01 0. -1.
         -5    1    3    3    0  502  0.97020061727E+02 -0.34339642722E+02 -0.28193760706E+03  0.30016393873E+03  0.41800000000E+01 0. -1.
        -11    1    1    2    0    0 -0.81900503923E+02  0.83859773849E+02 -0.20651578493E+03  0.23746352064E+03  0.00000000000E+00 0. -1.
         11    1    1    2    0    0  0.16744841087E+02 -0.46603876288E+01 -0.93954710927E+02  0.95548922659E+02  0.00000000000E+00 0.  1.
</event>
<event>
 7    1  0.2601031E-009  0.9257452E+02  0.7561462E-02  0.1296734E+00
          2   -1    0    0  501    0  0.00000000000E+00  0.00000000000E+00  0.63518227409E+02  0.63518227409E+02  0.00000000000E+00 0. -1.
         -2   -1    0    0    0  501 -0.00000000000E+00 -0.00000000000E+00 -0.19965215607E+03  0.19965215607E+03  0.00000000000E+00 0.  1.
         25    2    1    2    0    0 -0.73437427639E+01  0.26310704078E+02 -0.93459066551E+02  0.15853198778E+03  0.12510639601E+03 0.  0.
          5    1    3    3  502    0  0.11437387886E+02  0.74823927285E+02 -0.57650480093E+02  0.95239089616E+02  0.41800000000E+01 0.  1.
         -5    1    3    3    0  502 -0.18781130650E+02 -0.48513223206E+02 -0.35808586458E+02  0.63292898168E+02  0.41800000000E+01 0.  1.
        -11    1    1    2    0    0 -0.15768780991E+02 -0.29859867370E+02  0.18953217906E+02  0.38723256607E+02  0.00000000000E+00 0. -1.
         11    1    1    2    0    0  0.23112523755E+02  0.35491632914E+01 -0.61628080018E+02  0.65915139089E+02  0.00000000000E+00 0.  1.
</event>
<event>
 7    1  0.2601031E-009  0.1353982E+03  0.7561462E-02  0.1219659E+00
          1   -1    0    0  501    0  0.00000000000E+00  0.00000000000E+00  0.64210902754E+02  0.64210902754E+02  0.00000000000E+00 0. -1.
         -1   -1    0    0    0  501 -0.00000000000E+00 -0.00000000000E+00 -0.39156025544E+03  0.39156025544E+03  0.00000000000E+00 0.  1.
         25    2    1    2    0    0  0.68391726225E+01  0.10599267566E+03 -0.11409705868E+03  0.19986711558E+03  0.12508998167E+03 0.  0.
          5    1    3    3  502    0  0.33986870239E+02  0.12181166264E+03 -0.67221953468E+02  0.14328102432E+03  0.41800000000E+01 0.  1.
         -5    1    3    3    0  502 -0.27147697616E+02 -0.15818986979E+02 -0.46875105214E+02  0.56586091257E+02  0.41800000000E+01 0.  1.
        -11    1    1    2    0    0  0.15263913085E+02 -0.52848166137E+02 -0.18257437265E+03  0.19068119272E+03  0.00000000000E+00 0.  1.
         11    1    1    2    0    0 -0.22103085707E+02 -0.53144509521E+02 -0.30677921345E+02  0.65222849892E+02  0.00000000000E+00 0. -1.
</event>
<event>
 7    1  0.2601031E-009  0.1606112E+03  0.7561462E-02  0.1188008E+00
          1   -1    0    0  501    0  0.00000000000E+00  0.00000000000E+00  0.85850144434E+03  0.85850144434E+03  0.00000000000E+00 0. -1.
         -1   -1    0    0    0  501 -0.00000000000E+00 -0.00000000000E+00 -0.35017411505E+02  0.35017411505E+02  0.00000000000E+00 0.  1.
         25    2    1    2    0    0 -0.12497976594E+03  0.24453879270E+02  0.54596211051E+03  0.57440357517E+03  0.12508759706E+03 0.  0.
          5    1    3    3  502    0 -0.75511632479E+02  0.70154740356E+02  0.40779403106E+03  0.42063896444E+03  0.41800000000E+01 0.  1.
         -5    1    3    3    0  502 -0.49468133465E+02 -0.45700861086E+02  0.13816807945E+03  0.15376461073E+03  0.41800000000E+01 0.  1.
        -11    1    1    2    0    0  0.12259819786E+03  0.33889502475E+01  0.18106743540E+03  0.21869435124E+03  0.00000000000E+00 0.  1.
         11    1    1    2    0    0  0.23815680850E+01 -0.27842829517E+02  0.96454486922E+02  0.10042092944E+03  0.00000000000E+00 0. -1.
</event>
<event>
 7    1  0.2601031E-009  0.1648947E+03  0.7561462E-02  0.1183279E+00
          1   -1    0    0  501    0  0.00000000000E+00  0.00000000000E+00  0.20415818917E+03  0.20415818917E+03  0.00000000000E+00 0. -1.
         -1   -1    0    0    0  501 -0.00000000000E+00 -0.00000000000E+00 -0.27712563853E+03  0.27712563853E+03  0.00000000000E+00 0.  1.
         25    2    1    2    0    0 -0.87587010489E+02 -0.13942451741E+03 -0.17222115231E+03  0.26910663488E+03  0.12509026810E+03 0.  0.
          5    1    3    3  502    0 -0.49596793540E+02 -0.75395832271E+02 -0.10410551970E+02  0.90940779882E+02  0.41800000000E+01 0.  1.
         -5    1    3    3    0  502 -0.37990216949E+02 -0.64028685134E+02 -0.16181060034E+03  0.17816585500E+03  0.41800000000E+01 0.  1.
        -11    1    1    2    0    0  0.27903257684E+02  0.52182218706E+02  0.87765416878E+02  0.10585057458E+03  0.00000000000E+00 0. -1.
         11    1    1    2    0    0  0.59683752805E+02  0.87242298700E+02  0.11488286070E+02  0.10632661825E+03  0.00000000000E+00 0.  1.
</event>
<event>
 7    1  0.2601031E-009  0.8180776E+02  0.7561462E-02  0.1323998E+00
         -4   -1    0    0    0  501 -0.00000000000E+00  0.00000000000E+00  0.18698393378E+03  0.18698393378E+03  0.00000000000E+00 0.  1.
          4   -1    0    0  501    0  0.00000000000E+00 -0.00000000000E+00 -0.65296990557E+02  0.65296990557E+02  0.00000000000E+00 0. -1.
         25    2    1    2    0    0  0.12787360809E+02  0.20386883171E+02  0.71060453939E+02  0.14586049991E+03  0.12508619316E+03 0.  0.
          5    1    3    3  502    0 -0.19787931299E+02  0.56745206863E+02  0.75587118152E+02  0.96656430503E+02  0.41800000000E+01 0.  1.
         -5    1    3    3    0  502  0.32575292108E+02 -0.36358323692E+02 -0.45266642127E+01  0.49204069411E+02  0.41800000000E+01 0.  1.
        -11    1    1    2    0    0 -0.29932960386E+02 -0.32029631522E+01 -0.16997854048E+02  0.34571203807E+02  0.00000000000E+00 0. -1.
         11    1    1    2    0    0  0.17145599576E+02 -0.17183920019E+02  0.67624343330E+02  0.71849220615E+02  0.00000000000E+00 0.  1.
</event>
<event>
 7    1  0.2601031E-009  0.1725995E+03  0.7561462E-02  0.1175164E+00
         -2   -1    0    0    0  501 -0.00000000000E+00  0.00000000000E+00  0.10621692665E+04  0.10621692665E+04  0.00000000000E+00 0.  1.
          2   -1    0    0  501    0  0.00000000000E+00 -0.00000000000E+00 -0.37844247519E+02  0.37844247519E+02  0.00000000000E+00 0. -1.
         25    2    1    2    0    0  0.26896559607E+02  0.13453238007E+03  0.26855358670E+03  0.32648486021E+03  0.12509575857E+03 0.  0.
          5    1    3    3  502    0  0.12690141098E+02  0.15513679652E+03  0.20055267471E+03  0.25390414145E+03  0.41800000000E+01 0. -1.
         -5    1    3    3    0  502  0.14206418509E+02 -0.20604416446E+02  0.68000911987E+02  0.72580718755E+02  0.41800000000E+01 0. -1.
        -11    1    1    2    0    0 -0.59526847127E+02 -0.70680412909E+02  0.45990875767E+03  0.46910044945E+03  0.00000000000E+00 0.  1.
         11    1    1    2    0    0  0.32630287520E+02 -0.63851967163E+02  0.29586267458E+03  0.30442820432E+03  0.00000000000E+00 0. -1.
</event>
<event>
 7    1  0.2601031E-009  0.1377129E+03  0.7561462E-02  0.1216440E+00
         -2   -1    0    0    0  501 -0.00000000000E+00  0.00000000000E+00  0.11148007996E+03  0.11148007996E+03  0.00000000000E+00 0.  1.
          2   -1    0    0  501    0  0.00000000000E+00 -0.00000000000E+00 -0.19024511276E+03  0.19024511276E+03  0.00000000000E+00 0. -1.
         25    2    1    2    0    0  0.86097697801E+02  0.17111416425E+02 -0.58091806255E+00  0.15281659994E+03  0.12508781561E+03 0.  0.
          5    1    3    3  502    0  0.57934275154E+02  0.70743988005E+02 -0.67469026943E+01  0.91782815235E+02  0.41800000000E+01 0.  1.
         -5    1    3    3    0  502  0.28163422647E+02 -0.53632571580E+02  0.61659846318E+01  0.61033784709E+02  0.41800000000E+01 0.  1.
        -11    1    1    2    0    0 -0.87739060705E+02  0.16703579171E+02 -0.39957184327E+02  0.97845433771E+02  0.00000000000E+00 0.  1.
         11    1    1    2    0    0  0.16413629039E+01 -0.33814995596E+02 -0.38226930412E+02  0.51063159010E+02  0.00000000000E+00 0. -1.
</event>
<event>
 7    1  0.2601031E-009  0.1381293E+03  0.7561462E-02  0.1215868E+00
          2   -1    0    0  501    0  0.00000000000E+00  0.00000000000E+00  0.61897348561E+03  0.61897348561E+03  0.00000000000E+00 0. -1.
         -2   -1    0    0    0  501 -0.00000000000E+00 -0.00000000000E+00 -0.31375633832E+02  0.31375633832E+02  0.00000000000E+00 0.  1.
         25    2    1    2    0    0  0.51682324243E+02 -0.66719278153E+02  0.28077961135E+03  0.31875687854E+03  0.12508490216E+03 0.  0.
          5    1    3    3  502    0 -0.41290892342E+02 -0.14154275086E+02  0.75173540789E+02  0.87027667603E+02  0.41800000000E+01 0. -1.
         -5    1    3    3    0  502  0.92973216585E+02 -0.52565003067E+02  0.20560607056E+03  0.23172921093E+03  0.41800000000E+01 0. -1.
        -11    1    1    2    0    0 -0.69015579397E+02  0.14526313685E+02  0.18243621465E+03  0.19559431588E+03  0.00000000000E+00 0.  1.
         11    1    1    2    0    0  0.17333255154E+02  0.52192964467E+02  0.12438202578E+03  0.13599792502E+03  0.00000000000E+00 0. -1.
</event>
<event>
 7    1  0.2601031E-009  0.1539264E+03  0.7561462E-02  0.1195730E+00
          2   -1    0    0  501    0  0.00000000000E+00  0.00000000000E+00  0.61030787856E+03  0.61030787856E+03  0.00000000000E+00 0. -1.
         -2   -1    0    0    0  501 -0.00000000000E+00 -0.00000000000E+00 -0.77787511132E+02  0.77787511132E+02  0.00000000000E+00 0.  1.
         25    2    1    2    0    0 -0.77662600355E+02 -0.94949194374E+02  0.49892041262E+02  0.18216254915E+03  0.12508856672E+03 0.  0.
          5    1    3    3  502    0 -0.10171684982E+03 -0.30801249124E+02  0.26065686246E+02  0.10950765674E+03  0.41800000000E+01 0. -1.
         -5    1    3    3    0  502  0.24054249468E+02 -0.64147945249E+02  0.23826355015E+02  0.72654892406E+02  0.41800000000E+01 0. -1.
        -11    1    1    2    0    0 -0.53825286072E+01  0.20930230302E+02  0.17858913154E+02  0.28035458508E+02  0.00000000000E+00 0.  1.
         11    1    1    2    0    0  0.83045128962E+02  0.74018964072E+02  0.46476941302E+03  0.47789738204E+03  0.00000000000E+00 0. -1.
</event>
<event>
 7    1  0.2601031E-009  0.6826620E+02  0.7561462E-02  0.1366090E+00
          1   -1    0    0  501    0  0.00000000000E+00  0.00000000000E+00  0.51186274686E+02  0.51186274686E+02  0.00000000000E+00 0.  1.
         -1   -1    0    0    0  501 -0.00000000000E+00 -0.00000000000E+00 -0.20266626832E+03  0.20266626832E+03  0.00000000000E+00 0. -1.
         25    2    1    2    0    0 -0.10061465646E+02  0.18018257895E+02 -0.84879831249E+02  0.15256715058E+03  0.12508500700E+03 0.  0.
          5    1    3    3  502    0  0.30763292229E+02 -0.25492458079E+02 -0.83591102772E+02  0.92742603103E+02  0.41800000000E+01 0.  1.
         -5    1    3    3    0  502 -0.40824757875E+02  0.43510715975E+02 -0.12887284770E+01  0.59824547481E+02  0.41800000000E+01 0.  1.
        -11    1    1    2    0    0 -0.36239834783E+01 -0.22000957865E+02 -0.79189284338E+02  0.82268573327E+02  0.00000000000E+00 0. -1.
         11    1    1    2    0    0  0.13685449124E+02  0.39826999694E+01  0.12589121956E+02  0.19016819093E+02  0.00000000000E+00 0.  1.
</event>
<event>
 7    1  0.2601031E-009  0.9566211E+02  0.7561462E-02  0.1289692E+00
          2   -1    0    0  501    0  0.00000000000E+00  0.00000000000E+00  0.34018604198E+03  0.34018604198E+03  0.00000000000E+00 0. -1.
         -2   -1    0    0    0  501 -0.00000000000E+00 -0.00000000000E+00 -0.38249642446E+02  0.38249642446E+02  0.00000000000E+00 0.  1.
         25    2    1    2    0    0 -0.11761089508E+02  0.28725972019E+02  0.20403848072E+03  0.24133093305E+03  0.12508162510E+03 0.  0.
          5    1    3    3  502    0 -0.62597629095E+01  0.65383078380E+02  0.49494280742E+02  0.82348574949E+02  0.41800000000E+01 0. -1.
         -5    1    3    3    0  502 -0.55013265987E+01 -0.36657106361E+02  0.15454419997E+03  0.15898235810E+03  0.41800000000E+01 0. -1.
        -11    1    1    2    0    0 -0.22470337860E+02  0.19032463811E+02  0.94668731251E+01  0.30931738539E+02  0.00000000000E+00 0.  1.
         11    1    1    2    0    0  0.34231427368E+02 -0.47758435830E+02  0.88431045694E+02  0.10617301284E+03  0.00000000000E+00 0. -1.
</event>
<event>
 7    1  0.2601031E-009  0.1041474E+03  0.7561462E-02  0.1271809E+00
          4   -1    0    0  501    0  0.00000000000E+00  0.00000000000E+00  0.18733203291E+03  0.18733203291E+03  0.00000000000E+00 0. -1.
         -4   -1    0    0    0  501 -0.00000000000E+00 -0.00000000000E+00 -0.77211736911E+02  0.77211736911E+02  0.00000000000E+00 0.  1.
         25    2    1    2    0    0  0.34777285432E+02  0.45443396784E+01  0.23432774428E+02  0.13200657262E+03  0.12508608912E+03 0.  0.
          5    1    3    3  502    0 -0.32018615891E+02 -0.37729454699E+02  0.76917939316E+00  0.49666563727E+02  0.41800000000E+01 0. -1.
         -5    1    3    3    0  502  0.66795901323E+02  0.42273794378E+02  0.22663595035E+02  0.82340008893E+02  0.41800000000E+01 0. -1.
        -11    1    1    2    0    0 -0.15187840925E+02 -0.37878835472E+02  0.84466975372E+02  0.93809096666E+02  0.00000000000E+00 0. -1.
         11    1    1    2    0    0 -0.19589444507E+02  0.33334495794E+02  0.22205462017E+01  0.38728100539E+02  0.00000000000E+00 0.  1.
</event>
<event>
 7    1  0.2601031E-009  0.6488869E+02  0.7561462E-02  0.1378391E+00
         -1   -1    0    0    0  501 -0.00000000000E+00  0.00000000000E+00  0.66485145380E+02  0.66485145380E+02  0.00000000000E+00 0.  1.
          1   -1    0    0  501    0  0.00000000000E+00 -0.00000000000E+00 -0.37841867523E+03  0.37841867523E+03  0.00000000000E+00 0. -1.
         25    2    1    2    0    0 -0.10388887982E+02  0.17603476902E+02 -0.92620756746E+02  0.15698927266E+03  0.12509682553E+03 0.  0.
          5    1    3    3  502    0 -0.14649777493E+02  0.25556374185E+02 -0.12220704524E+03  0.12577670113E+03  0.41800000000E+01 0. -1.
         -5    1    3    3    0  502  0.42608895109E+01 -0.79528972829E+01  0.29586288493E+02  0.31212571528E+02  0.41800000000E+01 0. -1.
        -11    1    1    2    0    0  0.12527717173E+02 -0.53080949048E+02 -0.24045305193E+03  0.24656074511E+03  0.00000000000E+00 0. -1.
         11    1    1    2    0    0 -0.21388291904E+01  0.35477472146E+02  0.21140278824E+02  0.41353802835E+02  0.00000000000E+00 0.  1.
</event>
<event>
 7    1  0.2601031E-009  0.1845909E+03  0.7561462E-02  0.1163432E+00
          2   -1    0    0  501    0  0.00000000000E+00  0.00000000000E+00  0.30487425117E+03  0.30487425117E+03  0.00000000000E+00 0. -1.
         -2   -1    0    0    0  501 -0.00000000000E+00 -0.00000000000E+00 -0.18656254237E+03  0.18656254237E+03  0.00000000000E+00 0.  1.
         25    2    1    2    0    0  0.52049791741E+02  0.16134046411E+03  0.19243110165E+03  0.28533580014E+03  0.12508742456E+03 0.  0.
          5    1    3    3  502    0  0.75553878297E+02  0.13354627682E+03  0.19551266334E+03  0.24856723538E+03  0.41800000000E+01 0. -1.
         -5    1    3    3    0  502 -0.23504086557E+02  0.27794187290E+02 -0.30815616954E+01  0.36768564759E+02  0.41800000000E+01 0. -1.
        -11    1    1    2    0    0  0.12673194408E+02 -0.31991502256E+02 -0.48099822372E+02  0.59141009337E+02  0.00000000000E+00 0.  1.
         11    1    1    2    0    0 -0.64722986149E+02 -0.12934896185E+03 -0.26019570475E+02  0.14695998406E+03  0.00000000000E+00 0. -1.
</event>
<event>
 7    1  0.2601031E-009  0.1108367E+03  0.7561462E-02  0.1259028E+00
          2   -1    0    0  501    0  0.00000000000E+00  0.00000000000E+00  0.34447572414E+03  0.34447572414E+03  0.00000000000E+00 0. -1.
         -2   -1    0    0    0  501 -0.00000000000E+00 -0.00000000000E+00 -0.36936642743E+02  0.36936642743E+02  0.00000000000E+00 0.  1.
         25    2    1    2    0    0 -0.17703024742E+02 -0.20183749948E+02  0.20504143742E+03  0.24168316772E+03  0.12509189282E+03 0.  0.
          5    1    3    3  502    0  0.54142203374E+02 -0.83867701805E+01  0.91966192462E+02  0.10713061680E+03  0.41800000000E+01 0. -1.
         -5    1    3    3    0  502 -0.71845228116E+02 -0.11796979767E+02  0.11307524496E+03  0.13455255092E+03  0.41800000000E+01 0. -1.
        -11    1    1    2    0    0  0.34561820968E+02 -0.26894589175E+02  0.37043116803E+02  0.57358790939E+02  0.00000000000E+00 0.  1.
         11    1    1    2    0    0 -0.16858796226E+02  0.47078339123E+02  0.65454527174E+02  0.82370408232E+02  0.00000000000E+00 0. -1.
</event>
<event>
 7    1  0.2601031E-009  0.2648686E+03  0.7561462E-02  0.1104253E+00
         -1   -1    0    0    0  501 -0.00000000000E+00  0.00000000000E+00  0.26053101213E+03  0.26053101213E+03  0.00000000000E+00 0.  1.
          1   -1    0    0  501    0  0.00000000000E+00 -0.00000000000E+00 -0.29475524548E+03  0.29475524548E+03  0.00000000000E+00 0. -1.
         25    2    1    2    0    0 -0.21080477837E+03  0.13407682584E+03 -0.66232858123E+02  0.28713932510E+03  0.12508777206E+03 0.  0.
          5    1    3    3  502    0 -0.30253164302E+02  0.87708740724E+02 -0.24942526783E+02  0.96164854245E+02  0.41800000000E+01 0. -1.
         -5    1    3    3    0  502 -0.18055161406E+03  0.46368085112E+02 -0.41290331339E+02  0.19097447086E+03  0.41800000000E+01 0. -1.
        -11    1    1    2    0    0  0.14710995758E+03 -0.84163858552E+02 -0.21928642791E+02  0.17089692823E+03  0.00000000000E+00 0.  1.
         11    1    1    2    0    0  0.63694820788E+02 -0.49912967285E+02  0.53937267565E+02  0.97250004272E+02  0.00000000000E+00 0. -1.
</event>
<event>
 7    1  0.2601031E-009  0.5954924E+02  0.7561462E-02  0.1399733E+00
         -1   -1    0    0    0  501 -0.00000000000E+00  0.00000000000E+00  0.48898077700E+02  0.48898077700E+02  0.00000000000E+00 0.  1.
          1   -1    0    0  501    0  0.00000000000E+00 -0.00000000000E+00 -0.29740607699E+03  0.29740607699E+03  0.00000000000E+00 0. -1.
         25    2    1    2    0    0 -0.39039093031E+02  0.68700958170E+01 -0.18755204513E+03  0.22889504829E+03  0.12508366999E+03 0.  0.
          5    1    3    3  502    0  0.27786050673E+01  0.28956900589E+02 -0.17807259332E+03  0.18048142184E+03  0.41800000000E+01 0. -1.
         -5    1    3    3    0  502 -0.41817698098E+02 -0.22086804772E+02 -0.94794518058E+01  0.48413626448E+02  0.41800000000E+01 0. -1.
        -11    1    1    2    0    0  0.23168979378E+02  0.32724760319E+01  0.22135313904E+02  0.32209980231E+02  0.00000000000E+00 0.  1.
         11    1    1    2    0    0  0.15870113653E+02 -0.10142571849E+02 -0.83091268065E+02  0.85199126168E+02  0.00000000000E+00 0. -1.
</event>
<event>
 7    1  0.2601031E-009  0.1102247E+03  0.7561462E-02  0.1260154E+00
          2   -1    0    0  501    0  0.00000000000E+00  0.00000000000E+00  0.54397170115E+03  0.54397170115E+03  0.00000000000E+00 0. -1.
         -2   -1    0    0    0  501 -0.00000000000E+00 -0.00000000000E+00 -0.34626619761E+02  0.34626619761E+02  0.00000000000E+00 0.  1.
         25    2    1    2    0    0  0.38217311856E+02  0.87484055269E+01  0.43657587243E+03  0.45583258167E+03  0.12509097731E+03 0.  0.
          5    1    3    3  502    0  0.64040169904E+02 -0.36273191516E+02  0.18958765961E+03  0.20341543909E+03  0.41800000000E+01 0. -1.
         -5    1    3    3    0  502 -0.25822858048E+02  0.45021597043E+02  0.24698821282E+03  0.25241714258E+03  0.41800000000E+01 0. -1.
        -11    1    1    2    0    0 -0.47740110175E+02 -0.39817770218E+02  0.29928652064E+02  0.68994906761E+02  0.00000000000E+00 0.  1.
         11    1    1    2    0    0  0.95227983185E+01  0.31069364691E+02  0.42840556895E+02  0.53770832476E+02  0.00000000000E+00 0. -1.
</event>
<event>
 7    1  0.2601031E-009  0.9309726E+02  0.7561462E-02  0.1295520E+00
         -2   -1    0    0    0  501 -0.00000000000E+00  0.00000000000E+00  0.34652491861E+02  0.34652491861E+02  0.00000000000E+00 0.  1.
          2   -1    0    0  501    0  0.00000000000E+00 -0.00000000000E+00 -0.45889737915E+03  0.45889737915E+03  0.00000000000E+00 0. -1.
         25    2    1    2    0    0 -0.96083243602E+01  0.65446041784E+02 -0.24276398398E+03  0.28099290471E+03  0.12508859380E+03 0.  0.
          5    1    3    3  502    0  0.94839617348E+01  0.48871202011E+02 -0.15526856676E+02  0.52315347599E+02  0.41800000000E+01 0. -1.
         -5    1    3    3    0  502 -0.19092286095E+02  0.16574839774E+02 -0.22723712730E+03  0.22867755711E+03  0.41800000000E+01 0. -1.
        -11    1    1    2    0    0 -0.37820807641E+02 -0.13227706207E+02 -0.68763391897E+02  0.79585110211E+02  0.00000000000E+00 0.  1.
         11    1    1    2    0    0  0.47429132001E+02 -0.52218335578E+02 -0.11271751142E+03  0.13297185609E+03  0.00000000000E+00 0. -1.
</event>
<event>
 7    1  0.2601031E-009  0.1887249E+03  0.7561462E-02  0.1159616E+00
         -1   -1    0    0    0  501 -0.00000000000E+00  0.00000000000E+00  0.19858885970E+02  0.19858885970E+02  0.00000000000E+00 0.  1.
          1   -1    0    0  501    0  0.00000000000E+00 -0.00000000000E+00 -0.18169571047E+04  0.18169571047E+04  0.00000000000E+00 0. -1.
         25    2    1    2    0    0 -0.85540667457E+02 -0.11458657051E+03 -0.90459847412E+03  0.92433366894E+03  0.12508814579E+03 0.  0.
          5    1    3    3  502    0 -0.11438975857E+03 -0.10878169195E+03 -0.70020312661E+03  0.71778852337E+03  0.41800000000E+01 0. -1.
         -5    1    3    3    0  502  0.28849091109E+02 -0.58048785615E+01 -0.20439534751E+03  0.20654514557E+03  0.41800000000E+01 0. -1.
        -11    1    1    2    0    0 -0.19649481267E+02 -0.13672621570E+02 -0.12276090617E+03  0.12507310973E+03  0.00000000000E+00 0. -1.
         11    1    1    2    0    0  0.10519014872E+03  0.12825919208E+03 -0.76973883842E+03  0.78740921198E+03  0.00000000000E+00 0.  1.
</event>
<event>
 7    1  0.2601031E-009  0.1306321E+03  0.7561462E-02  0.1226521E+00
          2   -1    0    0  501    0  0.00000000000E+00  0.00000000000E+00  0.12651299514E+04  0.12651299514E+04  0.00000000000E+00 0. -1.
         -2   -1    0    0    0  501 -0.00000000000E+00 -0.00000000000E+00 -0.13598201715E+02  0.13598201715E+02  0.00000000000E+00 0.  1.
         25    2    1    2    0    0  0.18812114979E+02  0.72709855238E+02  0.73822672756E+03  0.75250689643E+03  0.12508920484E+03 0.  0.
          5    1    3    3  502    0  0.70643101930E+02  0.58640474164E+02  0.48054278884E+03  0.48925248836E+03  0.41800000000E+01 0. -1.
         -5    1    3    3    0  502 -0.51830986951E+02  0.14069381074E+02  0.25768393872E+03  0.26325440807E+03  0.41800000000E+01 0. -1.
        -11    1    1    2    0    0 -0.12710582386E+02 -0.93224420615E+02  0.43378326765E+03  0.44386965970E+03  0.00000000000E+00 0. -1.
         11    1    1    2    0    0 -0.61015325932E+01  0.20514565377E+02  0.79521754452E+02  0.82351596971E+02  0.00000000000E+00 0.  1.
</event>
<event>
 7    1  0.2601031E-009  0.9533643E+02  0.7561462E-02  0.1290420E+00
          2   -1    0    0  501    0  0.00000000000E+00  0.00000000000E+00  0.44034460394E+03  0.44034460394E+03  0.00000000000E+00 0. -1.
         -2   -1    0    0    0  501 -0.00000000000E+00 -0.00000000000E+00 -0.29056696902E+02  0.29056696902E+02  0.00000000000E+00 0.  1.
         25    2    1    2    0    0  0.10945546476E+02 -0.85302551031E+01  0.30980102867E+03  0.33439721800E+03  0.12510895972E+03 0.  0.
          5    1    3    3  502    0 -0.19545931334E+02  0.44533256876E+02  0.22191595737E+03  0.22722107943E+03  0.41800000000E+01 0. -1.
         -5    1    3    3    0  502  0.30491477809E+02 -0.53063511979E+02  0.87885071299E+02  0.10717613857E+03  0.41800000000E+01 0. -1.
        -11    1    1    2    0    0 -0.37960276451E+02  0.28040299223E+02  0.86347735021E+02  0.98403111292E+02  0.00000000000E+00 0. -1.
         11    1    1    2    0    0  0.27014729975E+02 -0.19510044120E+02  0.15139143351E+02  0.36600971553E+02  0.00000000000E+00 0.  1.
</event>
<event>
 7    1  0.2601031E-009  0.7479279E+02  0.7561462E-02  0.1344514E+00
          1   -1    0    0  501    0  0.00000000000E+00  0.00000000000E+00  0.46498056043E+03  0.46498056043E+03  0.00000000000E+00 0. -1.
         -1   -1    0    0    0  501 -0.00000000000E+00 -0.00000000000E+00 -0.23896302228E+02  0.23896302228E+02  0.00000000000E+00 0.  1.
         25    2    1    2    0    0  0.78816449362E+01 -0.15636988868E+01  0.28931100658E+03  0.31529893830E+03  0.12509195211E+03 0.  0.
          5    1    3    3  502    0 -0.14187946103E+02  0.39149357873E+02  0.29116875445E+02  0.50982691888E+02  0.41800000000E+01 0. -1.
         -5    1    3    3    0  502  0.22069591039E+02 -0.40713056759E+02  0.26019413114E+03  0.26431624641E+03  0.41800000000E+01 0. -1.
        -11    1    1    2    0    0 -0.30486203944E+02 -0.14247886159E+02  0.20426511381E+02  0.39365635497E+02  0.00000000000E+00 0.  1.
         11    1    1    2    0    0  0.22604559008E+02  0.15811585046E+02  0.13134674024E+03  0.13421228886E+03  0.00000000000E+00 0. -1.
</event>
<event>
 7    1  0.2601031E-009  0.6956824E+02  0.7561462E-02  0.1361567E+00
         -1   -1    0    0    0  501 -0.00000000000E+00  0.00000000000E+00  0.17277713516E+03  0.17277713516E+03  0.00000000000E+00 0.  1.
          1   -1    0    0  501    0  0.00000000000E+00 -0.00000000000E+00 -0.93441281123E+02  0.93441281123E+02  0.00000000000E+00 0. -1.
         25    2    1    2    0    0  0.39074280469E+02  0.24270503216E+02  0.96393995664E+02  0.16448572068E+03  0.12509153923E+03 0.  0.
          5    1    3    3  502    0  0.60579924226E+02  0.32233481654E+02  0.36374219645E+01  0.68844954770E+02  0.41800000000E+01 0. -1.
         -5    1    3    3    0  502 -0.21505643757E+02 -0.79629784374E+01  0.92756573699E+02  0.95640765908E+02  0.41800000000E+01 0. -1.
        -11    1    1    2    0    0 -0.28264755489E+02 -0.11950237180E+02  0.35355737185E+02  0.46815945184E+02  0.00000000000E+00 0.  1.
         11    1    1    2    0    0 -0.10809524979E+02 -0.12320266036E+02 -0.52413878809E+02  0.54916750425E+02  0.00000000000E+00 0. -1.
</event>
<event>
 7    1  0.2601031E-009  0.7788476E+02  0.7561462E-02  0.1335164E+00
         -1   -1    0    0    0  501 -0.00000000000E+00  0.00000000000E+00  0.28648305990E+02  0.28648305990E+02  0.00000000000E+00 0.  1.
          1   -1    0    0  501    0  0.00000000000E+00 -0.00000000000E+00 -0.70078695878E+03  0.70078695878E+03  0.00000000000E+00 0. -1.
         25    2    1    2    0    0 -0.38567900583E+02 -0.34444793658E+02 -0.55493391692E+03  0.57120363828E+03  0.12509203600E+03 0.  0.
          5    1    3    3  502    0 -0.37031062441E+01 -0.55379647371E+01 -0.49922179209E+03  0.49928373912E+03  0.41800000000E+01 0.  1.
         -5    1    3    3    0  502 -0.34864794339E+02 -0.28906828921E+02 -0.55712124830E+02  0.71919899163E+02  0.41800000000E+01 0.  1.
        -11    1    1    2    0    0 -0.11979788321E+02  0.48499607705E+02 -0.36095454222E+02  0.61632857238E+02  0.00000000000E+00 0. -1.
         11    1    1    2    0    0  0.50547688904E+02 -0.14054814047E+02 -0.81109281644E+02  0.96598769248E+02  0.00000000000E+00 0.  1.
</event>
<event>
 7    1  0.2601031E-009  0.2181358E+03  0.7561462E-02  0.1135281E+00
          2   -1    0    0  501    0  0.00000000000E+00  0.00000000000E+00  0.11444382573E+04  0.11444382573E+04  0.00000000000E+00 0. -1.
         -2   -1    0    0    0  501 -0.00000000000E+00 -0.00000000000E+00 -0.44802826977E+02  0.44802826977E+02  0.00000000000E+00 0.  1.
         25    2    1    2    0    0 -0.26582168443E+02 -0.19228585920E+03  0.46165703162E+03  0.51619086613E+03  0.12508130200E+03 0.  0.
          5    1    3    3  502    0 -0.56968025069E+02 -0.18479564104E+03  0.42990260625E+03  0.47141118791E+03  0.41800000000E+01 0. -1.
         -5    1    3    3    0  502  0.30385856627E+02 -0.74902181515E+01  0.31754425369E+02  0.44779678219E+02  0.41800000000E+01 0. -1.
        -11    1    1    2    0    0 -0.25437960798E+02  0.23413825937E+02  0.15372455451E+03  0.15756438605E+03  0.00000000000E+00 0.  1.
         11    1    1    2    0    0  0.52020129241E+02  0.16887203326E+03  0.48425384418E+03  0.51548583207E+03  0.00000000000E+00 0. -1.
</event>
<event>
 7    1  0.2601031E-009  0.1161088E+03  0.7561462E-02  0.1249658E+00
         -2   -1    0    0    0  501 -0.00000000000E+00  0.00000000000E+00  0.88468140813E+02  0.88468140813E+02  0.00000000000E+00 0.  1.
          2   -1    0    0  501    0  0.00000000000E+00 -0.00000000000E+00 -0.17330182308E+03  0.17330182308E+03  0.00000000000E+00 0. -1.
         25    2    1    2    0    0 -0.58432992900E+02  0.61168250071E+01 -0.37679481561E+02  0.14324603071E+03  0.12509137370E+03 0.  0.
          5    1    3    3  502    0 -0.88175382909E+02 -0.27967775075E+02 -0.28630413523E+02  0.96924029901E+02  0.41800000000E+01 0. -1.
         -5    1    3    3    0  502  0.29742390008E+02  0.34084600082E+02 -0.90490680385E+01  0.46322000805E+02  0.41800000000E+01 0. -1.
        -11    1    1    2    0    0 -0.84213967624E+01 -0.23624248279E+02  0.11770142160E+02  0.27704896257E+02  0.00000000000E+00 0.  1.
         11    1    1    2    0    0  0.66854389663E+02  0.17507423272E+02 -0.58924342865E+02  0.90819036930E+02  0.00000000000E+00 0. -1.
</event>
<event>
 7    1  0.2601031E-009  0.1328735E+03  0.7561462E-02  0.1223253E+00
         -2   -1    0    0    0  501 -0.00000000000E+00  0.00000000000E+00  0.19988036485E+03  0.19988036485E+03  0.00000000000E+00 0.  1.
          2   -1    0    0  501    0  0.00000000000E+00 -0.00000000000E+00 -0.97067673243E+02  0.97067673243E+02  0.00000000000E+00 0. -1.
         25    2    1    2    0    0  0.15996906511E+02  0.84828632403E+02  0.41917508583E+02  0.15766738935E+03  0.12510048060E+03 0.  0.
          5    1    3    3  502    0 -0.15727244597E+02 -0.22926116214E+02 -0.14790340545E+02  0.31767587266E+02  0.41800000000E+01 0. -1.
         -5    1    3    3    0  502  0.31724151108E+02  0.10775474862E+03  0.56707849128E+02  0.12589980209E+03  0.41800000000E+01 0. -1.
        -11    1    1    2    0    0  0.31104236383E+02 -0.68747227700E+02  0.38326524323E+02  0.84632011108E+02  0.00000000000E+00 0. -1.
         11    1    1    2    0    0 -0.47101142894E+02 -0.16081404704E+02  0.22568658698E+02  0.54648637628E+02  0.00000000000E+00 0.  1.
</event>
<event>
 7    1  0.2609665E-009  0.7977705E+02  0.7561462E-02  0.1329685E+00
          4   -1    0    0  501    0  0.00000000000E+00  0.00000000000E+00  0.71294939232E+02  0.71294939232E+02  0.00000000000E+00 0. -1.
         -4   -1    0    0    0  501 -0.00000000000E+00 -0.00000000000E+00 -0.22429945852E+03  0.22429945852E+03  0.00000000000E+00 0.  1.
         25    2    1    2    0    0  0.42129258788E+02 -0.23123962114E+01 -0.14302835856E+03  0.19464144625E+03  0.12509180479E+03 0.  0.
          5    1    3    3  502    0  0.64253702962E+02 -0.30630255102E+02 -0.32534371932E+02  0.78375433836E+02  0.41800000000E+01 0. -1.
         -5    1    3    3    0  502 -0.22124444174E+02  0.28317858890E+02 -0.11049398663E+03  0.11626601242E+03  0.41800000000E+01 0. -1.
        -11    1    1    2    0    0 -0.24314614185E+02  0.16427041021E+02 -0.48230758252E+02  0.56455771903E+02  0.00000000000E+00 0.  1.
         11    1    1    2    0    0 -0.17814644603E+02 -0.14114644809E+02  0.38254597524E+02  0.44497179597E+02  0.00000000000E+00 0. -1.
</event>
<event>
 7    1  0.2601031E-009  0.9822928E+02  0.7561462E-02  0.1284064E+00
          2   -1    0    0  501    0  0.00000000000E+00  0.00000000000E+00  0.11145469933E+03  0.11145469933E+03  0.00000000000E+00 0. -1.
         -2   -1    0    0    0  501 -0.00000000000E+00 -0.00000000000E+00 -0.12122805460E+03  0.12122805460E+03  0.00000000000E+00 0.  1.
         25    2    1    2    0    0 -0.41558526667E+02  0.84080783686E+01  0.27264049581E+01  0.13211917621E+03  0.12510090534E+03 0.  0.
          5    1    3    3  502    0  0.99837986572E+00 -0.46209916049E+02  0.32474708110E+02  0.56643024023E+02  0.41800000000E+01 0. -1.
         -5    1    3    3    0  502 -0.42556906533E+02  0.54617994418E+02 -0.29748303151E+02  0.75476152183E+02  0.41800000000E+01 0. -1.
        -11    1    1    2    0    0  0.26001625135E+02 -0.38703483332E+02  0.22463056173E+02  0.51755512019E+02  0.00000000000E+00 0. -1.
         11    1    1    2    0    0  0.15556901532E+02  0.30295404963E+02 -0.34962816405E+02  0.48808065707E+02  0.00000000000E+00 0.  1.
</event>
<event>
 7    1  0.2601031E-009  0.7893916E+02  0.7561462E-02  0.1332089E+00
          2   -1    0    0  501    0  0.00000000000E+00  0.00000000000E+00  0.24075645627E+02  0.24075645627E+02  0.00000000000E+00 0. -1.
         -2   -1    0    0    0  501 -0.00000000000E+00 -0.00000000000E+00 -0.53113397562E+03  0.53113397562E+03  0.00000000000E+00 0.  1.
         25    2    1    2    0    0 -0.22285620966E+02  0.13434979978E+02 -0.32449237233E+03  0.34874050864E+03  0.12508994794E+03 0.  0.
          5    1    3    3  502    0  0.17166371515E+02  0.14467696559E+02 -0.10366699041E+01  0.22859257188E+02  0.41800000000E+01 0.  1.
         -5    1    3    3    0  502 -0.39451992481E+02 -0.10327165808E+01 -0.32345570243E+03  0.32588125145E+03  0.41800000000E+01 0.  1.
        -11    1    1    2    0    0  0.37099703093E+02  0.31107155133E+02 -0.77287138965E+02  0.91199478724E+02  0.00000000000E+00 0.  1.
         11    1    1    2    0    0 -0.14814082127E+02 -0.44542135111E+02 -0.10527881870E+03  0.11526963389E+03  0.00000000000E+00 0. -1.
</event>
<event>
 7    1  0.2601031E-009  0.2616604E+03  0.7561462E-02  0.1106150E+00
         -3   -1    0    0    0  501 -0.00000000000E+00  0.00000000000E+00  0.72456419598E+02  0.72456419598E+02  0.00000000000E+00 0.  1.
          3   -1    0    0  501    0  0.00000000000E+00 -0.00000000000E+00 -0.95461697350E+03  0.95461697350E+03  0.00000000000E+00 0. -1.
         25    2    1    2    0    0  0.13932421215E+03 -0.12817368771E+03 -0.43339545219E+03  0.48920210089E+03  0.12508935698E+03 0.  0.
          5    1    3    3  502    0  0.11194745982E+03 -0.18221289099E+02 -0.22032496158E+03  0.24784029179E+03  0.41800000000E+01 0. -1.
         -5    1    3    3    0  502  0.27376752331E+02 -0.10995239862E+03 -0.21307049060E+03  0.24136180910E+03  0.41800000000E+01 0. -1.
        -11    1    1    2    0    0  0.57281806032E+02 -0.71989908521E+01 -0.92049446779E+02  0.10865602341E+03  0.00000000000E+00 0. -1.
         11    1    1    2    0    0 -0.19660601818E+03  0.13537267857E+03 -0.35671565494E+03  0.42921526879E+03  0.00000000000E+00 0.  1.
</event>
<event>
 7    1  0.2601031E-009  0.1392635E+03  0.7561462E-02  0.1214323E+00
         -2   -1    0    0    0  501 -0.00000000000E+00  0.00000000000E+00  0.16213315202E+03  0.16213315202E+03  0.00000000000E+00 0.  1.
          2   -1    0    0  501    0  0.00000000000E+00 -0.00000000000E+00 -0.17596458530E+03  0.17596458530E+03  0.00000000000E+00 0. -1.
         25    2    1    2    0    0  0.75838762901E+02  0.59918092132E+02 -0.92794244910E+02  0.18330494168E+03  0.12509290160E+03 0.  0.
          5    1    3    3  502    0 -0.11901829709E+02  0.58826401530E+02 -0.70483266875E+02  0.92669101521E+02  0.41800000000E+01 0. -1.
         -5    1    3    3    0  502  0.87740592610E+02  0.10916906024E+01 -0.22310978035E+02  0.90635840156E+02  0.41800000000E+01 0. -1.
        -11    1    1    2    0    0 -0.57094081519E+02 -0.83025628132E+02  0.73051664344E+02  0.12445695937E+03  0.00000000000E+00 0.  1.
         11    1    1    2    0    0 -0.18744681382E+02  0.23107536000E+02  0.59111472825E+01  0.30335836272E+02  0.00000000000E+00 0. -1.
</event>
<event>
 7    1  0.2601031E-009  0.1270762E+03  0.7561462E-02  0.1231860E+00
          2   -1    0    0  501    0  0.00000000000E+00  0.00000000000E+00  0.31073242141E+03  0.31073242141E+03  0.00000000000E+00 0. -1.
         -2   -1    0    0    0  501 -0.00000000000E+00 -0.00000000000E+00 -0.71488020819E+02  0.71488020819E+02  0.00000000000E+00 0.  1.
         25    2    1    2    0    0 -0.83013200545E+02 -0.31908773947E+02  0.18445845253E+03  0.23996194192E+03  0.12508977391E+03 0.  0.
          5    1    3    3  502    0  0.24418814614E+02 -0.16437619572E+02  0.49386521558E+01  0.30138621891E+02  0.41800000000E+01 0. -1.
         -5    1    3    3    0  502 -0.10743201516E+03 -0.15471154375E+02  0.17951980038E+03  0.20982332003E+03  0.41800000000E+01 0. -1.
        -11    1    1    2    0    0 -0.33207335348E+01  0.29237201142E+02 -0.13284087421E+02  0.32284797978E+02  0.00000000000E+00 0.  1.
         11    1    1    2    0    0  0.86333934080E+02  0.26715728046E+01  0.68070035474E+02  0.10997370233E+03  0.00000000000E+00 0. -1.
</event>
<event>
 7    1  0.3533181E-009  0.1314172E+03  0.7561462E-02  0.1225368E+00
         -1   -1    0    0    0  501 -0.00000000000E+00  0.00000000000E+00  0.35811272588E+02  0.35811272588E+02  0.00000000000E+00 0.  1.
          1   -1    0    0  501    0  0.00000000000E+00 -0.00000000000E+00 -0.74427819087E+03  0.74427819087E+03  0.00000000000E+00 0. -1.
         25    2    1    2    0    0  0.30893162178E+02 -0.92874752512E+02 -0.55077521206E+03  0.57321978719E+03  0.12508990001E+03 0.  0.
          5    1    3    3  502    0  0.57472841158E+02 -0.82553216097E+02 -0.52497048011E+03  0.53453684470E+03  0.41800000000E+01 0.  1.
         -5    1    3    3    0  502 -0.26579678980E+02 -0.10321536416E+02 -0.25804731952E+02  0.38682942491E+02  0.41800000000E+01 0.  1.
        -11    1    1    2    0    0 -0.49045402654E+02  0.12052264647E+02 -0.69028689802E+02  0.85531681969E+02  0.00000000000E+00 0. -1.
         11    1    1    2    0    0  0.18152240476E+02  0.80822487865E+02 -0.88663016416E+02  0.12133799429E+03  0.00000000000E+00 0.  1.
</event>
<event>
 7    1  0.2601031E-009  0.2960876E+03  0.7561462E-02  0.1087213E+00
          1   -1    0    0  501    0  0.00000000000E+00  0.00000000000E+00  0.17988393313E+03  0.17988393313E+03  0.00000000000E+00 0. -1.
         -1   -1    0    0    0  501 -0.00000000000E+00 -0.00000000000E+00 -0.54791010565E+03  0.54791010565E+03  0.00000000000E+00 0.  1.
         25    2    1    2    0    0  0.23382966376E+03  0.17230815170E+03 -0.25561423855E+03  0.40663021923E+03  0.12507232085E+03 0.  0.
          5    1    3    3  502    0  0.27986467258E+01 -0.26568010006E+01 -0.52263553594E+02  0.52572259313E+02  0.41800000000E+01 0.  1.
         -5    1    3    3    0  502  0.23103101703E+03  0.17496495270E+03 -0.20335068495E+03  0.35405795991E+03  0.41800000000E+01 0.  1.
        -11    1    1    2    0    0 -0.22077095305E+03 -0.13903019386E+03 -0.11541584786E+03  0.28528937318E+03  0.00000000000E+00 0.  1.
         11    1    1    2    0    0 -0.13058710710E+02 -0.33277957842E+02  0.30039138875E+01  0.35874446367E+02  0.00000000000E+00 0. -1.
</event>
<event>
 7    1  0.2601031E-009  0.1061415E+03  0.7561462E-02  0.1267887E+00
          2   -1    0    0  501    0  0.00000000000E+00  0.00000000000E+00  0.12475727684E+04  0.12475727684E+04  0.00000000000E+00 0.  1.
         -2   -1    0    0    0  501 -0.00000000000E+00 -0.00000000000E+00 -0.12457430481E+02  0.12457430481E+02  0.00000000000E+00 0. -1.
         25    2    1    2    0    0  0.52752916728E+02  0.20932720560E+01  0.80311059048E+03  0.81450769493E+03  0.12509561361E+03 0.  0.
          5    1    3    3  502    0  0.67449683177E+02  0.37066588723E+02  0.29290221224E+03  0.30287385178E+03  0.41800000000E+01 0. -1.
         -5    1    3    3    0  502 -0.14696766449E+02 -0.34973316667E+02  0.51020837825E+03  0.51163384315E+03  0.41800000000E+01 0. -1.
        -11    1    1    2    0    0 -0.62959489572E+02  0.25265623750E+02  0.37884100081E+03  0.38486718874E+03  0.00000000000E+00 0.  1.
         11    1    1    2    0    0  0.10206572844E+02 -0.27358895806E+02  0.53163746663E+02  0.60655315251E+02  0.00000000000E+00 0. -1.
</event>
<event>
 7    1  0.2601031E-009  0.1953556E+03  0.7561462E-02  0.1153718E+00
          1   -1    0    0  501    0  0.00000000000E+00  0.00000000000E+00  0.26606261892E+03  0.26606261892E+03  0.00000000000E+00 0. -1.
         -1   -1    0    0    0  501 -0.00000000000E+00 -0.00000000000E+00 -0.21119123499E+03  0.21119123499E+03  0.00000000000E+00 0.  1.
         25    2    1    2    0    0 -0.26275574601E+01  0.17370777386E+03 -0.91184386683E+02  0.23269343003E+03  0.12510133991E+03 0.  0.
          5    1    3    3  502    0 -0.46904564549E+02  0.11717915052E+03 -0.13791600638E+02  0.12703807359E+03  0.41800000000E+01 0. -1.
         -5    1    3    3    0  502  0.44277007089E+02  0.56528623343E+02 -0.77392786045E+02  0.10565535645E+03  0.41800000000E+01 0. -1.
        -11    1    1    2    0    0 -0.38450952373E+02 -0.56871124606E+02  0.30302325865E+02  0.75040199261E+02  0.00000000000E+00 0.  1.
         11    1    1    2    0    0  0.41078509833E+02 -0.11683664926E+03  0.11575344475E+03  0.16952022461E+03  0.00000000000E+00 0. -1.
</event>
<event>
 7    1  0.2601031E-009  0.1145710E+03  0.7561462E-02  0.1252332E+00
         -1   -1    0    0    0  501 -0.00000000000E+00  0.00000000000E+00  0.35693642507E+02  0.35693642507E+02  0.00000000000E+00 0.  1.
          1   -1    0    0  501    0  0.00000000000E+00 -0.00000000000E+00 -0.40980523932E+03  0.40980523932E+03  0.00000000000E+00 0. -1.
         25    2    1    2    0    0 -0.43348993744E+02  0.22204449508E+02 -0.19856125879E+03  0.23967970640E+03  0.12509042861E+03 0.  0.
          5    1    3    3  502    0  0.42245063880E+02 -0.39916746554E+01 -0.84307586774E+02  0.94476560460E+02  0.41800000000E+01 0.  1.
         -5    1    3    3    0  502 -0.85594057624E+02  0.26196124163E+02 -0.11425367202E+03  0.14520314594E+03  0.41800000000E+01 0.  1.
        -11    1    1    2    0    0 -0.23117897366E+02  0.71987495980E+01 -0.91753081956E+02  0.94894084235E+02  0.00000000000E+00 0. -1.
         11    1    1    2    0    0  0.66466891110E+02 -0.29403199106E+02 -0.83797256059E+02  0.11092509119E+03  0.00000000000E+00 0.  1.
</event>
<event>
 7    1  0.2601031E-009  0.1164057E+03  0.7561462E-02  0.1249147E+00
          1   -1    0    0  501    0  0.00000000000E+00  0.00000000000E+00  0.58190327610E+02  0.58190327610E+02  0.00000000000E+00 0. -1.
         -1   -1    0    0    0  501 -0.00000000000E+00 -0.00000000000E+00 -0.40258378282E+03  0.40258378282E+03  0.00000000000E+00 0.  1.
         25    2    1    2    0    0  0.33281393843E+02 -0.72486145146E+02 -0.28612354817E+03  0.32229839677E+03  0.12509068442E+03 0.  0.
          5    1    3    3  502    0  0.70197440784E+02 -0.42917445299E+01 -0.14538587831E+03  0.16155688093E+03  0.41800000000E+01 0. -1.
         -5    1    3    3    0  502 -0.36916046941E+02 -0.68194400616E+02 -0.14073766985E+03  0.16074151583E+03  0.41800000000E+01 0. -1.
        -11    1    1    2    0    0  0.51395134278E+01  0.11858444097E+02 -0.65104016787E+02  0.66374470216E+02  0.00000000000E+00 0.  1.
         11    1    1    2    0    0 -0.38420907271E+02  0.60627701049E+02  0.68341097463E+01  0.72101243443E+02  0.00000000000E+00 0. -1.
</event>
<event>
 7    1  0.2601031E-009  0.9842961E+02  0.7561462E-02  0.1283633E+00
          2   -1    0    0  501    0  0.00000000000E+00  0.00000000000E+00  0.79161703276E+02  0.79161703276E+02  0.00000000000E+00 0. -1.
         -2   -1    0    0    0  501 -0.00000000000E+00 -0.00000000000E+00 -0.19777874673E+03  0.19777874673E+03  0.00000000000E+00 0.  1.
         25    2    1    2    0    0  0.49281003746E+02 -0.38033010741E+02 -0.56159078206E+02  0.15058647112E+03  0.12508923208E+03 0.  0.
          5    1    3    3  502    0  0.79130783593E+01 -0.48431716441E+02  0.27629727285E+02  0.56472313539E+02  0.41800000000E+01 0.  1.
         -5    1    3    3    0  502  0.41367925386E+02  0.10398705701E+02 -0.83788805491E+02  0.94114157578E+02  0.41800000000E+01 0.  1.
        -11    1    1    2    0    0 -0.41284388282E+02  0.64788124740E+02 -0.61508271493E+02  0.98413257670E+02  0.00000000000E+00 0. -1.
         11    1    1    2    0    0 -0.79966154640E+01 -0.26755113999E+02 -0.94969375365E+00  0.27940721218E+02  0.00000000000E+00 0.  1.
</event>
<event>
 7    1  0.2601031E-009  0.8052993E+02  0.7561462E-02  0.1327554E+00
          1   -1    0    0  501    0  0.00000000000E+00  0.00000000000E+00  0.15125125340E+03  0.15125125340E+03  0.00000000000E+00 0. -1.
         -1   -1    0    0    0  501 -0.00000000000E+00 -0.00000000000E+00 -0.66487684479E+02  0.66487684479E+02  0.00000000000E+00 0.  1.
         25    2    1    2    0    0  0.60586010594E+01 -0.10174358846E+02  0.62213302089E+02  0.14020458299E+03  0.12508639378E+03 0.  0.
          5    1    3    3  502    0  0.59271870487E+02  0.17412561103E+02  0.48304272404E+02  0.78531057854E+02  0.41800000000E+01 0. -1.
         -5    1    3    3    0  502 -0.53213269428E+02 -0.27586919948E+02  0.13909029685E+02  0.61673525132E+02  0.41800000000E+01 0. -1.
        -11    1    1    2    0    0 -0.83645203811E+01 -0.13168719420E+02  0.43419948574E+02  0.46137536850E+02  0.00000000000E+00 0. -1.
         11    1    1    2    0    0  0.23059193217E+01  0.23343078265E+02 -0.20869681746E+02  0.31396818039E+02  0.00000000000E+00 0.  1.
</event>
<event>
 7    1  0.2601031E-009  0.1327613E+03  0.7561462E-02  0.1223415E+00
         -3   -1    0    0    0  501 -0.00000000000E+00  0.00000000000E+00  0.48795240174E+02  0.48795240174E+02  0.00000000000E+00 0.  1.
          3   -1    0    0  501    0  0.00000000000E+00 -0.00000000000E+00 -0.47512024669E+03  0.47512024669E+03  0.00000000000E+00 0. -1.
         25    2    1    2    0    0 -0.96128014837E+02  0.46192892867E+02 -0.21216955498E+03  0.26840040219E+03  0.12509387374E+03 0.  0.
          5    1    3    3  502    0  0.22062235217E+02  0.19617015202E+02 -0.78528569598E+01  0.30833573757E+02  0.41800000000E+01 0.  1.
         -5    1    3    3    0  502 -0.11819025005E+03  0.26575877665E+02 -0.20431669802E+03  0.23756682843E+03  0.41800000000E+01 0.  1.
        -11    1    1    2    0    0  0.25992567294E+02 -0.34803091146E+02 -0.18239310096E+02  0.47112006332E+02  0.00000000000E+00 0.  1.
         11    1    1    2    0    0  0.70135447543E+02 -0.11389801721E+02 -0.19591614144E+03  0.20840307834E+03  0.00000000000E+00 0. -1.
</event>
<event>
 7    1  0.2601031E-009  0.9951509E+02  0.7561462E-02  0.1281319E+00
          1   -1    0    0  501    0  0.00000000000E+00  0.00000000000E+00  0.33224670831E+03  0.33224670831E+03  0.00000000000E+00 0. -1.
         -1   -1    0    0    0  501 -0.00000000000E+00 -0.00000000000E+00 -0.59380797906E+02  0.59380797906E+02  0.00000000000E+00 0.  1.
         25    2    1    2    0    0  0.44386739453E+02  0.37309781123E+02  0.23420735030E+03  0.27178043588E+03  0.12509724212E+03 0.  0.
          5    1    3    3  502    0  0.49952641784E+02 -0.30877500913E+02  0.57710498856E+02  0.82441861709E+02  0.41800000000E+01 0. -1.
         -5    1    3    3    0  502 -0.55659023317E+01  0.68187282036E+02  0.17649685144E+03  0.18933857417E+03  0.41800000000E+01 0. -1.
        -11    1    1    2    0    0 -0.27947950210E+02 -0.45384513183E+02 -0.21115713642E+02  0.57329881566E+02  0.00000000000E+00 0.  1.
         11    1    1    2    0    0 -0.16438789242E+02  0.80747320599E+01  0.59774273750E+02  0.62517188772E+02  0.00000000000E+00 0. -1.
</event>
<event>
 7    1  0.2601031E-009  0.1282032E+03  0.7561462E-02  0.1230146E+00
         -2   -1    0    0    0  501 -0.00000000000E+00  0.00000000000E+00  0.35482853057E+02  0.35482853057E+02  0.00000000000E+00 0. -1.
          2   -1    0    0  501    0  0.00000000000E+00 -0.00000000000E+00 -0.77653227120E+03  0.77653227120E+03  0.00000000000E+00 0.  1.
         25    2    1    2    0    0 -0.90645598982E+02  0.32205854019E+02 -0.19347908779E+03  0.24967070198E+03  0.12508980921E+03 0.  0.
          5    1    3    3  502    0 -0.43104730207E+02  0.59992677842E+02 -0.17730898911E+03  0.19212779387E+03  0.41800000000E+01 0. -1.
         -5    1    3    3    0  502 -0.47540868774E+02 -0.27786823823E+02 -0.16170098682E+02  0.57542908107E+02  0.41800000000E+01 0. -1.
        -11    1    1    2    0    0  0.51446046107E+02  0.25509223748E+02 -0.21513114886E+03  0.22266303548E+03  0.00000000000E+00 0.  1.
         11    1    1    2    0    0  0.39199552875E+02 -0.57715077767E+02 -0.33243918149E+03  0.33968138680E+03  0.00000000000E+00 0. -1.
</event>
<event>
 7    1  0.2601031E-009  0.1592304E+03  0.7561462E-02  0.1189568E+00
         -1   -1    0    0    0  501 -0.00000000000E+00  0.00000000000E+00  0.41272298544E+02  0.41272298544E+02  0.00000000000E+00 0.  1.
          1   -1    0    0  501    0  0.00000000000E+00 -0.00000000000E+00 -0.68939270161E+03  0.68939270161E+03  0.00000000000E+00 0. -1.
         25    2    1    2    0    0 -0.11277275336E+03 -0.37885471823E+02 -0.23703906024E+03  0.29323654228E+03  0.12508857172E+03 0.  0.
          5    1    3    3  502    0  0.14970854765E+02 -0.41129609374E+02 -0.73560181526E+02  0.85699147988E+02  0.41800000000E+01 0. -1.
         -5    1    3    3    0  502 -0.12774360812E+03  0.32441375514E+01 -0.16347887871E+03  0.20753739429E+03  0.41800000000E+01 0. -1.
        -11    1    1    2    0    0  0.54579265596E+02 -0.25800123136E+02 -0.21269477314E+03  0.22109637968E+03  0.00000000000E+00 0. -1.
         11    1    1    2    0    0  0.58193487761E+02  0.63685594959E+02 -0.19838656968E+03  0.21633207819E+03  0.00000000000E+00 0.  1.
</event>
<event>
 7    1  0.2601031E-009  0.1418958E+03  0.7561462E-02  0.1210801E+00
         -1   -1    0    0    0  501 -0.00000000000E+00  0.00000000000E+00  0.56450236457E+03  0.56450236457E+03  0.00000000000E+00 0.  1.
          1   -1    0    0  501    0  0.00000000000E+00 -0.00000000000E+00 -0.44952599465E+02  0.44952599465E+02  0.00000000000E+00 0. -1.
         25    2    1    2    0    0 -0.41137861230E+02 -0.88240944335E+02  0.39772304428E+03  0.42814627038E+03  0.12508725359E+03 0.  0.
          5    1    3    3  502    0  0.29042201377E+02 -0.82355633680E+02  0.20250703067E+03  0.22057304851E+03  0.41800000000E+01 0.  1.
         -5    1    3    3    0  502 -0.70180062607E+02 -0.58853106551E+01  0.19521601361E+03  0.20757322187E+03  0.41800000000E+01 0.  1.
        -11    1    1    2    0    0  0.22676121586E+02 -0.10765477712E+02  0.54954847944E+02  0.60416366269E+02  0.00000000000E+00 0.  1.
         11    1    1    2    0    0  0.18461739644E+02  0.99006422046E+02  0.66871872886E+02  0.12089232738E+03  0.00000000000E+00 0. -1.
</event>
<event>
 7    1  0.2601031E-009  0.1734089E+03  0.7561462E-02  0.1174339E+00
          1   -1    0    0  501    0  0.00000000000E+00  0.00000000000E+00  0.56860917631E+03  0.56860917631E+03  0.00000000000E+00 0. -1.
         -1   -1    0    0    0  501 -0.00000000000E+00 -0.00000000000E+00 -0.64371806567E+02  0.64371806567E+02  0.00000000000E+00 0.  1.
         25    2    1    2    0    0 -0.38528468811E+02 -0.15304571702E+03  0.30192540949E+03  0.36292390683E+03  0.12508946735E+03 0.  0.
          5    1    3    3  502    0 -0.69180053290E+02 -0.10536442723E+03  0.26935067987E+03  0.29741352263E+03  0.41800000000E+01 0. -1.
         -5    1    3    3    0  502  0.30651584479E+02 -0.47681289793E+02  0.32574729624E+02  0.65510384196E+02  0.41800000000E+01 0. -1.
        -11    1    1    2    0    0 -0.92336742841E+01  0.13365843594E+02 -0.36557895498E+01  0.16651465791E+02  0.00000000000E+00 0. -1.
         11    1    1    2    0    0  0.47762143095E+02  0.13967987343E+03  0.20596774980E+03  0.25340561026E+03  0.00000000000E+00 0.  1.
</event>
<event>
 7    1  0.2601031E-009  0.1549786E+03  0.7561462E-02  0.1194485E+00
         -2   -1    0    0    0  501 -0.00000000000E+00  0.00000000000E+00  0.10093156339E+03  0.10093156339E+03  0.00000000000E+00 0.  1.
          2   -1    0    0  501    0  0.00000000000E+00 -0.00000000000E+00 -0.33558728107E+03  0.33558728107E+03  0.00000000000E+00 0. -1.
         25    2    1    2    0    0  0.44528188044E+02  0.14175734394E+03 -0.13187799862E+03  0.23476936277E+03  0.12508774153E+03 0.  0.
          5    1    3    3  502    0  0.29612947201E+01  0.65202754961E+02  0.12026843334E+02  0.66500269785E+02  0.41800000000E+01 0. -1.
         -5    1    3    3    0  502  0.41566893324E+02  0.76554588982E+02 -0.14390484196E+03  0.16826909298E+03  0.41800000000E+01 0. -1.
        -11    1    1    2    0    0 -0.52076919955E+02 -0.82199568088E+02 -0.19750896866E+02  0.99291855219E+02  0.00000000000E+00 0.  1.
         11    1    1    2    0    0  0.75487319103E+01 -0.59557775855E+02 -0.83026822187E+02  0.10245762646E+03  0.00000000000E+00 0. -1.
</event>
<event>
 7    1  0.2930292E-009  0.1351000E+03  0.7561462E-02  0.1220079E+00
          1   -1    0    0  501    0  0.00000000000E+00  0.00000000000E+00  0.16246307009E+04  0.16246307009E+04  0.00000000000E+00 0. -1.
         -1   -1    0    0    0  501 -0.00000000000E+00 -0.00000000000E+00 -0.14414701541E+02  0.14414701541E+02  0.00000000000E+00 0.  1.
         25    2    1    2    0    0 -0.81583769806E+02  0.30511195908E+02  0.12040848203E+04  0.12136934176E+04  0.12507842717E+03 0.  0.
          5    1    3    3  502    0 -0.10107912233E+03 -0.76736157203E+01  0.99867802070E+03  0.10038182778E+04  0.41800000000E+01 0. -1.
         -5    1    3    3    0  502  0.19495352527E+02  0.38184811628E+02  0.20540679956E+03  0.20987513982E+03  0.41800000000E+01 0. -1.
        -11    1    1    2    0    0  0.70315806589E+02  0.20645459924E+02  0.21359347551E+03  0.22581567805E+03  0.00000000000E+00 0. -1.
         11    1    1    2    0    0  0.11267963217E+02 -0.51156655831E+02  0.19253770363E+03  0.19953630685E+03  0.00000000000E+00 0.  1.
</event>
<event>
 7    1  0.2601031E-009  0.1342946E+03  0.7561462E-02  0.1221219E+00
          1   -1    0    0  501    0  0.00000000000E+00  0.00000000000E+00  0.74047216034E+02  0.74047216034E+02  0.00000000000E+00 0. -1.
         -1   -1    0    0    0  501 -0.00000000000E+00 -0.00000000000E+00 -0.36319421296E+03  0.36319421296E+03  0.00000000000E+00 0.  1.
         25    2    1    2    0    0 -0.31977145553E+02  0.10596648256E+03 -0.83968921935E+02  0.18694901903E+03  0.12509085739E+03 0.  0.
          5    1    3    3  502    0  0.22194653177E+02 -0.87008580015E+01 -0.50066485892E+02  0.55609648167E+02  0.41800000000E+01 0. -1.
         -5    1    3    3    0  502 -0.54171798730E+02  0.11466734057E+03 -0.33902436042E+02  0.13133937087E+03  0.41800000000E+01 0. -1.
        -11    1    1    2    0    0  0.26165222947E+02 -0.24565994454E+02 -0.14371365354E+03  0.14812738163E+03  0.00000000000E+00 0.  1.
         11    1    1    2    0    0  0.58119226055E+01 -0.81400488111E+02 -0.61464421451E+02  0.10216502833E+03  0.00000000000E+00 0. -1.
</event>
<event>
 7    1  0.2601031E-009  0.1013995E+03  0.7561462E-02  0.1277380E+00
          2   -1    0    0  501    0  0.00000000000E+00  0.00000000000E+00  0.14989531949E+04  0.14989531949E+04  0.00000000000E+00 0. -1.
         -2   -1    0    0    0  501 -0.00000000000E+00 -0.00000000000E+00 -0.15600368448E+02  0.15600368448E+02  0.00000000000E+00 0.  1.
         25    2    1    2    0    0 -0.50635376920E+02  0.57272509758E+02  0.11732736439E+04  0.11823969003E+04  0.12508918720E+03 0.  0.
          5    1    3    3  502    0 -0.20337274727E+02  0.50911215179E+02  0.17069284292E+03  0.17932951681E+03  0.41800000000E+01 0. -1.
         -5    1    3    3    0  502 -0.30298102192E+02  0.63612945795E+01  0.10025808009E+04  0.10030673835E+04  0.41800000000E+01 0. -1.
        -11    1    1    2    0    0 -0.12621708798E+02  0.15608319472E+02  0.31662789108E+02  0.37489456969E+02  0.00000000000E+00 0.  1.
         11    1    1    2    0    0  0.63257085718E+02 -0.72880829230E+02  0.27841639347E+03  0.29466720604E+03  0.00000000000E+00 0. -1.
</event>
<event>
 7    1  0.2601031E-009  0.1668279E+03  0.7561462E-02  0.1181197E+00
         -2   -1    0    0    0  501 -0.00000000000E+00  0.00000000000E+00  0.13937591325E+03  0.13937591325E+03  0.00000000000E+00 0.  1.
          2   -1    0    0  501    0  0.00000000000E+00 -0.00000000000E+00 -0.21343469616E+03  0.21343469616E+03  0.00000000000E+00 0. -1.
         25    2    1    2    0    0  0.12164591763E+03 -0.45500095658E+02 -0.69971259112E+02  0.19341769140E+03  0.12508572366E+03 0.  0.
          5    1    3    3  502    0 -0.44100139828E+00 -0.57249764643E+02 -0.18172653531E+02  0.60211691309E+02  0.41800000000E+01 0.  1.
         -5    1    3    3    0  502  0.12208691903E+03  0.11749668985E+02 -0.51798605582E+02  0.13320600009E+03  0.41800000000E+01 0.  1.
        -11    1    1    2    0    0 -0.68343041469E+02  0.67322497588E+02  0.18182157267E+02  0.97640569650E+02  0.00000000000E+00 0.  1.
         11    1    1    2    0    0 -0.53302876162E+02 -0.21822401930E+02 -0.22269681071E+02  0.61752348362E+02  0.00000000000E+00 0. -1.
</event>
<event>
 7    1  0.2601031E-009  0.1176186E+03  0.7561462E-02  0.1247078E+00
         -3   -1    0    0    0  501 -0.00000000000E+00  0.00000000000E+00  0.47117900011E+02  0.47117900011E+02  0.00000000000E+00 0.  1.
          3   -1    0    0  501    0  0.00000000000E+00 -0.00000000000E+00 -0.32349654243E+03  0.32349654243E+03  0.00000000000E+00 0. -1.
         25    2    1    2    0    0 -0.36600711135E+02 -0.45316008953E+02 -0.17163356191E+03  0.22022403964E+03  0.12508954928E+03 0.  0.
          5    1    3    3  502    0 -0.70682085411E+02  0.47424513885E+01 -0.12475798866E+03  0.14352865978E+03  0.41800000000E+01 0.  1.
         -5    1    3    3    0  502  0.34081374277E+02 -0.50058460342E+02 -0.46875573246E+02  0.76695379858E+02  0.41800000000E+01 0.  1.
        -11    1    1    2    0    0  0.53983514247E+02 -0.11115144023E+01 -0.75537089761E+02  0.92850994633E+02  0.00000000000E+00 0. -1.
         11    1    1    2    0    0 -0.17382803112E+02  0.46427523356E+02 -0.29207990749E+02  0.57539408170E+02  0.00000000000E+00 0.  1.
</event>
<event>
 7    1  0.2601031E-009  0.1066595E+03  0.7561462E-02  0.1266884E+00
          1   -1    0    0  501    0  0.00000000000E+00  0.00000000000E+00  0.13025234897E+03  0.13025234897E+03  0.00000000000E+00 0. -1.
         -1   -1    0    0    0  501 -0.00000000000E+00 -0.00000000000E+00 -0.11669840344E+03  0.11669840344E+03  0.00000000000E+00 0.  1.
         25    2    1    2    0    0 -0.50379044186E+02  0.12305898255E+01 -0.26689666573E+02  0.13747304504E+03  0.12508771868E+03 0.  0.
          5    1    3    3  502    0 -0.66073558880E+01  0.47448633960E+02 -0.50171178677E+02  0.69495680343E+02  0.41800000000E+01 0. -1.
         -5    1    3    3    0  502 -0.43771688298E+02 -0.46218044135E+02  0.23481512105E+02  0.67977364694E+02  0.41800000000E+01 0. -1.
        -11    1    1    2    0    0  0.71978859969E+02  0.16084720235E+02  0.25007172412E+02  0.77878322911E+02  0.00000000000E+00 0. -1.
         11    1    1    2    0    0 -0.21599815783E+02 -0.17315310061E+02  0.15236439687E+02  0.31599384467E+02  0.00000000000E+00 0.  1.
</event>
<event>
 7    1  0.2601031E-009  0.7817354E+02  0.7561462E-02  0.1334316E+00
         -2   -1    0    0    0  501 -0.00000000000E+00  0.00000000000E+00  0.11240012327E+03  0.11240012327E+03  0.00000000000E+00 0.  1.
          2   -1    0    0  501    0  0.00000000000E+00 -0.00000000000E+00 -0.17320442183E+03  0.17320442183E+03  0.00000000000E+00 0. -1.
         25    2    1    2    0    0  0.26507564839E+02 -0.28262664118E+02  0.48374224921E+02  0.13960522527E+03  0.12509246224E+03 0.  0.
          5    1    3    3  502    0 -0.33000339329E+02 -0.13020513290E+02  0.66443861010E+02  0.75437492191E+02  0.41800000000E+01 0. -1.
         -5    1    3    3    0  502  0.59507904168E+02 -0.15242150829E+02 -0.18069636089E+02  0.64167733081E+02  0.41800000000E+01 0. -1.
        -11    1    1    2    0    0 -0.31737251056E+01 -0.12058115271E+02  0.11300198865E+02  0.16827512274E+02  0.00000000000E+00 0.  1.
         11    1    1    2    0    0 -0.23333839734E+02  0.40320779389E+02 -0.12047872235E+03  0.12917180755E+03  0.00000000000E+00 0. -1.
</event>
<event>
 7    1  0.2601031E-009  0.9145095E+02  0.7561462E-02  0.1299376E+00
          1   -1    0    0  501    0  0.00000000000E+00  0.00000000000E+00  0.21905708775E+03  0.21905708775E+03  0.00000000000E+00 0. -1.
         -1   -1    0    0    0  501 -0.00000000000E+00 -0.00000000000E+00 -0.91726475816E+02  0.91726475816E+02  0.00000000000E+00 0.  1.
         25    2    1    2    0    0  0.55378587627E+02 -0.12294208624E+02 -0.17072542342E+01  0.13737050491E+03  0.12509918213E+03 0.  0.
          5    1    3    3  502    0  0.24728364371E+02  0.23821943764E+02  0.53999255887E+02  0.64127755656E+02  0.41800000000E+01 0.  1.
         -5    1    3    3    0  502  0.30650223256E+02 -0.36116152388E+02 -0.55706510121E+02  0.73242749258E+02  0.41800000000E+01 0.  1.
        -11    1    1    2    0    0  0.16019321249E+02  0.23547517939E+02  0.36886415639E+01  0.28717770299E+02  0.00000000000E+00 0.  1.
         11    1    1    2    0    0 -0.71397908876E+02 -0.11253309315E+02  0.12534922460E+03  0.14469528835E+03  0.00000000000E+00 0. -1.
</event>
<event>
 7    1  0.2601031E-009  0.1577883E+03  0.7561462E-02  0.1191217E+00
         -1   -1    0    0    0  501 -0.00000000000E+00  0.00000000000E+00  0.23184725087E+03  0.23184725087E+03  0.00000000000E+00 0.  1.
          1   -1    0    0  501    0  0.00000000000E+00 -0.00000000000E+00 -0.16029911662E+03  0.16029911662E+03  0.00000000000E+00 0. -1.
         25    2    1    2    0    0 -0.11710841257E+03  0.10062556143E+03  0.77115261612E+02  0.21315175214E+03  0.12508805681E+03 0.  0.
          5    1    3    3  502    0 -0.72410586421E+02  0.71227591179E+02 -0.18671841200E+02  0.10335750009E+03  0.41800000000E+01 0.  1.
         -5    1    3    3    0  502 -0.44697826153E+02  0.29397970251E+02  0.95787102812E+02  0.10979425205E+03  0.41800000000E+01 0.  1.
        -11    1    1    2    0    0  0.32705766399E+02 -0.56366570170E+01 -0.35343294600E+02  0.48482858117E+02  0.00000000000E+00 0. -1.
         11    1    1    2    0    0  0.84402646175E+02 -0.94988904413E+02  0.29776167235E+02  0.13051175724E+03  0.00000000000E+00 0.  1.
</event>
<event>
 7    1  0.2601031E-009  0.8346840E+02  0.7561462E-02  0.1319487E+00
          1   -1    0    0  501    0  0.00000000000E+00  0.00000000000E+00  0.52261702990E+02  0.52261702990E+02  0.00000000000E+00 0. -1.
         -1   -1    0    0    0  501 -0.00000000000E+00 -0.00000000000E+00 -0.45149201822E+03  0.45149201822E+03  0.00000000000E+00 0.  1.
         25    2    1    2    0    0  0.53987958764E+01  0.62115973700E+02 -0.37380387944E+03  0.39908033193E+03  0.12509288493E+03 0.  0.
          5    1    3    3  502    0  0.32842688427E+02  0.84033047953E+00 -0.28873097942E+03  0.29062415456E+03  0.41800000000E+01 0.  1.
         -5    1    3    3    0  502 -0.27443892551E+02  0.61275643221E+02 -0.85072900018E+02  0.10845617736E+03  0.41800000000E+01 0.  1.
        -11    1    1    2    0    0  0.82942464959E+01 -0.11948147182E+02  0.27101567053E+02  0.30757888138E+02  0.00000000000E+00 0. -1.
         11    1    1    2    0    0 -0.13693042372E+02 -0.50167826518E+02 -0.52528002843E+02  0.73915501146E+02  0.00000000000E+00 0.  1.
</event>
<event>
 7    1  0.2601031E-009  0.1710355E+03  0.7561462E-02  0.1176772E+00
          3   -1    0    0  501    0  0.00000000000E+00  0.00000000000E+00  0.75422336544E+02  0.75422336544E+02  0.00000000000E+00 0. -1.
         -3   -1    0    0    0  501 -0.00000000000E+00 -0.00000000000E+00 -0.52827031120E+03  0.52827031120E+03  0.00000000000E+00 0.  1.
         25    2    1    2    0    0  0.11134755582E+03  0.79035696725E+02 -0.38169954569E+03  0.42424898578E+03  0.12509092377E+03 0.  0.
          5    1    3    3  502    0  0.69356028797E+02 -0.18651534168E+02 -0.10055796643E+03  0.12364269275E+03  0.41800000000E+01 0.  1.
         -5    1    3    3    0  502  0.41991527027E+02  0.97687230894E+02 -0.28114157926E+03  0.30060629303E+03  0.41800000000E+01 0.  1.
        -11    1    1    2    0    0 -0.84675800735E+02 -0.99094315924E+02 -0.64439787126E+02  0.14540344165E+03  0.00000000000E+00 0. -1.
         11    1    1    2    0    0 -0.26671755089E+02  0.20058619199E+02 -0.67086418397E+01  0.34040220314E+02  0.00000000000E+00 0.  1.
</event>
<event>
 7    1  0.2601031E-009  0.9802085E+02  0.7561462E-02  0.1284514E+00
          2   -1    0    0  501    0  0.00000000000E+00  0.00000000000E+00  0.27076258166E+02  0.27076258166E+02  0.00000000000E+00 0.  1.
         -2   -1    0    0    0  501 -0.00000000000E+00 -0.00000000000E+00 -0.65928601158E+03  0.65928601158E+03  0.00000000000E+00 0. -1.
         25    2    1    2    0    0 -0.21292965948E+02 -0.51890887473E+02 -0.21154169875E+03  0.25207834170E+03  0.12509014928E+03 0.  0.
          5    1    3    3  502    0 -0.49496006631E+02 -0.41417464969E+02 -0.21205699338E+03  0.22170002688E+03  0.41800000000E+01 0. -1.
         -5    1    3    3    0  502  0.28203040683E+02 -0.10473422504E+02  0.51529463849E+00  0.30378314820E+02  0.41800000000E+01 0. -1.
        -11    1    1    2    0    0 -0.21583204639E+02 -0.11506454716E+02 -0.48391030975E+02  0.54221076174E+02  0.00000000000E+00 0.  1.
         11    1    1    2    0    0  0.42876170587E+02  0.63397342189E+02 -0.37227702369E+03  0.38006285187E+03  0.00000000000E+00 0. -1.
</event>
<event>
 7    1  0.2601031E-009  0.9508273E+02  0.7561462E-02  0.1290990E+00
         -2   -1    0    0    0  501 -0.00000000000E+00  0.00000000000E+00  0.37404396555E+03  0.37404396555E+03  0.00000000000E+00 0.  1.
          2   -1    0    0  501    0  0.00000000000E+00 -0.00000000000E+00 -0.52261740476E+02  0.52261740476E+02  0.00000000000E+00 0. -1.
         25    2    1    2    0    0  0.64512273233E+02  0.36793256425E+02  0.25045053339E+03  0.28963647221E+03  0.12509292241E+03 0.  0.
          5    1    3    3  502    0  0.58246173702E+02  0.21005892575E+02  0.30784310612E+02  0.69274890499E+02  0.41800000000E+01 0.  1.
         -5    1    3    3    0  502  0.62660995308E+01  0.15787363850E+02  0.21966622278E+03  0.22036158171E+03  0.41800000000E+01 0.  1.
        -11    1    1    2    0    0  0.75527970646E+01  0.18368468167E+02  0.32213929531E+02  0.37844188750E+02  0.00000000000E+00 0.  1.
         11    1    1    2    0    0 -0.72065070298E+02 -0.55161724592E+02  0.39117762143E+02  0.98825045065E+02  0.00000000000E+00 0. -1.
</event>
<event>
 7    1  0.2601031E-009  0.1307729E+03  0.7561462E-02  0.1226313E+00
         -2   -1    0    0    0  501 -0.00000000000E+00  0.00000000000E+00  0.26198067844E+02  0.26198067844E+02  0.00000000000E+00 0.  1.
          2   -1    0    0  501    0  0.00000000000E+00 -0.00000000000E+00 -0.78433666508E+03  0.78433666508E+03  0.00000000000E+00 0. -1.
         25    2    1    2    0    0 -0.13301125146E+02 -0.91300016057E+02 -0.45754268355E+03  0.48322595493E+03  0.12509757545E+03 0.  0.
          5    1    3    3  502    0 -0.59420444596E+02 -0.49717660946E+02 -0.35412032584E+03  0.36252077543E+03  0.41800000000E+01 0. -1.
         -5    1    3    3    0  502  0.46119319450E+02 -0.41582355111E+02 -0.10342235771E+03  0.12070517950E+03  0.41800000000E+01 0. -1.
        -11    1    1    2    0    0  0.41898373872E+02  0.23280005285E+02 -0.17688338323E+03  0.18326255385E+03  0.00000000000E+00 0.  1.
         11    1    1    2    0    0 -0.28597248726E+02  0.68020010771E+02 -0.12371253046E+03  0.14404622415E+03  0.00000000000E+00 0. -1.
</event>
<event>
 7    1  0.2601031E-009  0.1248648E+03  0.7561462E-02  0.1235281E+00
          1   -1    0    0  501    0  0.00000000000E+00  0.00000000000E+00  0.11345266141E+04  0.11345266141E+04  0.00000000000E+00 0. -1.
         -1   -1    0    0    0  501 -0.00000000000E+00 -0.00000000000E+00 -0.13913553434E+02  0.13913553434E+02  0.00000000000E+00 0.  1.
         25    2    1    2    0    0  0.66468554886E+02  0.49531059975E+01  0.62175822847E+03  0.63771093240E+03  0.12509730846E+03 0.  0.
          5    1    3    3  502    0  0.52744636603E+02 -0.56339873817E+02  0.29586009539E+03  0.30578889207E+03  0.41800000000E+01 0. -1.
         -5    1    3    3    0  502  0.13723918283E+02  0.61292979815E+02  0.32589813309E+03  0.33192204033E+03  0.41800000000E+01 0. -1.
        -11    1    1    2    0    0 -0.43993635969E+02  0.39854882995E+02  0.27062692938E+03  0.27706097994E+03  0.00000000000E+00 0. -1.
         11    1    1    2    0    0 -0.22474918916E+02 -0.44807988992E+02  0.22822790280E+03  0.23366825517E+03  0.00000000000E+00 0.  1.
</event>
<event>
 7    1  0.2601031E-009  0.1455081E+03  0.7561462E-02  0.1206104E+00
          2   -1    0    0  501    0  0.00000000000E+00  0.00000000000E+00  0.63679657521E+03  0.63679657521E+03  0.00000000000E+00 0. -1.
         -2   -1    0    0    0  501 -0.00000000000E+00 -0.00000000000E+00 -0.45489002228E+02  0.45489002228E+02  0.00000000000E+00 0.  1.
         25    2    1    2    0    0 -0.15727226582E+02 -0.12519937769E+03  0.31803971748E+03  0.36430610719E+03  0.12508975984E+03 0.  0.
          5    1    3    3  502    0 -0.11104517065E+02  0.17764175093E+02  0.79560315438E+01  0.22795768334E+02  0.41800000000E+01 0.  1.
         -5    1    3    3    0  502 -0.46227095165E+01 -0.14296355278E+03  0.31008368593E+03  0.34151033886E+03  0.41800000000E+01 0.  1.
        -11    1    1    2    0    0  0.14383459690E+02  0.76725240191E+02  0.25412638777E+03  0.26584557050E+03  0.00000000000E+00 0. -1.
         11    1    1    2    0    0  0.13437668917E+01  0.48474137495E+02  0.19141467737E+02  0.52133899744E+02  0.00000000000E+00 0.  1.
</event>
<event>
 7    1  0.2601031E-009  0.2396174E+03  0.7561462E-02  0.1120048E+00
          1   -1    0    0  501    0  0.00000000000E+00  0.00000000000E+00  0.20286330317E+03  0.20286330317E+03  0.00000000000E+00 0. -1.
         -1   -1    0    0    0  501 -0.00000000000E+00 -0.00000000000E+00 -0.29597980643E+03  0.29597980643E+03  0.00000000000E+00 0.  1.
         25    2    1    2    0    0  0.27565046376E+02  0.21375417842E+03 -0.90291467501E+02  0.26504786404E+03  0.12508853086E+03 0.  0.
          5    1    3    3  502    0  0.74501464832E+02  0.10762578465E+03 -0.64999078937E+02  0.14620578117E+03  0.41800000000E+01 0.  1.
         -5    1    3    3    0  502 -0.46936418456E+02  0.10612839377E+03 -0.25292388564E+02  0.11884208287E+03  0.41800000000E+01 0.  1.
        -11    1    1    2    0    0 -0.52315787169E+01 -0.20931713466E+03 -0.10821550547E+02  0.20966196182E+03  0.00000000000E+00 0.  1.
         11    1    1    2    0    0 -0.22333467659E+02 -0.44370437584E+01  0.79965147883E+01  0.24133283733E+02  0.00000000000E+00 0. -1.
</event>
<event>
 7    1  0.2601031E-009  0.1441625E+03  0.7561462E-02  0.1207835E+00
         -1   -1    0    0    0  501 -0.00000000000E+00  0.00000000000E+00  0.14294619533E+03  0.14294619533E+03  0.00000000000E+00 0.  1.
          1   -1    0    0  501    0  0.00000000000E+00 -0.00000000000E+00 -0.15135177677E+03  0.15135177677E+03  0.00000000000E+00 0. -1.
         25    2    1    2    0    0 -0.90315557210E+02  0.36219091953E+02 -0.18314007889E+02  0.15953361860E+03  0.12508736980E+03 0.  0.
          5    1    3    3  502    0 -0.11356998255E+03  0.12015539583E+01 -0.41225847965E+00  0.11365397936E+03  0.41800000000E+01 0.  1.
         -5    1    3    3    0  502  0.23254425336E+02  0.35017537995E+02 -0.17901749409E+02  0.45879639241E+02  0.41800000000E+01 0.  1.
        -11    1    1    2    0    0  0.47567140739E+02 -0.65254968587E+02 -0.52147680255E+01  0.80919945680E+02  0.00000000000E+00 0. -1.
         11    1    1    2    0    0  0.42748416471E+02  0.29035876634E+02  0.15123194473E+02  0.53844407822E+02  0.00000000000E+00 0.  1.
</event>
<event>
 7    1  0.2601031E-009  0.1384168E+03  0.7561462E-02  0.1215475E+00
         -2   -1    0    0    0  501 -0.00000000000E+00  0.00000000000E+00  0.77714789040E+02  0.77714789040E+02  0.00000000000E+00 0.  1.
          2   -1    0    0  501    0  0.00000000000E+00 -0.00000000000E+00 -0.29279122522E+03  0.29279122522E+03  0.00000000000E+00 0. -1.
         25    2    1    2    0    0  0.40030793689E+02  0.95045033298E+02 -0.13787608300E+03  0.21282504573E+03  0.12509461631E+03 0.  0.
          5    1    3    3  502    0  0.20587755168E+02  0.12400137018E+03 -0.11803147110E+03  0.17247926264E+03  0.41800000000E+01 0.  1.
         -5    1    3    3    0  502  0.19443038520E+02 -0.28956336880E+02 -0.19844611897E+02  0.40345783097E+02  0.41800000000E+01 0.  1.
        -11    1    1    2    0    0 -0.22765678690E+02 -0.38091689458E+01  0.14434604149E+02  0.27223954364E+02  0.00000000000E+00 0.  1.
         11    1    1    2    0    0 -0.17265114998E+02 -0.91235864352E+02 -0.91634957333E+02  0.13045701417E+03  0.00000000000E+00 0. -1.
</event>
<event>
 7    1  0.2601031E-009  0.1071350E+03  0.7561462E-02  0.1265969E+00
          1   -1    0    0  501    0  0.00000000000E+00  0.00000000000E+00  0.76605265977E+02  0.76605265977E+02  0.00000000000E+00 0. -1.
         -1   -1    0    0    0  501 -0.00000000000E+00 -0.00000000000E+00 -0.26594105113E+03  0.26594105113E+03  0.00000000000E+00 0.  1.
         25    2    1    2    0    0 -0.47763115102E+02 -0.29498980846E+02 -0.34196239247E+02  0.14130879342E+03  0.12508911737E+03 0.  0.
          5    1    3    3  502    0  0.21066102961E+02 -0.41656129603E+02  0.21765039469E+02  0.51674008656E+02  0.41800000000E+01 0. -1.
         -5    1    3    3    0  502 -0.68829218063E+02  0.12157148758E+02 -0.55961278715E+02  0.89634784769E+02  0.41800000000E+01 0. -1.
        -11    1    1    2    0    0  0.90994741338E+01  0.51905343179E+02 -0.14654470720E+03  0.15573155200E+03  0.00000000000E+00 0.  1.
         11    1    1    2    0    0  0.38663640969E+02 -0.22406362334E+02 -0.85948387003E+01  0.45505971677E+02  0.00000000000E+00 0. -1.
</event>
<event>
 7    1  0.2601031E-009  0.1233662E+03  0.7561462E-02  0.1237645E+00
          1   -1    0    0  501    0  0.00000000000E+00  0.00000000000E+00  0.38890793608E+03  0.38890793608E+03  0.00000000000E+00 0. -1.
         -1   -1    0    0    0  501 -0.00000000000E+00 -0.00000000000E+00 -0.44881709435E+02  0.44881709435E+02  0.00000000000E+00 0.  1.
         25    2    1    2    0    0  0.58711606586E+02 -0.18334061086E+02  0.25743376219E+03  0.29275240339E+03  0.12509451319E+03 0.  0.
          5    1    3    3  502    0 -0.23770127103E+02  0.33904477391E+02  0.80824941101E+02  0.90910263631E+02  0.41800000000E+01 0. -1.
         -5    1    3    3    0  502  0.82481733689E+02 -0.52238538477E+02  0.17660882109E+03  0.20184213976E+03  0.41800000000E+01 0. -1.
        -11    1    1    2    0    0 -0.47443181804E+02 -0.31075746495E+02  0.27012357593E+02  0.62818985845E+02  0.00000000000E+00 0.  1.
         11    1    1    2    0    0 -0.11268424782E+02  0.49409807581E+02  0.59580106858E+02  0.78218256280E+02  0.00000000000E+00 0. -1.
</event>
<event>
 7    1  0.2601031E-009  0.1137133E+03  0.7561462E-02  0.1253844E+00
         -2   -1    0    0    0  501 -0.00000000000E+00  0.00000000000E+00  0.16000522278E+02  0.16000522278E+02  0.00000000000E+00 0.  1.
          2   -1    0    0  501    0  0.00000000000E+00 -0.00000000000E+00 -0.12001936389E+04  0.12001936389E+04  0.00000000000E+00 0. -1.
         25    2    1    2    0    0  0.85344043445E+01 -0.85399643136E+02 -0.64117409134E+03  0.65887604879E+03  0.12508995625E+03 0.  0.
          5    1    3    3  502    0  0.29075299555E+02 -0.70406230697E+02 -0.16258275350E+03  0.17959129851E+03  0.41800000000E+01 0.  1.
         -5    1    3    3    0  502 -0.20540895211E+02 -0.14993412439E+02 -0.47859133784E+03  0.47928475028E+03  0.41800000000E+01 0.  1.
        -11    1    1    2    0    0  0.24344191106E+02 -0.85717648936E+01 -0.10453539259E+03  0.10767433815E+03  0.00000000000E+00 0. -1.
         11    1    1    2    0    0 -0.32878595451E+02  0.93971408029E+02 -0.43848363265E+03  0.44964377419E+03  0.00000000000E+00 0.  1.
</event>
<event>
 7    1  0.2601031E-009  0.1117950E+03  0.7561462E-02  0.1257281E+00
         -2   -1    0    0    0  501 -0.00000000000E+00  0.00000000000E+00  0.25450582511E+03  0.25450582511E+03  0.00000000000E+00 0.  1.
          2   -1    0    0  501    0  0.00000000000E+00 -0.00000000000E+00 -0.86431424122E+02  0.86431424122E+02  0.00000000000E+00 0. -1.
         25    2    1    2    0    0  0.82786098787E+02 -0.38594841320E+02  0.36267035766E+02  0.15908473503E+03  0.12509818187E+03 0.  0.
          5    1    3    3  502    0  0.85652961661E+02 -0.38323064634E+02 -0.25325984428E+02  0.97282912227E+02  0.41800000000E+01 0.  1.
         -5    1    3    3    0  502 -0.28668628739E+01 -0.27177668572E+00  0.61593020194E+02  0.61801822804E+02  0.41800000000E+01 0.  1.
        -11    1    1    2    0    0 -0.10317088314E+02 -0.25708105951E+02  0.21699001003E+02  0.35188004595E+02  0.00000000000E+00 0.  1.
         11    1    1    2    0    0 -0.72469010473E+02  0.64302947271E+02  0.11010836422E+03  0.14666450960E+03  0.00000000000E+00 0. -1.
</event>
<event>
 7    1  0.2601031E-009  0.1502966E+03  0.7561462E-02  0.1200109E+00
          1   -1    0    0  501    0  0.00000000000E+00  0.00000000000E+00  0.23896351740E+03  0.23896351740E+03  0.00000000000E+00 0. -1.
         -1   -1    0    0    0  501 -0.00000000000E+00 -0.00000000000E+00 -0.14129118459E+03  0.14129118459E+03  0.00000000000E+00 0.  1.
         25    2    1    2    0    0  0.19276022639E+02  0.12990616124E+03  0.12407146674E+03  0.21974576018E+03  0.12508914613E+03 0.  0.
          5    1    3    3  502    0 -0.24206373326E+02  0.31752891206E+02 -0.16000739137E+02  0.43216786813E+02  0.41800000000E+01 0. -1.
         -5    1    3    3    0  502  0.43482395965E+02  0.98153270038E+02  0.14007220588E+03  0.17652897336E+03  0.41800000000E+01 0. -1.
        -11    1    1    2    0    0 -0.22805367309E+01  0.10924675564E+02 -0.14302566796E+02  0.18141466338E+02  0.00000000000E+00 0.  1.
         11    1    1    2    0    0 -0.16995485908E+02 -0.14083083681E+03 -0.12096567139E+02  0.14236747548E+03  0.00000000000E+00 0. -1.
</event>
<event>
 7    1  0.2601031E-009  0.1259442E+03  0.7561462E-02  0.1233601E+00
          1   -1    0    0  501    0  0.00000000000E+00  0.00000000000E+00  0.17594921057E+03  0.17594921057E+03  0.00000000000E+00 0. -1.
         -1   -1    0    0    0  501 -0.00000000000E+00 -0.00000000000E+00 -0.18075228394E+03  0.18075228394E+03  0.00000000000E+00 0.  1.
         25    2    1    2    0    0  0.68696934544E+02 -0.70679964375E+02  0.99038672199E+02  0.18754072082E+03  0.12509171513E+03 0.  0.
          5    1    3    3  502    0  0.21946411485E+02  0.12387850574E+02 -0.21794693733E+02  0.33579530876E+02  0.41800000000E+01 0. -1.
         -5    1    3    3    0  502  0.46750523059E+02 -0.83067814949E+02  0.12083336593E+03  0.15396118994E+03  0.41800000000E+01 0. -1.
        -11    1    1    2    0    0  0.15711851937E+02  0.36732832895E+02 -0.47834431845E+02  0.62324121925E+02  0.00000000000E+00 0.  1.
         11    1    1    2    0    0 -0.84408786481E+02  0.33947131480E+02 -0.56007313726E+02  0.10683665177E+03  0.00000000000E+00 0. -1.
</event>
<event>
 7    1  0.2601031E-009  0.1425727E+03  0.7561462E-02  0.1209908E+00
          2   -1    0    0  501    0  0.00000000000E+00  0.00000000000E+00  0.98049431272E+03  0.98049431272E+03  0.00000000000E+00 0. -1.
         -2   -1    0    0    0  501 -0.00000000000E+00 -0.00000000000E+00 -0.21694427113E+02  0.21694427113E+02  0.00000000000E+00 0.  1.
         25    2    1    2    0    0 -0.61581803781E+01  0.85999345843E+02  0.40535656210E+03  0.43289161181E+03  0.12508954577E+03 0.  0.
          5    1    3    3  502    0  0.91870301642E+01  0.11681324409E+03  0.31315332146E+03  0.33438332892E+03  0.41800000000E+01 0. -1.
         -5    1    3    3    0  502 -0.15345210542E+02 -0.30813898251E+02  0.92203240645E+02  0.98508282887E+02  0.41800000000E+01 0. -1.
        -11    1    1    2    0    0 -0.45824327078E+02 -0.22180440735E+02  0.19674247639E+03  0.20322264372E+03  0.00000000000E+00 0. -1.
         11    1    1    2    0    0  0.51982507456E+02 -0.63818905108E+02  0.35670084711E+03  0.36607448430E+03  0.00000000000E+00 0.  1.
</event>
<event>
 7    1  0.2601031E-009  0.1455843E+03  0.7561462E-02  0.1206006E+00
         -1   -1    0    0    0  501 -0.00000000000E+00  0.00000000000E+00  0.76460216430E+02  0.76460216430E+02  0.00000000000E+00 0.  1.
          1   -1    0    0  501    0  0.00000000000E+00 -0.00000000000E+00 -0.37699085333E+03  0.37699085333E+03  0.00000000000E+00 0. -1.
         25    2    1    2    0    0  0.11633160936E+03 -0.19094879695E+02 -0.23664037897E+03  0.29247992485E+03  0.12509268448E+03 0.  0.
          5    1    3    3  502    0 -0.92021928134E+00  0.37245656430E+02 -0.28905250801E+02  0.47339958284E+02  0.41800000000E+01 0. -1.
         -5    1    3    3    0  502  0.11725182864E+03 -0.56340536125E+02 -0.20773512817E+03  0.24513996656E+03  0.41800000000E+01 0. -1.
        -11    1    1    2    0    0 -0.57164004012E+02 -0.92684670103E+01  0.13546351479E+02  0.59473788124E+02  0.00000000000E+00 0.  1.
         11    1    1    2    0    0 -0.59167605347E+02  0.28363346706E+02 -0.77436609403E+02  0.10149735679E+03  0.00000000000E+00 0. -1.
</event>
<event>
 7    1  0.2601031E-009  0.8090383E+02  0.7561462E-02  0.1326506E+00
          2   -1    0    0  501    0  0.00000000000E+00  0.00000000000E+00  0.10679121925E+04  0.10679121925E+04  0.00000000000E+00 0. -1.
         -2   -1    0    0    0  501 -0.00000000000E+00 -0.00000000000E+00 -0.12000796061E+02  0.12000796061E+02  0.00000000000E+00 0.  1.
         25    2    1    2    0    0 -0.10796212307E+02  0.48217559578E+02  0.78443300328E+03  0.79587888662E+03  0.12508626731E+03 0.  0.
          5    1    3    3  502    0 -0.37135226070E+02  0.13430891774E+02  0.69645511643E+03  0.69758627815E+03  0.41800000000E+01 0. -1.
         -5    1    3    3    0  502  0.26339013763E+02  0.34786667804E+02  0.87977886854E+02  0.98292608462E+02  0.41800000000E+01 0. -1.
        -11    1    1    2    0    0  0.31176257174E+02 -0.48762960946E+02  0.23712939497E+03  0.24409042449E+03  0.00000000000E+00 0.  1.
         11    1    1    2    0    0 -0.20380044866E+02  0.54540136852E+00  0.34348998148E+02  0.39943677412E+02  0.00000000000E+00 0. -1.
</event>
<event>
 7    1  0.2601031E-009  0.1357863E+03  0.7561462E-02  0.1219114E+00
          3   -1    0    0  501    0  0.00000000000E+00  0.00000000000E+00  0.58208369068E+02  0.58208369068E+02  0.00000000000E+00 0. -1.
         -3   -1    0    0    0  501 -0.00000000000E+00 -0.00000000000E+00 -0.41417550965E+03  0.41417550965E+03  0.00000000000E+00 0.  1.
         25    2    1    2    0    0 -0.57156627435E+02 -0.77038541900E+02 -0.11650484123E+03  0.19601783244E+03  0.12509114920E+03 0.  0.
          5    1    3    3  502    0 -0.29527750939E+02  0.32781671484E+02 -0.32426430247E+02  0.54913312042E+02  0.41800000000E+01 0. -1.
         -5    1    3    3    0  502 -0.27628876496E+02 -0.10982021338E+03 -0.84078410978E+02  0.14110452040E+03  0.41800000000E+01 0. -1.
        -11    1    1    2    0    0  0.70055766823E+02  0.58053656023E+02 -0.23628237863E+03  0.25319439152E+03  0.00000000000E+00 0.  1.
         11    1    1    2    0    0 -0.12899139388E+02  0.18984885877E+02 -0.31799207249E+01  0.23171654764E+02  0.00000000000E+00 0. -1.
</event>
<event>
 7    1  0.2601031E-009  0.1023943E+03  0.7561462E-02  0.1275340E+00
         -1   -1    0    0    0  501 -0.00000000000E+00  0.00000000000E+00  0.11745584652E+03  0.11745584652E+03  0.00000000000E+00 0.  1.
          1   -1    0    0  501    0  0.00000000000E+00 -0.00000000000E+00 -0.14019105673E+03  0.14019105673E+03  0.00000000000E+00 0. -1.
         25    2    1    2    0    0  0.24574509323E+02 -0.25600957110E+02 -0.47393658748E+02  0.13839514575E+03  0.12509093478E+03 0.  0.
          5    1    3    3  502    0  0.55813247564E+02  0.99437443341E+01  0.16113970234E+02  0.59085777406E+02  0.41800000000E+01 0. -1.
         -5    1    3    3    0  502 -0.31238738241E+02 -0.35544701444E+02 -0.63507628982E+02  0.79309368341E+02  0.41800000000E+01 0. -1.
        -11    1    1    2    0    0  0.16346170273E+02 -0.28348914986E+02 -0.19799931549E+02  0.38247817622E+02  0.00000000000E+00 0.  1.
         11    1    1    2    0    0 -0.40920679596E+02  0.53949872097E+02  0.44458380085E+02  0.81003939890E+02  0.00000000000E+00 0. -1.
</event>
<event>
 7    1  0.2601031E-009  0.8557684E+02  0.7561462E-02  0.1313931E+00
         -2   -1    0    0    0  501 -0.00000000000E+00  0.00000000000E+00  0.81410487091E+02  0.81410487091E+02  0.00000000000E+00 0.  1.
          2   -1    0    0  501    0  0.00000000000E+00 -0.00000000000E+00 -0.24733758529E+03  0.24733758529E+03  0.00000000000E+00 0. -1.
         25    2    1    2    0    0 -0.20724780010E+02  0.40484295241E+02 -0.18294246500E+03  0.22624028728E+03  0.12509287518E+03 0.  0.
          5    1    3    3  502    0 -0.49714462886E+02  0.84882401869E+00 -0.16344806713E+02  0.52505937080E+02  0.41800000000E+01 0. -1.
         -5    1    3    3    0  502  0.28989682875E+02  0.39635471222E+02 -0.16659765829E+03  0.17373435020E+03  0.41800000000E+01 0. -1.
        -11    1    1    2    0    0  0.49221303216E+01  0.14211828949E+02  0.38750432233E+02  0.41566807036E+02  0.00000000000E+00 0.  1.
         11    1    1    2    0    0  0.15802649689E+02 -0.54696124190E+02 -0.21735065434E+02  0.60940978069E+02  0.00000000000E+00 0. -1.
</event>
<event>
 7    1  0.2601031E-009  0.4048887E+03  0.7561462E-02  0.1042100E+00
         -2   -1    0    0    0  501 -0.00000000000E+00  0.00000000000E+00  0.18636803071E+03  0.18636803071E+03  0.00000000000E+00 0.  1.
          2   -1    0    0  501    0  0.00000000000E+00 -0.00000000000E+00 -0.91015933693E+03  0.91015933693E+03  0.00000000000E+00 0. -1.
         25    2    1    2    0    0  0.24593057128E+03  0.30254134953E+03 -0.46618293860E+03  0.62047291322E+03  0.12508792803E+03 0.  0.
          5    1    3    3  502    0  0.19902430607E+01  0.77176623264E+02 -0.86109924799E+02  0.11572633147E+03  0.41800000000E+01 0. -1.
         -5    1    3    3    0  502  0.24394032822E+03  0.22536472627E+03 -0.38007301380E+03  0.50474658176E+03  0.41800000000E+01 0. -1.
        -11    1    1    2    0    0 -0.65661619393E+02 -0.15160249813E+03 -0.10748660726E+03  0.19709930604E+03  0.00000000000E+00 0.  1.
         11    1    1    2    0    0 -0.18026895189E+03 -0.15093885140E+03 -0.15012176036E+03  0.27895514838E+03  0.00000000000E+00 0. -1.
</event>
<event>
 7    1  0.2601031E-009  0.1314523E+03  0.7561462E-02  0.1225317E+00
         -1   -1    0    0    0  501 -0.00000000000E+00  0.00000000000E+00  0.95412571669E+02  0.95412571669E+02  0.00000000000E+00 0.  1.
          1   -1    0    0  501    0  0.00000000000E+00 -0.00000000000E+00 -0.30868478396E+03  0.30868478396E+03  0.00000000000E+00 0. -1.
         25    2    1    2    0    0  0.58995144826E+01 -0.11224506635E+03 -0.20270510870E+03  0.26338277226E+03  0.12508942577E+03 0.  0.
          5    1    3    3  502    0 -0.19873470010E+02 -0.22800072867E+02 -0.15636416538E+03  0.15931736486E+03  0.41800000000E+01 0.  1.
         -5    1    3    3    0  502  0.25772984493E+02 -0.89444993483E+02 -0.46340943326E+02  0.10406540740E+03  0.41800000000E+01 0.  1.
        -11    1    1    2    0    0  0.36956881535E+02  0.69209404507E+02 -0.14760559199E+02  0.79834997794E+02  0.00000000000E+00 0.  1.
         11    1    1    2    0    0 -0.42856396018E+02  0.43035661843E+02  0.41934556063E+01  0.60879585576E+02  0.00000000000E+00 0. -1.
</event>
<event>
 7    1  0.2601031E-009  0.1051850E+03  0.7561462E-02  0.1269756E+00
         -3   -1    0    0    0  501 -0.00000000000E+00  0.00000000000E+00  0.14748438592E+03  0.14748438592E+03  0.00000000000E+00 0.  1.
          3   -1    0    0  501    0  0.00000000000E+00 -0.00000000000E+00 -0.85147174446E+02  0.85147174446E+02  0.00000000000E+00 0. -1.
         25    2    1    2    0    0  0.63463269615E+00  0.16200642999E+02  0.51882704591E+02  0.13639194570E+03  0.12509230282E+03 0.  0.
          5    1    3    3  502    0  0.52161599200E+02 -0.24107338824E+02  0.96636966681E+01  0.58419651227E+02  0.41800000000E+01 0. -1.
         -5    1    3    3    0  502 -0.51526966503E+02  0.40307981823E+02  0.42219007922E+02  0.77972294475E+02  0.41800000000E+01 0. -1.
        -11    1    1    2    0    0 -0.42954128749E+02 -0.12420621854E+02  0.25126049998E+02  0.51289837321E+02  0.00000000000E+00 0.  1.
         11    1    1    2    0    0  0.42319496053E+02 -0.37800211452E+01 -0.14671543113E+02  0.44949777345E+02  0.00000000000E+00 0. -1.
</event>
<event>
 7    1  0.2601031E-009  0.3962427E+03  0.7561462E-02  0.1045089E+00
          2   -1    0    0  501    0  0.00000000000E+00  0.00000000000E+00  0.25090114975E+03  0.25090114975E+03  0.00000000000E+00 0. -1.
         -2   -1    0    0    0  501 -0.00000000000E+00 -0.00000000000E+00 -0.68425913922E+03  0.68425913922E+03  0.00000000000E+00 0.  1.
         25    2    1    2    0    0  0.36116821164E+03 -0.13654095448E+03 -0.10331541238E+03  0.41881721815E+03  0.12509148028E+03 0.  0.
          5    1    3    3  502    0  0.74649285464E+02 -0.68210546116E+02  0.13128890168E+02  0.10205407674E+03  0.41800000000E+01 0. -1.
         -5    1    3    3    0  502  0.28651892617E+03 -0.68330408361E+02 -0.11644430255E+03  0.31676314141E+03  0.41800000000E+01 0. -1.
        -11    1    1    2    0    0 -0.11990060890E+03  0.88119059323E+00 -0.89292016158E+02  0.14949915271E+03  0.00000000000E+00 0.  1.
         11    1    1    2    0    0 -0.24126760273E+03  0.13565976388E+03 -0.24075056094E+03  0.36684391811E+03  0.00000000000E+00 0. -1.
</event>
<event>
 7    1  0.2601031E-009  0.1522323E+03  0.7561462E-02  0.1197756E+00
         -2   -1    0    0    0  501 -0.00000000000E+00  0.00000000000E+00  0.66164434639E+02  0.66164434639E+02  0.00000000000E+00 0.  1.
          2   -1    0    0  501    0  0.00000000000E+00 -0.00000000000E+00 -0.41392145013E+03  0.41392145013E+03  0.00000000000E+00 0. -1.
         25    2    1    2    0    0 -0.10011464086E+03  0.72812496074E+02 -0.21219472653E+03  0.27567777641E+03  0.12508810311E+03 0.  0.
          5    1    3    3  502    0 -0.38749110407E+02  0.87304078475E+02 -0.18212776870E+03  0.20569757463E+03  0.41800000000E+01 0. -1.
         -5    1    3    3    0  502 -0.61365530451E+02 -0.14491582400E+02 -0.30066957827E+02  0.69980201778E+02  0.41800000000E+01 0. -1.
        -11    1    1    2    0    0  0.28184159788E+02 -0.67957601955E+02 -0.37160642407E+02  0.82422665999E+02  0.00000000000E+00 0.  1.
         11    1    1    2    0    0  0.71930481070E+02 -0.48548941197E+01 -0.98401646559E+02  0.12198544237E+03  0.00000000000E+00 0. -1.
</event>
<event>
 7    1  0.2601031E-009  0.1700638E+03  0.7561462E-02  0.1177781E+00
          2   -1    0    0  501    0  0.00000000000E+00  0.00000000000E+00  0.17502797268E+03  0.17502797268E+03  0.00000000000E+00 0. -1.
         -2   -1    0    0    0  501 -0.00000000000E+00 -0.00000000000E+00 -0.16883184674E+03  0.16883184674E+03  0.00000000000E+00 0.  1.
         25    2    1    2    0    0  0.51753410716E+02  0.12207282833E+03  0.19571790504E+02  0.18333467736E+03  0.12509339711E+03 0.  0.
          5    1    3    3  502    0  0.16160178600E+02  0.14064485858E+03  0.19517660480E+02  0.14297041333E+03  0.41800000000E+01 0. -1.
         -5    1    3    3    0  502  0.35593232116E+02 -0.18572030252E+02  0.54130023701E-01  0.40364264024E+02  0.41800000000E+01 0. -1.
        -11    1    1    2    0    0  0.14493501341E+02 -0.76167211261E+02  0.55600079985E+01  0.77733000336E+02  0.00000000000E+00 0.  1.
         11    1    1    2    0    0 -0.66246912057E+02 -0.45905617070E+02 -0.18935672565E+02  0.82792141723E+02  0.00000000000E+00 0. -1.
</event>
<event>
 7    1  0.2601031E-009  0.1427756E+03  0.7561462E-02  0.1209642E+00
          1   -1    0    0  501    0  0.00000000000E+00  0.00000000000E+00  0.52131530894E+03  0.52131530894E+03  0.00000000000E+00 0. -1.
         -1   -1    0    0    0  501 -0.00000000000E+00 -0.00000000000E+00 -0.44991863990E+02  0.44991863990E+02  0.00000000000E+00 0.  1.
         25    2    1    2    0    0  0.76911518236E+02  0.70982929067E+02  0.19828274621E+03  0.25675050480E+03  0.12510322304E+03 0.  0.
          5    1    3    3  502    0 -0.32196454181E+02  0.35423178118E+02  0.52439363708E+02  0.71125048161E+02  0.41800000000E+01 0.  1.
         -5    1    3    3    0  502  0.10910797242E+03  0.35559750950E+02  0.14584338250E+03  0.18562545664E+03  0.41800000000E+01 0.  1.
        -11    1    1    2    0    0 -0.56069257076E+02 -0.81810987942E+02  0.15303539263E+03  0.18236400613E+03  0.00000000000E+00 0.  1.
         11    1    1    2    0    0 -0.20842261159E+02  0.10828058875E+02  0.12500530611E+03  0.12719266199E+03  0.00000000000E+00 0. -1.
</event>
<event>
 7    1  0.2601031E-009  0.9599697E+02  0.7561462E-02  0.1288946E+00
          2   -1    0    0  501    0  0.00000000000E+00  0.00000000000E+00  0.38399403196E+02  0.38399403196E+02  0.00000000000E+00 0. -1.
         -2   -1    0    0    0  501 -0.00000000000E+00 -0.00000000000E+00 -0.46499865302E+03  0.46499865302E+03  0.00000000000E+00 0.  1.
         25    2    1    2    0    0 -0.16173132740E+02  0.16244018859E+02 -0.37162604499E+03  0.39277901742E+03  0.12507598028E+03 0.  0.
          5    1    3    3  502    0 -0.59427557121E+02  0.40064319577E+02 -0.15904292118E+03  0.17449615304E+03  0.41800000000E+01 0.  1.
         -5    1    3    3    0  502  0.43254424381E+02 -0.23820300718E+02 -0.21258312381E+03  0.21828286438E+03  0.41800000000E+01 0.  1.
        -11    1    1    2    0    0  0.34450156356E+02 -0.31618859706E+02  0.40607125496E+01  0.46936712161E+02  0.00000000000E+00 0. -1.
         11    1    1    2    0    0 -0.18277023617E+02  0.15374840847E+02 -0.59033917385E+02  0.63682326631E+02  0.00000000000E+00 0.  1.
</event>
<event>
 7    1  0.2601031E-009  0.2232242E+03  0.7561462E-02  0.1131502E+00
          2   -1    0    0  501    0  0.00000000000E+00  0.00000000000E+00  0.10451566681E+04  0.10451566681E+04  0.00000000000E+00 0. -1.
         -2   -1    0    0    0  501 -0.00000000000E+00 -0.00000000000E+00 -0.81582184477E+02  0.81582184477E+02  0.00000000000E+00 0.  1.
         25    2    1    2    0    0 -0.13363963474E+03 -0.17313113051E+03  0.80114321629E+03  0.83982860898E+03  0.12509076357E+03 0.  0.
          5    1    3    3  502    0 -0.68613056872E+02 -0.41672167524E+02  0.48092770233E+03  0.48759947538E+03  0.41800000000E+01 0.  1.
         -5    1    3    3    0  502 -0.65026577870E+02 -0.13145896299E+03  0.32021551395E+03  0.35222913360E+03  0.41800000000E+01 0.  1.
        -11    1    1    2    0    0  0.55547508332E+01  0.14025346870E+02  0.53167595917E+02  0.55266254326E+02  0.00000000000E+00 0. -1.
         11    1    1    2    0    0  0.12808488391E+03  0.15910578364E+03  0.10926367142E+03  0.23164398927E+03  0.00000000000E+00 0.  1.
</event>
<event>
 7    1  0.2601031E-009  0.7568020E+02  0.7561462E-02  0.1341778E+00
          2   -1    0    0  501    0  0.00000000000E+00  0.00000000000E+00  0.22622497670E+03  0.22622497670E+03  0.00000000000E+00 0.  1.
         -2   -1    0    0    0  501 -0.00000000000E+00 -0.00000000000E+00 -0.55621033328E+02  0.55621033328E+02  0.00000000000E+00 0. -1.
         25    2    1    2    0    0 -0.21259802656E+01  0.11396709454E+02  0.63605158854E+02  0.14081103573E+03  0.12509087406E+03 0.  0.
          5    1    3    3  502    0 -0.49419783113E+02  0.28546500998E+02 -0.29222034704E+01  0.57299470812E+02  0.41800000000E+01 0.  1.
         -5    1    3    3    0  502  0.47293802847E+02 -0.17149791544E+02  0.66527362325E+02  0.83511564922E+02  0.41800000000E+01 0.  1.
        -11    1    1    2    0    0 -0.19336380908E+02  0.38102051534E-01  0.11407949220E+03  0.11570664466E+03  0.00000000000E+00 0.  1.
         11    1    1    2    0    0  0.21462361173E+02 -0.11434811505E+02 -0.70807076731E+01  0.25328329642E+02  0.00000000000E+00 0. -1.
</event>
<event>
 7    1  0.2601031E-009  0.2219063E+03  0.7561462E-02  0.1132470E+00
         -2   -1    0    0    0  501 -0.00000000000E+00  0.00000000000E+00  0.33278230663E+02  0.33278230663E+02  0.00000000000E+00 0.  1.
          2   -1    0    0  501    0  0.00000000000E+00 -0.00000000000E+00 -0.28009744252E+04  0.28009744252E+04  0.00000000000E+00 0. -1.
         25    2    1    2    0    0 -0.18984922316E+03 -0.10595066299E+03 -0.22662694816E+04  0.22801081594E+04  0.12509030562E+03 0.  0.
          5    1    3    3  502    0 -0.11869040483E+03 -0.34414842959E+02 -0.71967156821E+03  0.73021670216E+03  0.41800000000E+01 0.  1.
         -5    1    3    3    0  502 -0.71158818332E+02 -0.71535820033E+02 -0.15465979134E+04  0.15498914572E+04  0.41800000000E+01 0.  1.
        -11    1    1    2    0    0  0.10174185747E+03  0.72506128429E+02 -0.38260892132E+03  0.40248991403E+03  0.00000000000E+00 0. -1.
         11    1    1    2    0    0  0.88107365691E+02  0.33444534563E+02 -0.11881779156E+03  0.15165458243E+03  0.00000000000E+00 0.  1.
</event>
<event>
 7    1  0.2601031E-009  0.1092335E+03  0.7561462E-02  0.1261996E+00
          4   -1    0    0  501    0  0.00000000000E+00  0.00000000000E+00  0.22638591818E+03  0.22638591818E+03  0.00000000000E+00 0. -1.
         -4   -1    0    0    0  501 -0.00000000000E+00 -0.00000000000E+00 -0.62458922997E+02  0.62458922997E+02  0.00000000000E+00 0.  1.
         25    2    1    2    0    0 -0.22403584523E+02 -0.41402515300E+02  0.86054770415E+02  0.15896065714E+03  0.12508788165E+03 0.  0.
          5    1    3    3  502    0  0.44799658060E+02 -0.24547917961E+02  0.71610174573E+02  0.88063040720E+02  0.41800000000E+01 0. -1.
         -5    1    3    3    0  502 -0.67203242583E+02 -0.16854597339E+02  0.14444595841E+02  0.70897616421E+02  0.41800000000E+01 0. -1.
        -11    1    1    2    0    0  0.37303213722E+02 -0.14443568175E+02  0.54344831129E+02  0.67479679060E+02  0.00000000000E+00 0. -1.
         11    1    1    2    0    0 -0.14899629200E+02  0.55846083475E+02  0.23527393638E+02  0.62404504975E+02  0.00000000000E+00 0.  1.
</event>
<event>
 7    1  0.2601031E-009  0.1173980E+03  0.7561462E-02  0.1247452E+00
          1   -1    0    0  501    0  0.00000000000E+00  0.00000000000E+00  0.68653848291E+03  0.68653848291E+03  0.00000000000E+00 0. -1.
         -1   -1    0    0    0  501 -0.00000000000E+00 -0.00000000000E+00 -0.21838203350E+02  0.21838203350E+02  0.00000000000E+00 0.  1.
         25    2    1    2    0    0  0.70868724463E+02 -0.15167589120E+02  0.37215203212E+03  0.39924621345E+03  0.12509185455E+03 0.  0.
          5    1    3    3  502    0  0.57229408328E+02  0.49713974957E+02  0.23284970652E+03  0.24491456206E+03  0.41800000000E+01 0. -1.
         -5    1    3    3    0  502  0.13639316135E+02 -0.64881564077E+02  0.13930232560E+03  0.15433165139E+03  0.41800000000E+01 0. -1.
        -11    1    1    2    0    0 -0.25710225552E+02  0.34744971330E+02  0.79704874989E+02  0.90670258783E+02  0.00000000000E+00 0.  1.
         11    1    1    2    0    0 -0.45158498911E+02 -0.19577382210E+02  0.21284337244E+03  0.21846021402E+03  0.00000000000E+00 0. -1.
</event>
<event>
 7    1  0.2601031E-009  0.9958018E+02  0.7561462E-02  0.1281181E+00
          2   -1    0    0  501    0  0.00000000000E+00  0.00000000000E+00  0.32150940965E+03  0.32150940965E+03  0.00000000000E+00 0. -1.
         -2   -1    0    0    0  501 -0.00000000000E+00 -0.00000000000E+00 -0.65821954680E+02  0.65821954680E+02  0.00000000000E+00 0.  1.
         25    2    1    2    0    0  0.94998401596E+02  0.11172467164E+02  0.19154666916E+03  0.24796654809E+03  0.12509101558E+03 0.  0.
          5    1    3    3  502    0  0.56264181608E+02  0.80676511027E+01  0.48232940279E+01  0.57196867848E+02  0.41800000000E+01 0.  1.
         -5    1    3    3    0  502  0.38734219989E+02  0.31048160613E+01  0.18672337513E+03  0.19076968025E+03  0.41800000000E+01 0.  1.
        -11    1    1    2    0    0 -0.62002260324E+02  0.11486695256E+02 -0.81950778422E+00  0.63062635897E+02  0.00000000000E+00 0.  1.
         11    1    1    2    0    0 -0.32996141272E+02 -0.22659162420E+02  0.64960293592E+02  0.76302180336E+02  0.00000000000E+00 0. -1.
</event>
<event>
 7    1  0.2601031E-009  0.1053239E+03  0.7561462E-02  0.1269483E+00
          2   -1    0    0  501    0  0.00000000000E+00  0.00000000000E+00  0.21749504967E+03  0.21749504967E+03  0.00000000000E+00 0. -1.
         -2   -1    0    0    0  501 -0.00000000000E+00 -0.00000000000E+00 -0.53704695068E+02  0.53704695068E+02  0.00000000000E+00 0.  1.
         25    2    1    2    0    0 -0.11753114705E+01  0.42036929508E+01  0.88730378710E+02  0.15343053340E+03  0.12509514811E+03 0.  0.
          5    1    3    3  502    0 -0.61739547090E+02 -0.50219802864E+01  0.32070053270E+02  0.69878127319E+02  0.41800000000E+01 0.  1.
         -5    1    3    3    0  502  0.60564235620E+02  0.92256732371E+01  0.56660325440E+02  0.83552406080E+02  0.41800000000E+01 0.  1.
        -11    1    1    2    0    0  0.39718847622E+02 -0.21212770517E+02  0.55075641257E+02  0.71139965907E+02  0.00000000000E+00 0. -1.
         11    1    1    2    0    0 -0.38543536151E+02  0.17009077567E+02  0.19984334637E+02  0.46629245432E+02  0.00000000000E+00 0.  1.
</event>
<event>
 7    1  0.2601031E-009  0.1007224E+03  0.7561462E-02  0.1278784E+00
         -2   -1    0    0    0  501 -0.00000000000E+00  0.00000000000E+00  0.81922138689E+02  0.81922138689E+02  0.00000000000E+00 0.  1.
          2   -1    0    0  501    0  0.00000000000E+00 -0.00000000000E+00 -0.21965985411E+03  0.21965985411E+03  0.00000000000E+00 0. -1.
         25    2    1    2    0    0  0.60801990462E+02 -0.16639033406E+02 -0.23366725544E+02  0.14201577076E+03  0.12509490719E+03 0.  0.
          5    1    3    3  502    0 -0.14355243445E+02 -0.22605901705E+02 -0.54085887007E+02  0.60496738587E+02  0.41800000000E+01 0. -1.
         -5    1    3    3    0  502  0.75157233908E+02  0.59668682992E+01  0.30719161463E+02  0.81519032176E+02  0.41800000000E+01 0. -1.
        -11    1    1    2    0    0  0.16254830596E+02  0.14442657809E+02 -0.63717333473E+02  0.67325392440E+02  0.00000000000E+00 0. -1.
         11    1    1    2    0    0 -0.77056821058E+02  0.21963755964E+01 -0.50653656402E+02  0.92240829594E+02  0.00000000000E+00 0.  1.
</event>
<event>
 7    1  0.2601031E-009  0.1086707E+03  0.7561462E-02  0.1263051E+00
          2   -1    0    0  501    0  0.00000000000E+00  0.00000000000E+00  0.52177104243E+02  0.52177104243E+02  0.00000000000E+00 0. -1.
         -2   -1    0    0    0  501 -0.00000000000E+00 -0.00000000000E+00 -0.23666420003E+03  0.23666420003E+03  0.00000000000E+00 0.  1.
         25    2    1    2    0    0  0.20965740925E+02 -0.28393780040E+01 -0.10840642531E+03  0.16688785340E+03  0.12510786628E+03 0.  0.
          5    1    3    3  502    0  0.34900050375E+02  0.54756676302E+02 -0.40400244550E+02  0.76589550694E+02  0.41800000000E+01 0. -1.
         -5    1    3    3    0  502 -0.13934309450E+02 -0.57596054306E+02 -0.68006180756E+02  0.90298302711E+02  0.41800000000E+01 0. -1.
        -11    1    1    2    0    0 -0.54019495190E+02  0.17396733176E+02 -0.32673005913E+02  0.65484941026E+02  0.00000000000E+00 0. -1.
         11    1    1    2    0    0  0.33053754265E+02 -0.14557355172E+02 -0.43407664573E+02  0.56468509847E+02  0.00000000000E+00 0.  1.
</event>
<event>
 7    1  0.2601031E-009  0.1363691E+03  0.7561462E-02  0.1218300E+00
          2   -1    0    0  501    0  0.00000000000E+00  0.00000000000E+00  0.88591748343E+03  0.88591748343E+03  0.00000000000E+00 0. -1.
         -2   -1    0    0    0  501 -0.00000000000E+00 -0.00000000000E+00 -0.22812487056E+02  0.22812487056E+02  0.00000000000E+00 0.  1.
         25    2    1    2    0    0  0.85143005375E+02  0.30721950504E+02  0.45634362268E+03  0.48175740269E+03  0.12509006147E+03 0.  0.
          5    1    3    3  502    0  0.59210723675E+02  0.73174558258E+02  0.37199894627E+03  0.38374615855E+03  0.41800000000E+01 0.  1.
         -5    1    3    3    0  502  0.25932281701E+02 -0.42452607754E+02  0.84344676404E+02  0.98011244135E+02  0.41800000000E+01 0.  1.
        -11    1    1    2    0    0  0.17221032264E+02  0.82079756411E+01  0.42094391294E+02  0.46215501672E+02  0.00000000000E+00 0. -1.
         11    1    1    2    0    0 -0.10236403764E+03 -0.38929926145E+02  0.36466698241E+03  0.38075706613E+03  0.00000000000E+00 0.  1.
</event>
<event>
 7    1  0.2601031E-009  0.9041583E+02  0.7561462E-02  0.1301848E+00
          1   -1    0    0  501    0  0.00000000000E+00  0.00000000000E+00  0.13765679074E+04  0.13765679074E+04  0.00000000000E+00 0. -1.
         -1   -1    0    0    0  501 -0.00000000000E+00 -0.00000000000E+00 -0.88618118826E+01  0.88618118826E+01  0.00000000000E+00 0.  1.
         25    2    1    2    0    0  0.20298411566E+02  0.27896711140E+01  0.88383659357E+03  0.89288025887E+03  0.12509286454E+03 0.  0.
          5    1    3    3  502    0  0.15209900370E+01 -0.41056857802E+02  0.74261623285E+03  0.74376361882E+03  0.41800000000E+01 0. -1.
         -5    1    3    3    0  502  0.18777421529E+02  0.43846528916E+02  0.14122036072E+03  0.14911664005E+03  0.41800000000E+01 0. -1.
        -11    1    1    2    0    0 -0.30332481306E+02 -0.41646732548E+02  0.29470722485E+03  0.29917696792E+03  0.00000000000E+00 0. -1.
         11    1    1    2    0    0  0.10034069740E+02  0.38857061434E+02  0.18916227710E+03  0.19337249250E+03  0.00000000000E+00 0.  1.
</event>
<event>
 7    1  0.2601031E-009  0.3205079E+03  0.7561462E-02  0.1075416E+00
          1   -1    0    0  501    0  0.00000000000E+00  0.00000000000E+00  0.70467737042E+02  0.70467737042E+02  0.00000000000E+00 0. -1.
         -1   -1    0    0    0  501 -0.00000000000E+00 -0.00000000000E+00 -0.16089511126E+04  0.16089511126E+04  0.00000000000E+00 0.  1.
         25    2    1    2    0    0  0.12564686981E+03 -0.28745051173E+03 -0.64417725197E+03  0.72734065755E+03  0.12508064433E+03 0.  0.
          5    1    3    3  502    0  0.35187515000E+02 -0.18230938466E+03 -0.26525150580E+03  0.32380658838E+03  0.41800000000E+01 0. -1.
         -5    1    3    3    0  502  0.90459354815E+02 -0.10514112707E+03 -0.37892574617E+03  0.40353406917E+03  0.41800000000E+01 0. -1.
        -11    1    1    2    0    0 -0.14950855887E+02  0.80103037166E+02 -0.34692367113E+03  0.35636506317E+03  0.00000000000E+00 0.  1.
         11    1    1    2    0    0 -0.11069601393E+03  0.20734747457E+03 -0.54738245244E+03  0.59571312890E+03  0.00000000000E+00 0. -1.
</event>
<event>
 7    1  0.2601031E-009  0.2204320E+03  0.7561462E-02  0.1133561E+00
         -1   -1    0    0    0  501 -0.00000000000E+00  0.00000000000E+00  0.16031252309E+03  0.16031252309E+03  0.00000000000E+00 0.  1.
          1   -1    0    0  501    0  0.00000000000E+00 -0.00000000000E+00 -0.31149807614E+03  0.31149807614E+03  0.00000000000E+00 0. -1.
         25    2    1    2    0    0  0.17712499896E+03  0.77148329183E+02 -0.10224687687E+03  0.25184694644E+03  0.12508929069E+03 0.  0.
          5    1    3    3  502    0  0.14202443867E+03 -0.19848723735E+01 -0.76764966454E+02  0.16150917427E+03  0.41800000000E+01 0.  1.
         -5    1    3    3    0  502  0.35100560291E+02  0.79133201557E+02 -0.25481910419E+02  0.90337772166E+02  0.41800000000E+01 0.  1.
        -11    1    1    2    0    0 -0.13598574431E+03 -0.96385325577E+02 -0.24746046566E+02  0.16850703387E+03  0.00000000000E+00 0.  1.
         11    1    1    2    0    0 -0.41139254654E+02  0.19236996394E+02 -0.24192629616E+02  0.51456618928E+02  0.00000000000E+00 0. -1.
</event>
<event>
 7    1  0.2601031E-009  0.8283127E+02  0.7561462E-02  0.1321203E+00
         -3   -1    0    0    0  501 -0.00000000000E+00  0.00000000000E+00  0.46475842298E+03  0.46475842298E+03  0.00000000000E+00 0.  1.
          3   -1    0    0  501    0  0.00000000000E+00 -0.00000000000E+00 -0.36238433825E+02  0.36238433825E+02  0.00000000000E+00 0. -1.
         25    2    1    2    0    0 -0.11577529217E+02 -0.66113461863E+02  0.18261736513E+03  0.23130122356E+03  0.12508447127E+03 0.  0.
          5    1    3    3  502    0 -0.14800250597E+02 -0.38183070805E+02 -0.50688178694E+01  0.41474807154E+02  0.41800000000E+01 0. -1.
         -5    1    3    3    0  502  0.32227213808E+01 -0.27930391058E+02  0.18768618300E+03  0.18982641641E+03  0.41800000000E+01 0. -1.
        -11    1    1    2    0    0  0.35959540001E+02  0.61526350677E+02  0.10676972337E+03  0.12836804187E+03  0.00000000000E+00 0. -1.
         11    1    1    2    0    0 -0.24382010784E+02  0.45871111860E+01  0.13913290066E+03  0.14132759138E+03  0.00000000000E+00 0.  1.
</event>
<event>
 7    1  0.2601031E-009  0.1544753E+03  0.7561462E-02  0.1195079E+00
          2   -1    0    0  501    0  0.00000000000E+00  0.00000000000E+00  0.23633412931E+03  0.23633412931E+03  0.00000000000E+00 0. -1.
         -2   -1    0    0    0  501 -0.00000000000E+00 -0.00000000000E+00 -0.13508876450E+03  0.13508876450E+03  0.00000000000E+00 0.  1.
         25    2    1    2    0    0 -0.50607751680E+02  0.11089770437E+03 -0.18907954479E+02  0.17568315517E+03  0.12509042690E+03 0.  0.
          5    1    3    3  502    0  0.91551493568E+01 -0.23182318719E+02 -0.13673247240E+02  0.28734417534E+02  0.41800000000E+01 0.  1.
         -5    1    3    3    0  502 -0.59762901037E+02  0.13408002309E+03 -0.52347072393E+01  0.14694873763E+03  0.41800000000E+01 0.  1.
        -11    1    1    2    0    0  0.64088527647E+02 -0.76020969461E+02  0.39777870053E+02  0.10709251197E+03  0.00000000000E+00 0.  1.
         11    1    1    2    0    0 -0.13480775967E+02 -0.34876734911E+02  0.80375449234E+02  0.88647226681E+02  0.00000000000E+00 0. -1.
</event>
<event>
 7    1  0.2601031E-009  0.1523960E+03  0.7561462E-02  0.1197559E+00
          1   -1    0    0  501    0  0.00000000000E+00  0.00000000000E+00  0.40518337748E+02  0.40518337748E+02  0.00000000000E+00 0. -1.
         -1   -1    0    0    0  501 -0.00000000000E+00 -0.00000000000E+00 -0.69864420620E+03  0.69864420620E+03  0.00000000000E+00 0.  1.
         25    2    1    2    0    0  0.45064074242E+02  0.11953561859E+03 -0.32033906160E+03  0.36685758968E+03  0.12509133390E+03 0.  0.
          5    1    3    3  502    0 -0.44508608087E+01 -0.14568516007E+02 -0.11815124445E+03  0.11920252005E+03  0.41800000000E+01 0. -1.
         -5    1    3    3    0  502  0.49514935051E+02  0.13410413460E+03 -0.20218781715E+03  0.24765506963E+03  0.41800000000E+01 0. -1.
        -11    1    1    2    0    0  0.16286448397E+02 -0.68321080318E+01 -0.99994445000E+01  0.20295688997E+02  0.00000000000E+00 0. -1.
         11    1    1    2    0    0 -0.61350522639E+02 -0.11270351056E+03 -0.32778736235E+03  0.35200926528E+03  0.00000000000E+00 0.  1.
</event>
<event>
 7    1  0.2601031E-009  0.1381647E+03  0.7561462E-02  0.1215820E+00
         -1   -1    0    0    0  501 -0.00000000000E+00  0.00000000000E+00  0.63208577731E+02  0.63208577731E+02  0.00000000000E+00 0. -1.
          1   -1    0    0  501    0  0.00000000000E+00 -0.00000000000E+00 -0.31307281262E+03  0.31307281262E+03  0.00000000000E+00 0.  1.
         25    2    1    2    0    0 -0.88254245945E+02 -0.93896660954E+01 -0.12522007575E+03  0.19800295440E+03  0.12509246509E+03 0.  0.
          5    1    3    3  502    0  0.25100609009E+02  0.20357728268E+02 -0.11245277034E+02  0.34473269767E+02  0.41800000000E+01 0.  1.
         -5    1    3    3    0  502 -0.11335485495E+03 -0.29747394363E+02 -0.11397479872E+03  0.16352968463E+03  0.41800000000E+01 0.  1.
        -11    1    1    2    0    0  0.49338870615E+02  0.49988549187E+02 -0.80132454416E+02  0.10655697750E+03  0.00000000000E+00 0. -1.
         11    1    1    2    0    0  0.38915375330E+02 -0.40598883091E+02 -0.44511704726E+02  0.71721458456E+02  0.00000000000E+00 0.  1.
</event>
<event>
 7    1  0.2601031E-009  0.1197365E+03  0.7561462E-02  0.1243532E+00
         -4   -1    0    0    0  501 -0.00000000000E+00  0.00000000000E+00  0.11860807275E+03  0.11860807275E+03  0.00000000000E+00 0.  1.
          4   -1    0    0  501    0  0.00000000000E+00 -0.00000000000E+00 -0.17763280741E+03  0.17763280741E+03  0.00000000000E+00 0. -1.
         25    2    1    2    0    0 -0.51490644811E+02  0.27635315176E+02  0.46176599337E+02  0.14558577744E+03  0.12509173881E+03 0.  0.
          5    1    3    3  502    0  0.80383286844E+01  0.62222949888E+02  0.43687951760E+02  0.76566440101E+02  0.41800000000E+01 0. -1.
         -5    1    3    3    0  502 -0.59528973495E+02 -0.34587634712E+02  0.24886475773E+01  0.69019337342E+02  0.41800000000E+01 0. -1.
        -11    1    1    2    0    0  0.39530118141E+02  0.29450210445E+02 -0.53011102906E+02  0.72388688114E+02  0.00000000000E+00 0.  1.
         11    1    1    2    0    0  0.11960526670E+02 -0.57085525621E+02 -0.52190231094E+02  0.78266414606E+02  0.00000000000E+00 0. -1.
</event>
<event>
 7    1  0.2601031E-009  0.9416236E+02  0.7561462E-02  0.1293074E+00
          1   -1    0    0  501    0  0.00000000000E+00  0.00000000000E+00  0.18148936592E+03  0.18148936592E+03  0.00000000000E+00 0. -1.
         -1   -1    0    0    0  501 -0.00000000000E+00 -0.00000000000E+00 -0.64918402593E+02  0.64918402593E+02  0.00000000000E+00 0.  1.
         25    2    1    2    0    0 -0.21605065075E+02  0.98728458686E+01  0.66380574357E+02  0.14359135191E+03  0.12509134170E+03 0.  0.
          5    1    3    3  502    0  0.21283012477E+02  0.58196761029E+02  0.26320783886E+02  0.67454322906E+02  0.41800000000E+01 0. -1.
         -5    1    3    3    0  502 -0.42888077552E+02 -0.48323915160E+02  0.40059790472E+02  0.76137029001E+02  0.41800000000E+01 0. -1.
        -11    1    1    2    0    0  0.40985015917E+02 -0.37929713654E+01 -0.73367145399E+01  0.41808917012E+02  0.00000000000E+00 0.  1.
         11    1    1    2    0    0 -0.19379950842E+02 -0.60798745032E+01  0.57527103506E+02  0.61007499592E+02  0.00000000000E+00 0. -1.
</event>
<event>
 7    1  0.2601031E-009  0.1156040E+03  0.7561462E-02  0.1250530E+00
         -2   -1    0    0    0  501 -0.00000000000E+00  0.00000000000E+00  0.14006351394E+02  0.14006351394E+02  0.00000000000E+00 0.  1.
          2   -1    0    0  501    0  0.00000000000E+00 -0.00000000000E+00 -0.13208772794E+04  0.13208772794E+04  0.00000000000E+00 0. -1.
         25    2    1    2    0    0  0.15096184649E+02 -0.65211068063E+02 -0.93041983122E+03  0.94117393844E+03  0.12508773670E+03 0.  0.
          5    1    3    3  502    0  0.38584575416E+02  0.76291759935E+01 -0.62616813511E+03  0.62741611361E+03  0.41800000000E+01 0.  1.
         -5    1    3    3    0  502 -0.23488390767E+02 -0.72840244057E+02 -0.30425169611E+03  0.31375782483E+03  0.41800000000E+01 0.  1.
        -11    1    1    2    0    0  0.36336963190E+02  0.49151932946E+02 -0.21378760872E+03  0.22235428723E+03  0.00000000000E+00 0. -1.
         11    1    1    2    0    0 -0.51433147839E+02  0.16059135117E+02 -0.16266348802E+03  0.17135540509E+03  0.00000000000E+00 0.  1.
</event>
<event>
 7    1  0.2601031E-009  0.1583718E+03  0.7561462E-02  0.1190547E+00
         -2   -1    0    0    0  501 -0.00000000000E+00  0.00000000000E+00  0.20668354941E+02  0.20668354941E+02  0.00000000000E+00 0.  1.
          2   -1    0    0  501    0  0.00000000000E+00 -0.00000000000E+00 -0.14575688814E+04  0.14575688814E+04  0.00000000000E+00 0. -1.
         25    2    1    2    0    0  0.11915462712E+03  0.50855481244E+02 -0.92229237644E+03  0.93971020688E+03  0.12509172694E+03 0.  0.
          5    1    3    3  502    0  0.83393602142E+02  0.92783820303E+02 -0.63972655254E+03  0.65179050669E+03  0.41800000000E+01 0. -1.
         -5    1    3    3    0  502  0.35761024977E+02 -0.41928339059E+02 -0.28256582390E+03  0.28791970019E+03  0.41800000000E+01 0. -1.
        -11    1    1    2    0    0 -0.32510482070E+02  0.59484115350E+01 -0.36153279307E+02  0.48983411977E+02  0.00000000000E+00 0.  1.
         11    1    1    2    0    0 -0.86644145049E+02 -0.56803892779E+02 -0.47845487071E+03  0.48954361748E+03  0.00000000000E+00 0. -1.
</event>
<event>
 7    1  0.2601031E-009  0.1599714E+03  0.7561462E-02  0.1188729E+00
         -1   -1    0    0    0  501 -0.00000000000E+00  0.00000000000E+00  0.61772364069E+02  0.61772364069E+02  0.00000000000E+00 0.  1.
          1   -1    0    0  501    0  0.00000000000E+00 -0.00000000000E+00 -0.42998057913E+03  0.42998057913E+03  0.00000000000E+00 0. -1.
         25    2    1    2    0    0  0.10954597242E+03 -0.56895365831E+02 -0.17209522273E+03  0.24597142779E+03  0.12509106632E+03 0.  0.
          5    1    3    3  502    0  0.13518178008E+03 -0.57462020089E+02 -0.12842604549E+03  0.19515818962E+03  0.41800000000E+01 0.  1.
         -5    1    3    3    0  502 -0.25635807660E+02  0.56665425846E+00 -0.43669177245E+02  0.50813238164E+02  0.41800000000E+01 0.  1.
        -11    1    1    2    0    0  0.10888577308E+02 -0.45624687228E+01 -0.25402591150E+02  0.28011941628E+02  0.00000000000E+00 0. -1.
         11    1    1    2    0    0 -0.12043454973E+03  0.61457834554E+02 -0.17071040117E+03  0.21776957378E+03  0.00000000000E+00 0.  1.
</event>
<event>
 7    1  0.2601031E-009  0.1604117E+03  0.7561462E-02  0.1188233E+00
          4   -1    0    0  501    0  0.00000000000E+00  0.00000000000E+00  0.37675965809E+03  0.37675965809E+03  0.00000000000E+00 0. -1.
         -4   -1    0    0    0  501 -0.00000000000E+00 -0.00000000000E+00 -0.12019734208E+03  0.12019734208E+03  0.00000000000E+00 0.  1.
         25    2    1    2    0    0 -0.15589247788E+02  0.15482417395E+03  0.25020986605E+03  0.32010284882E+03  0.12508919725E+03 0.  0.
          5    1    3    3  502    0 -0.24597983310E+02  0.15299792961E+03  0.13831874730E+03  0.20775701072E+03  0.41800000000E+01 0.  1.
         -5    1    3    3    0  502  0.90087355220E+01  0.18262443416E+01  0.11189111875E+03  0.11234583810E+03  0.41800000000E+01 0.  1.
        -11    1    1    2    0    0  0.14168669506E+02 -0.11684793944E+03 -0.32903953746E+02  0.12221645683E+03  0.00000000000E+00 0.  1.
         11    1    1    2    0    0  0.14205782819E+01 -0.37976234507E+02  0.39256403708E+02  0.54637694516E+02  0.00000000000E+00 0. -1.
</event>
<event>
 7    1  0.2601031E-009  0.1596726E+03  0.7561462E-02  0.1189067E+00
         -2   -1    0    0    0  501 -0.00000000000E+00  0.00000000000E+00  0.50969504357E+02  0.50969504357E+02  0.00000000000E+00 0.  1.
          2   -1    0    0  501    0  0.00000000000E+00 -0.00000000000E+00 -0.60771690538E+03  0.60771690538E+03  0.00000000000E+00 0. -1.
         25    2    1    2    0    0 -0.12523611330E+03 -0.51927411786E+02 -0.34649994878E+03  0.39254430321E+03  0.12509306657E+03 0.  0.
          5    1    3    3  502    0 -0.72972081142E+02  0.15792902208E+02 -0.26110024906E+03  0.27159740950E+03  0.41800000000E+01 0.  1.
         -5    1    3    3    0  502 -0.52264032156E+02 -0.67720313994E+02 -0.85399699720E+02  0.12094689371E+03  0.41800000000E+01 0.  1.
        -11    1    1    2    0    0  0.13771680659E+03  0.47421817562E+02 -0.20583965610E+03  0.25216009126E+03  0.00000000000E+00 0. -1.
         11    1    1    2    0    0 -0.12480693291E+02  0.45055942241E+01 -0.44077961332E+01  0.13982015273E+02  0.00000000000E+00 0.  1.
</event>
<event>
 7    1  0.2601031E-009  0.1202858E+03  0.7561462E-02  0.1242626E+00
          2   -1    0    0  501    0  0.00000000000E+00  0.00000000000E+00  0.49065506563E+03  0.49065506563E+03  0.00000000000E+00 0. -1.
         -2   -1    0    0    0  501 -0.00000000000E+00 -0.00000000000E+00 -0.37961123369E+02  0.37961123369E+02  0.00000000000E+00 0.  1.
         25    2    1    2    0    0  0.25711088250E+02 -0.58208039126E+02  0.14897842943E+03  0.20467257548E+03  0.12508818826E+03 0.  0.
          5    1    3    3  502    0  0.69804048249E+02 -0.48320244642E+02  0.13035426650E+03  0.15561863124E+03  0.41800000000E+01 0. -1.
         -5    1    3    3    0  502 -0.44092959998E+02 -0.98877944840E+01  0.18624162926E+02  0.49053944244E+02  0.41800000000E+01 0. -1.
        -11    1    1    2    0    0  0.13527986667E+02 -0.19152301222E+02  0.40438664936E+02  0.46745081957E+02  0.00000000000E+00 0.  1.
         11    1    1    2    0    0 -0.39239074918E+02  0.77360340348E+02  0.26327684790E+03  0.27719853156E+03  0.00000000000E+00 0. -1.
</event>
<event>
 7    1  0.2601031E-009  0.2547963E+03  0.7561462E-02  0.1110311E+00
         -2   -1    0    0    0  501 -0.00000000000E+00  0.00000000000E+00  0.29729668661E+03  0.29729668661E+03  0.00000000000E+00 0.  1.
          2   -1    0    0  501    0  0.00000000000E+00 -0.00000000000E+00 -0.29721952932E+03  0.29721952932E+03  0.00000000000E+00 0. -1.
         25    2    1    2    0    0 -0.88083697685E+02  0.22821788257E+03  0.12977542914E+03  0.30386111796E+03  0.12509107592E+03 0.  0.
          5    1    3    3  502    0 -0.68018490310E+02  0.90173165278E+02 -0.38156563386E+00  0.11302801756E+03  0.41800000000E+01 0.  1.
         -5    1    3    3    0  502 -0.20065207375E+02  0.13804471729E+03  0.13015699478E+03  0.19083310040E+03  0.41800000000E+01 0.  1.
        -11    1    1    2    0    0  0.72663110696E+02 -0.80332373541E+02 -0.77024183762E+02  0.13291329045E+03  0.00000000000E+00 0. -1.
         11    1    1    2    0    0  0.15420586990E+02 -0.14788550903E+03 -0.52674088093E+02  0.15774180752E+03  0.00000000000E+00 0.  1.
</event>
<event>
 7    1  0.2601031E-009  0.9603371E+02  0.7561462E-02  0.1288865E+00
          2   -1    0    0  501    0  0.00000000000E+00  0.00000000000E+00  0.31022864714E+03  0.31022864714E+03  0.00000000000E+00 0. -1.
         -2   -1    0    0    0  501 -0.00000000000E+00 -0.00000000000E+00 -0.91814254174E+02  0.91814254174E+02  0.00000000000E+00 0.  1.
         25    2    1    2    0    0 -0.29846402092E+02 -0.22431585083E+02  0.26306445036E+03  0.29367451212E+03  0.12509128786E+03 0.  0.
          5    1    3    3  502    0 -0.53147232520E+02  0.10287948389E+02  0.24221322740E+03  0.24822407243E+03  0.41800000000E+01 0.  1.
         -5    1    3    3    0  502  0.23300830427E+02 -0.32719533472E+02  0.20851222965E+02  0.45450439694E+02  0.41800000000E+01 0.  1.
        -11    1    1    2    0    0  0.11429592611E+02  0.57045240822E+02 -0.17775433974E+02  0.60833881519E+02  0.00000000000E+00 0. -1.
         11    1    1    2    0    0  0.18416809481E+02 -0.34613655739E+02 -0.26874623425E+02  0.47534507669E+02  0.00000000000E+00 0.  1.
</event>
<event>
 7    1  0.2601031E-009  0.1122976E+03  0.7561462E-02  0.1256373E+00
         -1   -1    0    0    0  501 -0.00000000000E+00  0.00000000000E+00  0.43676533096E+03  0.43676533096E+03  0.00000000000E+00 0.  1.
          1   -1    0    0  501    0  0.00000000000E+00 -0.00000000000E+00 -0.50385334882E+02  0.50385334882E+02  0.00000000000E+00 0. -1.
         25    2    1    2    0    0  0.65211111255E+02 -0.64985623869E+02  0.14281755180E+03  0.21099274787E+03  0.12508183806E+03 0.  0.
          5    1    3    3  502    0  0.57763761839E+02 -0.46891528637E+02  0.16504413741E+03  0.18108701592E+03  0.41800000000E+01 0. -1.
         -5    1    3    3    0  502  0.74473494161E+01 -0.18094095232E+02 -0.22226585615E+02  0.29905731954E+02  0.41800000000E+01 0. -1.
        -11    1    1    2    0    0  0.22563184986E+02  0.24814144286E+02  0.58464899715E+02  0.67401658526E+02  0.00000000000E+00 0. -1.
         11    1    1    2    0    0 -0.87774296241E+02  0.40171479584E+02  0.18509754456E+03  0.20875625944E+03  0.00000000000E+00 0.  1.
</event>
<event>
 7    1  0.2601031E-009  0.1387186E+03  0.7561462E-02  0.1215064E+00
          2   -1    0    0  501    0  0.00000000000E+00  0.00000000000E+00  0.48247353500E+03  0.48247353500E+03  0.00000000000E+00 0. -1.
         -2   -1    0    0    0  501 -0.00000000000E+00 -0.00000000000E+00 -0.41608051265E+02  0.41608051265E+02  0.00000000000E+00 0.  1.
         25    2    1    2    0    0 -0.92966815977E+01  0.89526415198E+02  0.22898504732E+03  0.27601164425E+03  0.12508744364E+03 0.  0.
          5    1    3    3  502    0 -0.51868813976E+02  0.97081853445E+02  0.15370545805E+03  0.18909812365E+03  0.41800000000E+01 0.  1.
         -5    1    3    3    0  502  0.42572132379E+02 -0.75554382471E+01  0.75279589271E+02  0.86913520601E+02  0.41800000000E+01 0.  1.
        -11    1    1    2    0    0  0.14287016961E+02 -0.10583473799E+03  0.15170918135E+03  0.18552839763E+03  0.00000000000E+00 0.  1.
         11    1    1    2    0    0 -0.49903353636E+01  0.16308322793E+02  0.60171255058E+02  0.62541544390E+02  0.00000000000E+00 0. -1.
</event>
<event>
 7    1  0.2601031E-009  0.1130530E+03  0.7561462E-02  0.1255018E+00
          1   -1    0    0  501    0  0.00000000000E+00  0.00000000000E+00  0.17368046653E+03  0.17368046653E+03  0.00000000000E+00 0. -1.
         -1   -1    0    0    0  501 -0.00000000000E+00 -0.00000000000E+00 -0.84868097031E+02  0.84868097031E+02  0.00000000000E+00 0.  1.
         25    2    1    2    0    0 -0.27366289325E+02 -0.40789613109E+02  0.64207990850E+02  0.14893503281E+03  0.12508505738E+03 0.  0.
          5    1    3    3  502    0  0.22684702328E+02  0.34210748583E+02  0.64197871744E+01  0.41757120419E+02  0.41800000000E+01 0. -1.
         -5    1    3    3    0  502 -0.50050991653E+02 -0.75000361692E+02  0.57788203675E+02  0.10717791239E+03  0.41800000000E+01 0. -1.
        -11    1    1    2    0    0 -0.23887672640E+02 -0.65930625363E+01 -0.15386237716E+02  0.29168916484E+02  0.00000000000E+00 0.  1.
         11    1    1    2    0    0  0.51253961965E+02  0.47382675645E+02  0.39990616366E+02  0.80444614274E+02  0.00000000000E+00 0. -1.
</event>
<event>
 7    1  0.2601031E-009  0.2028454E+03  0.7561462E-02  0.1147360E+00
         -2   -1    0    0    0  501 -0.00000000000E+00  0.00000000000E+00  0.57134898794E+03  0.57134898794E+03  0.00000000000E+00 0. -1.
          2   -1    0    0  501    0  0.00000000000E+00 -0.00000000000E+00 -0.99263169863E+02  0.99263169863E+02  0.00000000000E+00 0.  1.
         25    2    1    2    0    0 -0.15986921048E+03  0.84463721714E+02  0.88931402438E+02  0.23716871301E+03  0.12509164378E+03 0.  0.
          5    1    3    3  502    0 -0.40871363532E+02  0.90778736625E+02  0.29366699550E+02  0.10388032933E+03  0.41800000000E+01 0.  1.
         -5    1    3    3    0  502 -0.11899784695E+03 -0.63150149102E+01  0.59564702888E+02  0.13328838368E+03  0.41800000000E+01 0.  1.
        -11    1    1    2    0    0  0.23425242098E+02 -0.34091934714E+02  0.28804383583E+02  0.50405302236E+02  0.00000000000E+00 0.  1.
         11    1    1    2    0    0  0.13644396839E+03 -0.50371787000E+02  0.35435003205E+03  0.38303814255E+03  0.00000000000E+00 0. -1.
</event>
<event>
 7    1  0.2601031E-009  0.1333996E+03  0.7561462E-02  0.1222497E+00
         -2   -1    0    0    0  501 -0.00000000000E+00  0.00000000000E+00  0.74594549361E+02  0.74594549361E+02  0.00000000000E+00 0.  1.
          2   -1    0    0  501    0  0.00000000000E+00 -0.00000000000E+00 -0.29294510792E+03  0.29294510792E+03  0.00000000000E+00 0. -1.
         25    2    1    2    0    0  0.98024610409E+02  0.26230085193E+02 -0.12907044012E+03  0.20640438553E+03  0.12508697069E+03 0.  0.
          5    1    3    3  502    0  0.12435975397E+03  0.35542735427E+02 -0.87747959523E+02  0.15635156299E+03  0.41800000000E+01 0.  1.
         -5    1    3    3    0  502 -0.26335143564E+02 -0.93126502344E+01 -0.41322480596E+02  0.50052822533E+02  0.41800000000E+01 0.  1.
        -11    1    1    2    0    0 -0.59132864945E+01  0.87988065024E+01 -0.56189647206E+02  0.57180961921E+02  0.00000000000E+00 0. -1.
         11    1    1    2    0    0 -0.92111323914E+02 -0.35028891695E+02 -0.33090471235E+02  0.10395430983E+03  0.00000000000E+00 0.  1.
</event>
<event>
 7    1  0.2601031E-009  0.2152082E+03  0.7561462E-02  0.1137507E+00
          2   -1    0    0  501    0  0.00000000000E+00  0.00000000000E+00  0.20862979027E+04  0.20862979027E+04  0.00000000000E+00 0. -1.
         -2   -1    0    0    0  501 -0.00000000000E+00 -0.00000000000E+00 -0.25900440365E+02  0.25900440365E+02  0.00000000000E+00 0.  1.
         25    2    1    2    0    0 -0.19609442278E+03  0.43336914868E+02  0.12593493307E+04  0.12813817160E+04  0.12508898586E+03 0.  0.
          5    1    3    3  502    0 -0.28327788475E+02 -0.32782799992E+02  0.12990844017E+03  0.13700675459E+03  0.41800000000E+01 0. -1.
         -5    1    3    3    0  502 -0.16776663430E+03  0.76119714861E+02  0.11294408906E+04  0.11443749614E+04  0.41800000000E+01 0. -1.
        -11    1    1    2    0    0  0.18752984422E+02 -0.12691604197E+02  0.23195297939E+02  0.32415630309E+02  0.00000000000E+00 0. -1.
         11    1    1    2    0    0  0.17734143836E+03 -0.30645310671E+02  0.77785283367E+03  0.79840099679E+03  0.00000000000E+00 0.  1.
</event>
<event>
 7    1  0.2601031E-009  0.1229082E+03  0.7561462E-02  0.1238375E+00
          4   -1    0    0  501    0  0.00000000000E+00  0.00000000000E+00  0.17724081009E+03  0.17724081009E+03  0.00000000000E+00 0. -1.
         -4   -1    0    0    0  501 -0.00000000000E+00 -0.00000000000E+00 -0.86753721123E+02  0.86753721123E+02  0.00000000000E+00 0.  1.
         25    2    1    2    0    0 -0.33052587802E+02  0.48634290581E+02  0.49292866808E+02  0.14674746726E+03  0.12508902690E+03 0.  0.
          5    1    3    3  502    0  0.33024527946E+02 -0.22937500356E+02  0.18861002542E+02  0.44608947370E+02  0.41800000000E+01 0.  1.
         -5    1    3    3    0  502 -0.66077115748E+02  0.71571790936E+02  0.30431864267E+02  0.10213851989E+03  0.41800000000E+01 0.  1.
        -11    1    1    2    0    0 -0.31265126205E+02 -0.22240917098E+02  0.25212803073E+02  0.45911348802E+02  0.00000000000E+00 0.  1.
         11    1    1    2    0    0  0.64317714008E+02 -0.26393373482E+02  0.15981419080E+02  0.71335715141E+02  0.00000000000E+00 0. -1.
</event>
<event>
 7    1  0.2601031E-009  0.8825511E+02  0.7561462E-02  0.1307133E+00
         -1   -1    0    0    0  501 -0.00000000000E+00  0.00000000000E+00  0.14351882465E+03  0.14351882465E+03  0.00000000000E+00 0.  1.
          1   -1    0    0  501    0  0.00000000000E+00 -0.00000000000E+00 -0.97220043023E+02  0.97220043023E+02  0.00000000000E+00 0. -1.
         25    2    1    2    0    0  0.14963650559E+02 -0.39264347165E+02  0.11547481859E+02  0.13246914049E+03  0.12509647896E+03 0.  0.
          5    1    3    3  502    0 -0.40324921971E+02  0.13013987359E+02 -0.23452458137E+02  0.48610219004E+02  0.41800000000E+01 0. -1.
         -5    1    3    3    0  502  0.55288572529E+02 -0.52278334524E+02  0.34999939996E+02  0.83858921485E+02  0.41800000000E+01 0. -1.
        -11    1    1    2    0    0 -0.85952845562E+01 -0.69630950318E+01 -0.27979068360E+02  0.30086406820E+02  0.00000000000E+00 0. -1.
         11    1    1    2    0    0 -0.63683660023E+01  0.46227442197E+02  0.62730368126E+02  0.78183320362E+02  0.00000000000E+00 0.  1.
</event>
<event>
 7    1  0.2601031E-009  0.1677106E+03  0.7561462E-02  0.1180257E+00
         -1   -1    0    0    0  501 -0.00000000000E+00  0.00000000000E+00  0.29757714807E+03  0.29757714807E+03  0.00000000000E+00 0.  1.
          1   -1    0    0  501    0  0.00000000000E+00 -0.00000000000E+00 -0.11107303029E+03  0.11107303029E+03  0.00000000000E+00 0. -1.
         25    2    1    2    0    0  0.55591649576E+02  0.12832944157E+03  0.69006082026E+02  0.19992361838E+03  0.12509491098E+03 0.  0.
          5    1    3    3  502    0  0.88380100439E+02  0.12367731860E+03  0.44279594002E+02  0.15838332025E+03  0.41800000000E+01 0. -1.
         -5    1    3    3    0  502 -0.32788450863E+02  0.46521229685E+01  0.24726488025E+02  0.41540298123E+02  0.41800000000E+01 0. -1.
        -11    1    1    2    0    0 -0.31705934365E+02 -0.16734178101E+02 -0.10386231179E+02  0.37325229922E+02  0.00000000000E+00 0. -1.
         11    1    1    2    0    0 -0.23885715211E+02 -0.11159526347E+03  0.12788426693E+03  0.17140133007E+03  0.00000000000E+00 0.  1.
</event>
<event>
 7    1  0.2601031E-009  0.1188429E+03  0.7561462E-02  0.1245018E+00
         -2   -1    0    0    0  501 -0.00000000000E+00  0.00000000000E+00  0.16675575036E+02  0.16675575036E+02  0.00000000000E+00 0.  1.
          2   -1    0    0  501    0  0.00000000000E+00 -0.00000000000E+00 -0.11226937070E+04  0.11226937070E+04  0.00000000000E+00 0. -1.
         25    2    1    2    0    0  0.53889656249E+02  0.24004911598E+02 -0.85653321396E+03  0.86762707158E+03  0.12508899985E+03 0.  0.
          5    1    3    3  502    0  0.80099825276E+02 -0.23695261429E+02 -0.50376148283E+03  0.51065698018E+03  0.41800000000E+01 0.  1.
         -5    1    3    3    0  502 -0.26210169027E+02  0.47700173026E+02 -0.35277173113E+03  0.35697009140E+03  0.41800000000E+01 0.  1.
        -11    1    1    2    0    0 -0.54483646380E+02 -0.49708644069E+02 -0.12945895391E+03  0.14899341518E+03  0.00000000000E+00 0.  1.
         11    1    1    2    0    0  0.59399013057E+00  0.25703732471E+02 -0.12002596410E+03  0.12274879529E+03  0.00000000000E+00 0. -1.
</event>
<event>
 7    1  0.2601031E-009  0.2839998E+03  0.7561462E-02  0.1093524E+00
          1   -1    0    0  501    0  0.00000000000E+00  0.00000000000E+00  0.69832298350E+03  0.69832298350E+03  0.00000000000E+00 0. -1.
         -1   -1    0    0    0  501 -0.00000000000E+00 -0.00000000000E+00 -0.18654297656E+03  0.18654297656E+03  0.00000000000E+00 0.  1.
         25    2    1    2    0    0  0.25734518379E+03  0.11411812929E+03  0.16084056458E+02  0.30847293134E+03  0.12508941381E+03 0.  0.
          5    1    3    3  502    0  0.23175746064E+03  0.10983628333E+03  0.54210837632E+02  0.26216753615E+03  0.41800000000E+01 0.  1.
         -5    1    3    3    0  502  0.25587723151E+02  0.42818459622E+01 -0.38126781175E+02  0.46305395189E+02  0.41800000000E+01 0.  1.
        -11    1    1    2    0    0 -0.63028111399E+02 -0.50468338881E+02  0.82868678784E+02  0.11570140008E+03  0.00000000000E+00 0.  1.
         11    1    1    2    0    0 -0.19431707239E+03 -0.63649790410E+02  0.41282727170E+03  0.46069162864E+03  0.00000000000E+00 0. -1.
</event>
<event>
 7    1  0.2601031E-009  0.1170070E+03  0.7561462E-02  0.1248118E+00
         -2   -1    0    0    0  501 -0.00000000000E+00  0.00000000000E+00  0.29832746802E+02  0.29832746802E+02  0.00000000000E+00 0.  1.
          2   -1    0    0  501    0  0.00000000000E+00 -0.00000000000E+00 -0.52004540946E+03  0.52004540946E+03  0.00000000000E+00 0. -1.
         25    2    1    2    0    0 -0.45972846971E+02 -0.10295574709E+02 -0.18680115664E+03  0.22969797757E+03  0.12508791812E+03 0.  0.
          5    1    3    3  502    0 -0.30490471651E+02 -0.66530370438E+02 -0.12271708174E+03  0.14294374279E+03  0.41800000000E+01 0.  1.
         -5    1    3    3    0  502 -0.15482375320E+02  0.56234795729E+02 -0.64084074903E+02  0.86754234780E+02  0.41800000000E+01 0.  1.
        -11    1    1    2    0    0  0.14334437626E+02 -0.40180851531E+02 -0.12312992981E+03  0.13031099933E+03  0.00000000000E+00 0.  1.
         11    1    1    2    0    0  0.31638409345E+02  0.50476426240E+02 -0.18028157620E+03  0.18986917936E+03  0.00000000000E+00 0. -1.
</event>
<event>
 7    1  0.2601031E-009  0.1390180E+03  0.7561462E-02  0.1214656E+00
         -3   -1    0    0    0  501 -0.00000000000E+00  0.00000000000E+00  0.10577971542E+03  0.10577971542E+03  0.00000000000E+00 0.  1.
          3   -1    0    0  501    0  0.00000000000E+00 -0.00000000000E+00 -0.19529626177E+03  0.19529626177E+03  0.00000000000E+00 0. -1.
         25    2    1    2    0    0  0.74771507173E+02 -0.54698059888E+02 -0.65669129373E+02  0.16894753194E+03  0.12509267746E+03 0.  0.
          5    1    3    3  502    0 -0.18054755165E+02 -0.56269598840E+02 -0.43243265510E+02  0.73346399705E+02  0.41800000000E+01 0. -1.
         -5    1    3    3    0  502  0.92826262338E+02  0.15715389528E+01 -0.22425863863E+02  0.95601132233E+02  0.41800000000E+01 0. -1.
        -11    1    1    2    0    0 -0.27524347431E+02  0.70785635218E+02 -0.30364828845E+02  0.81793757008E+02  0.00000000000E+00 0. -1.
         11    1    1    2    0    0 -0.47247159741E+02 -0.16087575330E+02  0.65174118662E+01  0.50334688248E+02  0.00000000000E+00 0.  1.
</event>
<event>
 7    1  0.2601031E-009  0.1558313E+03  0.7561462E-02  0.1193485E+00
          2   -1    0    0  501    0  0.00000000000E+00  0.00000000000E+00  0.22594904381E+03  0.22594904381E+03  0.00000000000E+00 0. -1.
         -2   -1    0    0    0  501 -0.00000000000E+00 -0.00000000000E+00 -0.12542955691E+03  0.12542955691E+03  0.00000000000E+00 0.  1.
         25    2    1    2    0    0 -0.34072893488E+01 -0.12230441505E+03  0.13082775446E+02  0.17546479702E+03  0.12508699540E+03 0.  0.
          5    1    3    3  502    0 -0.48437980167E+02 -0.98102183808E+02  0.41184349240E+02  0.11697820059E+03  0.41800000000E+01 0. -1.
         -5    1    3    3    0  502  0.45030690818E+02 -0.24202231240E+02 -0.28101573794E+02  0.58486596432E+02  0.41800000000E+01 0. -1.
        -11    1    1    2    0    0  0.17427563054E+02  0.13243929875E+03  0.67998910288E+02  0.14989242679E+03  0.00000000000E+00 0.  1.
         11    1    1    2    0    0 -0.14020273706E+02 -0.10134883704E+02  0.19437801161E+02  0.26021376913E+02  0.00000000000E+00 0. -1.
</event>
<event>
 7    1  0.2601031E-009  0.9914487E+02  0.7561462E-02  0.1282104E+00
         -2   -1    0    0    0  501 -0.00000000000E+00  0.00000000000E+00  0.42609127560E+02  0.42609127560E+02  0.00000000000E+00 0. -1.
          2   -1    0    0  501    0  0.00000000000E+00 -0.00000000000E+00 -0.27303205591E+03  0.27303205591E+03  0.00000000000E+00 0.  1.
         25    2    1    2    0    0  0.10760871162E+01 -0.44195600687E+00 -0.13459201697E+03  0.18374735585E+03  0.12508687565E+03 0.  0.
          5    1    3    3  502    0  0.38001512432E+02  0.38995278208E+02 -0.22152247134E+02  0.58931664856E+02  0.41800000000E+01 0. -1.
         -5    1    3    3    0  502 -0.36925425316E+02 -0.39437234215E+02 -0.11243976984E+03  0.12481569099E+03  0.41800000000E+01 0. -1.
        -11    1    1    2    0    0 -0.42609548536E+02 -0.15013106714E+02 -0.58744512390E+02  0.74107251572E+02  0.00000000000E+00 0.  1.
         11    1    1    2    0    0  0.41533461420E+02  0.15455062721E+02 -0.37086398986E+02  0.57786576045E+02  0.00000000000E+00 0. -1.
</event>
<event>
 7    1  0.2601031E-009  0.8360887E+02  0.7561462E-02  0.1319111E+00
          1   -1    0    0  501    0  0.00000000000E+00  0.00000000000E+00  0.27508893782E+03  0.27508893782E+03  0.00000000000E+00 0. -1.
         -1   -1    0    0    0  501 -0.00000000000E+00 -0.00000000000E+00 -0.69551459987E+02  0.69551459987E+02  0.00000000000E+00 0.  1.
         25    2    1    2    0    0 -0.27152371374E+02 -0.12477936862E+02  0.21292397760E+03  0.24874952526E+03  0.12508699333E+03 0.  0.
          5    1    3    3  502    0  0.18370643998E+02 -0.57136325695E+02  0.13620044822E+03  0.14889618789E+03  0.41800000000E+01 0.  1.
         -5    1    3    3    0  502 -0.45523015372E+02  0.44658388834E+02  0.76723529380E+02  0.99853337362E+02  0.41800000000E+01 0.  1.
        -11    1    1    2    0    0  0.17488458830E+02 -0.89469222241E+01 -0.46376085221E+02  0.50365016529E+02  0.00000000000E+00 0.  1.
         11    1    1    2    0    0  0.96639125434E+01  0.21424859086E+02  0.38989585463E+02  0.45525856028E+02  0.00000000000E+00 0. -1.
</event>
<event>
 7    1  0.2601031E-009  0.1147208E+03  0.7561462E-02  0.1252069E+00
          2   -1    0    0  501    0  0.00000000000E+00  0.00000000000E+00  0.47704090358E+03  0.47704090358E+03  0.00000000000E+00 0. -1.
         -2   -1    0    0    0  501 -0.00000000000E+00 -0.00000000000E+00 -0.35423416125E+02  0.35423416125E+02  0.00000000000E+00 0.  1.
         25    2    1    2    0    0 -0.68356872689E+02 -0.19500208855E+02  0.26501012944E+03  0.30155376990E+03  0.12510550446E+03 0.  0.
          5    1    3    3  502    0 -0.66792656567E+02  0.43166180725E+02  0.16887594902E+03  0.18671137268E+03  0.41800000000E+01 0. -1.
         -5    1    3    3    0  502 -0.15642161224E+01 -0.62666389580E+02  0.96134180416E+02  0.11484239722E+03  0.41800000000E+01 0. -1.
        -11    1    1    2    0    0  0.52959446155E+02 -0.98200626996E+01  0.32197610898E+02  0.62752073400E+02  0.00000000000E+00 0.  1.
         11    1    1    2    0    0  0.15397426534E+02  0.29320271554E+02  0.14440974712E+03  0.14815847640E+03  0.00000000000E+00 0. -1.
</event>
<event>
 7    1  0.2601031E-009  0.1076946E+03  0.7561462E-02  0.1264900E+00
          2   -1    0    0  501    0  0.00000000000E+00  0.00000000000E+00  0.19513761652E+03  0.19513761652E+03  0.00000000000E+00 0.  1.
         -2   -1    0    0    0  501 -0.00000000000E+00 -0.00000000000E+00 -0.16546128822E+03  0.16546128822E+03  0.00000000000E+00 0. -1.
         25    2    1    2    0    0 -0.25096938102E+02 -0.18912188587E+02  0.15464876458E+03  0.20137320154E+03  0.12508956285E+03 0.  0.
          5    1    3    3  502    0 -0.59298740097E+02  0.21971234082E+02  0.40197888979E+02  0.75049439589E+02  0.41800000000E+01 0. -1.
         -5    1    3    3    0  502  0.34201801995E+02 -0.40883422668E+02  0.11445087560E+03  0.12632376195E+03  0.41800000000E+01 0. -1.
        -11    1    1    2    0    0 -0.24801368930E+02 -0.22663866088E+02 -0.46350569975E+02  0.57246258077E+02  0.00000000000E+00 0.  1.
         11    1    1    2    0    0  0.49898307032E+02  0.41576054675E+02 -0.78621866301E+02  0.10197944512E+03  0.00000000000E+00 0. -1.
</event>
<event>
 7    1  0.2601031E-009  0.1117499E+03  0.7561462E-02  0.1257363E+00
          2   -1    0    0  501    0  0.00000000000E+00  0.00000000000E+00  0.29793260769E+02  0.29793260769E+02  0.00000000000E+00 0.  1.
         -2   -1    0    0    0  501 -0.00000000000E+00 -0.00000000000E+00 -0.69708129015E+03  0.69708129015E+03  0.00000000000E+00 0. -1.
         25    2    1    2    0    0 -0.34828396366E+02  0.70914215903E+02 -0.49911673359E+03  0.52058482507E+03  0.12509677507E+03 0.  0.
          5    1    3    3  502    0  0.38365611770E+02  0.21749209434E+02 -0.29345184864E+03  0.29677669745E+03  0.41800000000E+01 0. -1.
         -5    1    3    3    0  502 -0.73194008136E+02  0.49165006468E+02 -0.20566488494E+03  0.22380812762E+03  0.41800000000E+01 0. -1.
        -11    1    1    2    0    0  0.12622392556E+02 -0.67247004151E+02 -0.46911419959E+02  0.82958819204E+02  0.00000000000E+00 0.  1.
         11    1    1    2    0    0  0.22206003810E+02 -0.36672117514E+01 -0.12125987583E+03  0.12333090664E+03  0.00000000000E+00 0. -1.
</event>
<event>
 7    1  0.2601031E-009  0.1565268E+03  0.7561462E-02  0.1192675E+00
          1   -1    0    0  501    0  0.00000000000E+00  0.00000000000E+00  0.10559106663E+03  0.10559106663E+03  0.00000000000E+00 0. -1.
         -1   -1    0    0    0  501 -0.00000000000E+00 -0.00000000000E+00 -0.27885964018E+03  0.27885964018E+03  0.00000000000E+00 0.  1.
         25    2    1    2    0    0  0.11381731279E+03  0.65910041031E+02 -0.10093252187E+03  0.20768516636E+03  0.12508892900E+03 0.  0.
          5    1    3    3  502    0  0.10974840645E+03 -0.44136624658E+01 -0.50572740668E+02  0.12099284124E+03  0.41800000000E+01 0. -1.
         -5    1    3    3    0  502  0.40689063443E+01  0.70323703496E+02 -0.50359781201E+02  0.86692325121E+02  0.41800000000E+01 0. -1.
        -11    1    1    2    0    0 -0.44330815215E+02 -0.16469282910E+02 -0.78087442869E+02  0.91291331413E+02  0.00000000000E+00 0.  1.
         11    1    1    2    0    0 -0.69486497574E+02 -0.49440758121E+02  0.57513911885E+01  0.85474209030E+02  0.00000000000E+00 0. -1.
</event>
<event>
 7    1  0.2601031E-009  0.7649780E+02  0.7561462E-02  0.1339295E+00
          2   -1    0    0  501    0  0.00000000000E+00  0.00000000000E+00  0.43759707638E+03  0.43759707638E+03  0.00000000000E+00 0. -1.
         -2   -1    0    0    0  501 -0.00000000000E+00 -0.00000000000E+00 -0.26951271765E+02  0.26951271765E+02  0.00000000000E+00 0.  1.
         25    2    1    2    0    0  0.16413800251E+02  0.20056892185E+02  0.28568245487E+03  0.31294319530E+03  0.12508911503E+03 0.  0.
          5    1    3    3  502    0  0.44581048672E+02  0.31395596214E+02  0.27515298275E+03  0.28053482792E+03  0.41800000000E+01 0. -1.
         -5    1    3    3    0  502 -0.28167248421E+02 -0.11338704029E+02  0.10529472125E+02  0.32408367375E+02  0.41800000000E+01 0. -1.
        -11    1    1    2    0    0  0.15148995085E+01 -0.40465352233E+02  0.11621245686E+03  0.12306532729E+03  0.00000000000E+00 0. -1.
         11    1    1    2    0    0 -0.17928699759E+02  0.20408460048E+02  0.87508928847E+01  0.28539825558E+02  0.00000000000E+00 0.  1.
</event>
<event>
 7    1  0.2601031E-009  0.1993010E+03  0.7561462E-02  0.1150330E+00
          1   -1    0    0  501    0  0.00000000000E+00  0.00000000000E+00  0.45544724664E+03  0.45544724664E+03  0.00000000000E+00 0. -1.
         -1   -1    0    0    0  501 -0.00000000000E+00 -0.00000000000E+00 -0.10813453755E+03  0.10813453755E+03  0.00000000000E+00 0.  1.
         25    2    1    2    0    0  0.17080022692E+03  0.65848139891E+02  0.26015034730E+03  0.34181016575E+03  0.12508913288E+03 0.  0.
          5    1    3    3  502    0  0.12367096270E+03  0.77471016376E+02  0.10674586472E+03  0.18085468595E+03  0.41800000000E+01 0. -1.
         -5    1    3    3    0  502  0.47129264226E+02 -0.11622876485E+02  0.15340448257E+03  0.16095547980E+03  0.41800000000E+01 0. -1.
        -11    1    1    2    0    0 -0.10080849054E+03  0.92490052638E+01  0.45365949165E+02  0.11093225503E+03  0.00000000000E+00 0. -1.
         11    1    1    2    0    0 -0.69991736389E+02 -0.75097145155E+02  0.41796412634E+02  0.11083936342E+03  0.00000000000E+00 0.  1.
</event>
<event>
 7    1  0.2601031E-009  0.1937430E+03  0.7561462E-02  0.1155128E+00
          2   -1    0    0  501    0  0.00000000000E+00  0.00000000000E+00  0.68154497743E+03  0.68154497743E+03  0.00000000000E+00 0. -1.
         -2   -1    0    0    0  501 -0.00000000000E+00 -0.00000000000E+00 -0.63017245354E+02  0.63017245354E+02  0.00000000000E+00 0.  1.
         25    2    1    2    0    0  0.16956635051E+03  0.48042555376E+01  0.23289742743E+03  0.31411497767E+03  0.12510467377E+03 0.  0.
          5    1    3    3  502    0  0.12815937500E+03  0.58191705797E+02  0.13484604655E+03  0.19496673740E+03  0.41800000000E+01 0.  1.
         -5    1    3    3    0  502  0.41406975505E+02 -0.53387450260E+02  0.98051380884E+02  0.11914824027E+03  0.41800000000E+01 0.  1.
        -11    1    1    2    0    0 -0.66840684053E+02 -0.29914821336E+02  0.87403249480E+02  0.11402588127E+03  0.00000000000E+00 0. -1.
         11    1    1    2    0    0 -0.10272566645E+03  0.25110565799E+02  0.29822705516E+03  0.31642136384E+03  0.00000000000E+00 0.  1.
</event>
<event>
 7    1  0.2601031E-009  0.1061812E+03  0.7561462E-02  0.1267810E+00
         -1   -1    0    0    0  501 -0.00000000000E+00  0.00000000000E+00  0.57027181572E+02  0.57027181572E+02  0.00000000000E+00 0.  1.
          1   -1    0    0  501    0  0.00000000000E+00 -0.00000000000E+00 -0.26904068223E+03  0.26904068223E+03  0.00000000000E+00 0. -1.
         25    2    1    2    0    0 -0.31954246052E+02  0.46867070788E+02 -0.90096422695E+02  0.16426254708E+03  0.12508885972E+03 0.  0.
          5    1    3    3  502    0 -0.52627424698E+02  0.78121788389E+02 -0.42186819528E+02  0.10329501340E+03  0.41800000000E+01 0.  1.
         -5    1    3    3    0  502  0.20673178646E+02 -0.31254717601E+02 -0.47909603166E+02  0.60967533681E+02  0.41800000000E+01 0.  1.
        -11    1    1    2    0    0  0.48601015100E+02 -0.33645561949E+02 -0.12688138901E+03  0.13997488841E+03  0.00000000000E+00 0. -1.
         11    1    1    2    0    0 -0.16646769048E+02 -0.13221508839E+02  0.49643110549E+01  0.21830428305E+02  0.00000000000E+00 0.  1.
</event>
<event>
 7    1  0.2601031E-009  0.1915248E+03  0.7561462E-02  0.1157093E+00
          3   -1    0    0  501    0  0.00000000000E+00  0.00000000000E+00  0.27453119076E+02  0.27453119076E+02  0.00000000000E+00 0. -1.
         -3   -1    0    0    0  501 -0.00000000000E+00 -0.00000000000E+00 -0.14781862692E+04  0.14781862692E+04  0.00000000000E+00 0.  1.
         25    2    1    2    0    0 -0.10966811750E+03 -0.12731072121E+03 -0.81214670593E+03  0.83872810708E+03  0.12508976749E+03 0.  0.
          5    1    3    3  502    0 -0.97311139288E+02 -0.42034471764E+02 -0.60668836720E+03  0.61589333650E+03  0.41800000000E+01 0.  1.
         -5    1    3    3    0  502 -0.12356978216E+02 -0.85276249442E+02 -0.20545833873E+03  0.22283477059E+03  0.41800000000E+01 0.  1.
        -11    1    1    2    0    0  0.73108232643E+02  0.17798525133E+02 -0.21111354770E+03  0.22412168837E+03  0.00000000000E+00 0.  1.
         11    1    1    2    0    0  0.36559884860E+02  0.10951219607E+03 -0.42747289651E+03  0.44278959283E+03  0.00000000000E+00 0. -1.
</event>
<event>
 7    1  0.2601031E-009  0.2739021E+03  0.7561462E-02  0.1099067E+00
         -2   -1    0    0    0  501 -0.00000000000E+00  0.00000000000E+00  0.38024425431E+02  0.38024425431E+02  0.00000000000E+00 0.  1.
          2   -1    0    0  501    0  0.00000000000E+00 -0.00000000000E+00 -0.22245288787E+04  0.22245288787E+04  0.00000000000E+00 0. -1.
         25    2    1    2    0    0 -0.20439036403E+03  0.15100865537E+03 -0.77240978803E+03  0.82270468203E+03  0.12508828196E+03 0.  0.
          5    1    3    3  502    0 -0.10295314737E+03  0.14253215119E+03 -0.40735005901E+03  0.44369618846E+03  0.41800000000E+01 0.  1.
         -5    1    3    3    0  502 -0.10143721665E+03  0.84765041728E+01 -0.36505972902E+03  0.37900849357E+03  0.41800000000E+01 0.  1.
        -11    1    1    2    0    0  0.44571368691E+02 -0.87267417734E+02 -0.57573192132E+03  0.58401151901E+03  0.00000000000E+00 0. -1.
         11    1    1    2    0    0  0.15981899534E+03 -0.63741237633E+02 -0.83836274392E+03  0.85583710309E+03  0.00000000000E+00 0.  1.
</event>
<event>
 7    1  0.2626619E-009  0.1532455E+03  0.7561462E-02  0.1196541E+00
          1   -1    0    0  501    0  0.00000000000E+00  0.00000000000E+00  0.53257095482E+03  0.53257095482E+03  0.00000000000E+00 0. -1.
         -1   -1    0    0    0  501 -0.00000000000E+00 -0.00000000000E+00 -0.62468222757E+02  0.62468222757E+02  0.00000000000E+00 0.  1.
         25    2    1    2    0    0  0.61801864641E+02 -0.12660034652E+03  0.31023761826E+03  0.36296212974E+03  0.12508800753E+03 0.  0.
          5    1    3    3  502    0  0.18198341209E+01 -0.95283704487E+02  0.85086975933E+02  0.12782629624E+03  0.41800000000E+01 0. -1.
         -5    1    3    3    0  502  0.59982030520E+02 -0.31316642031E+02  0.22515064233E+03  0.23513583350E+03  0.41800000000E+01 0. -1.
        -11    1    1    2    0    0 -0.55612502399E+02  0.87226144518E+02  0.16194529060E+03  0.19216510572E+03  0.00000000000E+00 0. -1.
         11    1    1    2    0    0 -0.61893622419E+01  0.39374202000E+02 -0.20801767957E+01  0.39911942118E+02  0.00000000000E+00 0.  1.
</event>
<event>
 7    1  0.2601031E-009  0.2011202E+03  0.7561462E-02  0.1148797E+00
          2   -1    0    0  501    0  0.00000000000E+00  0.00000000000E+00  0.44058512545E+03  0.44058512545E+03  0.00000000000E+00 0. -1.
         -2   -1    0    0    0  501 -0.00000000000E+00 -0.00000000000E+00 -0.11253421228E+03  0.11253421228E+03  0.00000000000E+00 0.  1.
         25    2    1    2    0    0 -0.55735694865E+02 -0.16748661235E+03  0.26992901834E+03  0.34592985580E+03  0.12509019625E+03 0.  0.
          5    1    3    3  502    0 -0.67394999945E+02 -0.18327686850E+03  0.23427586390E+03  0.30501663782E+03  0.41800000000E+01 0.  1.
         -5    1    3    3    0  502  0.11659305080E+02  0.15790256147E+02  0.35653154437E+02  0.40913217979E+02  0.41800000000E+01 0.  1.
        -11    1    1    2    0    0 -0.62063161920E+01  0.76679544184E+02 -0.10444507124E+02  0.77636064982E+02  0.00000000000E+00 0.  1.
         11    1    1    2    0    0  0.61942011057E+02  0.90807068167E+02  0.68566401959E+02  0.12955341694E+03  0.00000000000E+00 0. -1.
</event>
<event>
 7    1  0.2601031E-009  0.9826486E+02  0.7561462E-02  0.1283988E+00
          1   -1    0    0  501    0  0.00000000000E+00  0.00000000000E+00  0.47673945275E+03  0.47673945275E+03  0.00000000000E+00 0. -1.
         -1   -1    0    0    0  501 -0.00000000000E+00 -0.00000000000E+00 -0.26945883704E+02  0.26945883704E+02  0.00000000000E+00 0.  1.
         25    2    1    2    0    0  0.31471747931E+02 -0.30007041445E+02  0.25833138423E+03  0.29029880526E+03  0.12508956314E+03 0.  0.
          5    1    3    3  502    0 -0.23781737891E+02  0.27077233445E+02  0.15874073259E+03  0.16283378093E+03  0.41800000000E+01 0. -1.
         -5    1    3    3    0  502  0.55253485822E+02 -0.57084274889E+02  0.99590651642E+02  0.12746502434E+03  0.41800000000E+01 0. -1.
        -11    1    1    2    0    0 -0.48249231804E+02  0.23000953322E+01  0.55305408144E+02  0.73430014151E+02  0.00000000000E+00 0.  1.
         11    1    1    2    0    0  0.16777483873E+02  0.27706946112E+02  0.13615677667E+03  0.13995651704E+03  0.00000000000E+00 0. -1.
</event>
<event>
 7    1  0.2601031E-009  0.1466437E+03  0.7561462E-02  0.1204659E+00
         -1   -1    0    0    0  501 -0.00000000000E+00  0.00000000000E+00  0.97672626480E+01  0.97672626480E+01  0.00000000000E+00 0.  1.
          1   -1    0    0  501    0  0.00000000000E+00 -0.00000000000E+00 -0.29092277185E+04  0.29092277185E+04  0.00000000000E+00 0. -1.
         25    2    1    2    0    0 -0.56359780700E+02  0.96997499620E+02 -0.20833091966E+04  0.20900745514E+04  0.12509788877E+03 0.  0.
          5    1    3    3  502    0 -0.83799421081E+02  0.66014539892E+02 -0.94603987366E+03  0.95204473499E+03  0.41800000000E+01 0. -1.
         -5    1    3    3    0  502  0.27439640381E+02  0.30982959727E+02 -0.11372693230E+04  0.11380298164E+04  0.41800000000E+01 0. -1.
        -11    1    1    2    0    0  0.27055258060E+01  0.17909854693E+02 -0.99659388136E+02  0.10129203527E+03  0.00000000000E+00 0. -1.
         11    1    1    2    0    0  0.53654254893E+02 -0.11490735431E+03 -0.71649187113E+03  0.72762839453E+03  0.00000000000E+00 0.  1.
</event>
<event>
 7    1  0.2601031E-009  0.1503050E+03  0.7561462E-02  0.1200099E+00
         -3   -1    0    0    0  501 -0.00000000000E+00  0.00000000000E+00  0.20499869317E+03  0.20499869317E+03  0.00000000000E+00 0.  1.
          3   -1    0    0  501    0  0.00000000000E+00 -0.00000000000E+00 -0.12346004858E+03  0.12346004858E+03  0.00000000000E+00 0. -1.
         25    2    1    2    0    0 -0.11034707005E+03 -0.10024285542E+02  0.81745399952E+01  0.16730733978E+03  0.12509180897E+03 0.  0.
          5    1    3    3  502    0 -0.81551460897E+02 -0.64387868917E+02  0.15775666493E+02  0.10517976275E+03  0.41800000000E+01 0.  1.
         -5    1    3    3    0  502 -0.28795609155E+02  0.54363583375E+02 -0.76011264976E+01  0.62127577033E+02  0.41800000000E+01 0.  1.
        -11    1    1    2    0    0  0.80013241898E+02  0.42433450844E+02  0.73689680318E+02  0.11675994868E+03  0.00000000000E+00 0.  1.
         11    1    1    2    0    0  0.30333828153E+02 -0.32409165302E+02 -0.32557573163E+00  0.44391453294E+02  0.00000000000E+00 0. -1.
</event>
<event>
 7    1  0.2601031E-009  0.1244670E+03  0.7561462E-02  0.1235905E+00
         -4   -1    0    0    0  501 -0.00000000000E+00  0.00000000000E+00  0.17360458124E+04  0.17360458124E+04  0.00000000000E+00 0. -1.
          4   -1    0    0  501    0  0.00000000000E+00 -0.00000000000E+00 -0.12300476934E+02  0.12300476934E+02  0.00000000000E+00 0.  1.
         25    2    1    2    0    0 -0.14402343601E+01  0.94222707583E+02  0.10830060243E+04  0.10942714424E+04  0.12509175874E+03 0.  0.
          5    1    3    3  502    0  0.34287003004E+02  0.56311253863E+02  0.22048900052E+03  0.23017260401E+03  0.41800000000E+01 0.  1.
         -5    1    3    3    0  502 -0.35727237364E+02  0.37911453720E+02  0.86251702378E+03  0.86409883839E+03  0.41800000000E+01 0.  1.
        -11    1    1    2    0    0  0.14141900676E+02 -0.10969021234E+03  0.56585288393E+03  0.57655999019E+03  0.00000000000E+00 0. -1.
         11    1    1    2    0    0 -0.12701666316E+02  0.15467504755E+02  0.74886427288E+02  0.77514856786E+02  0.00000000000E+00 0.  1.
</event>
<event>
 7    1  0.2601031E-009  0.1037066E+03  0.7561462E-02  0.1272689E+00
          2   -1    0    0  501    0  0.00000000000E+00  0.00000000000E+00  0.50408830385E+03  0.50408830385E+03  0.00000000000E+00 0. -1.
         -2   -1    0    0    0  501 -0.00000000000E+00 -0.00000000000E+00 -0.27473303821E+02  0.27473303821E+02  0.00000000000E+00 0.  1.
         25    2    1    2    0    0 -0.79085000437E+01 -0.45089241378E+02  0.28882954359E+03  0.31806322676E+03  0.12508447908E+03 0.  0.
          5    1    3    3  502    0  0.28187150564E+02  0.22544167568E+02  0.18719570826E+03  0.19068943479E+03  0.41800000000E+01 0. -1.
         -5    1    3    3    0  502 -0.36095650608E+02 -0.67633408946E+02  0.10163383532E+03  0.12737379197E+03  0.41800000000E+01 0. -1.
        -11    1    1    2    0    0  0.74786175132E+01  0.69492959842E+02  0.16840136806E+03  0.18232998095E+03  0.00000000000E+00 0. -1.
         11    1    1    2    0    0  0.42988253051E+00 -0.24403718464E+02  0.19384088384E+02  0.31168399965E+02  0.00000000000E+00 0.  1.
</event>
<event>
 7    1  0.3654259E-009  0.2010078E+03  0.7561462E-02  0.1148892E+00
         -1   -1    0    0    0  501 -0.00000000000E+00  0.00000000000E+00  0.23359473225E+02  0.23359473225E+02  0.00000000000E+00 0.  1.
          1   -1    0    0  501    0  0.00000000000E+00 -0.00000000000E+00 -0.19526861445E+04  0.19526861445E+04  0.00000000000E+00 0. -1.
         25    2    1    2    0    0  0.18194425779E+03 -0.23246142711E+02 -0.95421068035E+03  0.97969938818E+03  0.12509505436E+03 0.  0.
          5    1    3    3  502    0  0.12066312644E+03  0.21990691227E+02 -0.35417484075E+03  0.37483392430E+03  0.41800000000E+01 0. -1.
         -5    1    3    3    0  502  0.61281131350E+02 -0.45236833937E+02 -0.60003583959E+03  0.60486546388E+03  0.41800000000E+01 0. -1.
        -11    1    1    2    0    0 -0.10990369757E+03  0.56600851013E+02 -0.53194463631E+03  0.54612047680E+03  0.00000000000E+00 0.  1.
         11    1    1    2    0    0 -0.72040560212E+02 -0.33354708302E+02 -0.44317135459E+03  0.45022575272E+03  0.00000000000E+00 0. -1.
</event>
<event>
 7    1  0.2601031E-009  0.1242716E+03  0.7561462E-02  0.1236212E+00
          1   -1    0    0  501    0  0.00000000000E+00  0.00000000000E+00  0.20893695264E+04  0.20893695264E+04  0.00000000000E+00 0.  1.
         -1   -1    0    0    0  501 -0.00000000000E+00 -0.00000000000E+00 -0.19408587509E+02  0.19408587509E+02  0.00000000000E+00 0. -1.
         25    2    1    2    0    0  0.57374692168E+02 -0.22145612189E+02  0.19086378304E+04  0.19137206856E+04  0.12508481574E+03 0.  0.
          5    1    3    3  502    0  0.95068008639E+02  0.58474703470E+00  0.13137307457E+04  0.13171728106E+04  0.41800000000E+01 0. -1.
         -5    1    3    3    0  502 -0.37693316471E+02 -0.22730359223E+02  0.59490708472E+03  0.59654787502E+03  0.41800000000E+01 0. -1.
        -11    1    1    2    0    0 -0.64542543541E+01 -0.33280863486E+02  0.58797628676E+02  0.67870718366E+02  0.00000000000E+00 0.  1.
         11    1    1    2    0    0 -0.50920437814E+02  0.55426475675E+02  0.10252547979E+03  0.12718671000E+03  0.00000000000E+00 0. -1.
</event>
<event>
 7    1  0.2601031E-009  0.1104545E+03  0.7561462E-02  0.1259730E+00
          1   -1    0    0  501    0  0.00000000000E+00  0.00000000000E+00  0.61800428108E+03  0.61800428108E+03  0.00000000000E+00 0. -1.
         -1   -1    0    0    0  501 -0.00000000000E+00 -0.00000000000E+00 -0.29638518320E+02  0.29638518320E+02  0.00000000000E+00 0.  1.
         25    2    1    2    0    0 -0.14093830756E+02 -0.21392995768E+02  0.14064663443E+03  0.18996049585E+03  0.12508883992E+03 0.  0.
          5    1    3    3  502    0  0.55039101768E+02 -0.16177995848E+02  0.53824998106E+02  0.78775840803E+02  0.41800000000E+01 0. -1.
         -5    1    3    3    0  502 -0.69132932524E+02 -0.52149999198E+01  0.86821636323E+02  0.11118465504E+03  0.41800000000E+01 0. -1.
        -11    1    1    2    0    0  0.44267368603E+02  0.39002322700E+02  0.24723324629E+03  0.25417525287E+03  0.00000000000E+00 0.  1.
         11    1    1    2    0    0 -0.30173537847E+02 -0.17609326932E+02  0.20048588204E+03  0.20350705069E+03  0.00000000000E+00 0. -1.
</event>
<event>
 7    1  0.2601031E-009  0.1844064E+03  0.7561462E-02  0.1163605E+00
         -1   -1    0    0    0  501 -0.00000000000E+00  0.00000000000E+00  0.96377245845E+02  0.96377245845E+02  0.00000000000E+00 0.  1.
          1   -1    0    0  501    0  0.00000000000E+00 -0.00000000000E+00 -0.38818954344E+03  0.38818954344E+03  0.00000000000E+00 0. -1.
         25    2    1    2    0    0  0.98675672060E+02  0.12441880816E+03 -0.12917949600E+03  0.23989997338E+03  0.12509087482E+03 0.  0.
          5    1    3    3  502    0 -0.27251117806E+02  0.45070675997E+01 -0.13655874058E+02  0.31094893090E+02  0.41800000000E+01 0.  1.
         -5    1    3    3    0  502  0.12592678987E+03  0.11991174056E+03 -0.11552362194E+03  0.20880508029E+03  0.41800000000E+01 0.  1.
        -11    1    1    2    0    0 -0.55417992478E+02 -0.29845111629E+02 -0.11319178977E+03  0.12951550428E+03  0.00000000000E+00 0. -1.
         11    1    1    2    0    0 -0.43257679582E+02 -0.94573696527E+02 -0.49441011826E+02  0.11515131162E+03  0.00000000000E+00 0.  1.
</event>
<event>
 7    1  0.2601031E-009  0.1440003E+03  0.7561462E-02  0.1208045E+00
         -2   -1    0    0    0  501 -0.00000000000E+00  0.00000000000E+00  0.21872973620E+03  0.21872973620E+03  0.00000000000E+00 0.  1.
          2   -1    0    0  501    0  0.00000000000E+00 -0.00000000000E+00 -0.11753684912E+03  0.11753684912E+03  0.00000000000E+00 0. -1.
         25    2    1    2    0    0 -0.89066369273E+02 -0.51306834816E+02 -0.63869336221E+01  0.16202997837E+03  0.12509081315E+03 0.  0.
          5    1    3    3  502    0  0.30075006455E+02 -0.23865895946E+02  0.59539822107E+01  0.39076966448E+02  0.41800000000E+01 0. -1.
         -5    1    3    3    0  502 -0.11914137573E+03 -0.27440938870E+02 -0.12340915833E+02  0.12295301192E+03  0.41800000000E+01 0. -1.
        -11    1    1    2    0    0  0.51012621940E+02  0.68402868406E+02  0.38671845672E+02  0.93684319131E+02  0.00000000000E+00 0.  1.
         11    1    1    2    0    0  0.38053747333E+02 -0.17096033590E+02  0.68907975026E+02  0.80552287818E+02  0.00000000000E+00 0. -1.
</event>
<event>
 7    1  0.2601031E-009  0.1473771E+03  0.7561462E-02  0.1203734E+00
         -2   -1    0    0    0  501 -0.00000000000E+00  0.00000000000E+00  0.19478981794E+02  0.19478981794E+02  0.00000000000E+00 0.  1.
          2   -1    0    0  501    0  0.00000000000E+00 -0.00000000000E+00 -0.11222796743E+04  0.11222796743E+04  0.00000000000E+00 0. -1.
         25    2    1    2    0    0 -0.72043815438E+02  0.68909563960E+02 -0.56664698651E+03  0.58879184379E+03  0.12509272022E+03 0.  0.
          5    1    3    3  502    0 -0.10793782202E+03  0.49735482707E+02 -0.41093077728E+03  0.42779173411E+03  0.41800000000E+01 0.  1.
         -5    1    3    3    0  502  0.35894006578E+02  0.19174081254E+02 -0.15571620923E+03  0.16100010968E+03  0.41800000000E+01 0.  1.
        -11    1    1    2    0    0  0.72481138450E+02 -0.67817233024E+01 -0.31013809514E+03  0.31856733238E+03  0.00000000000E+00 0.  1.
         11    1    1    2    0    0 -0.43732301106E+00 -0.62127840658E+02 -0.22601561086E+03  0.23439947993E+03  0.00000000000E+00 0. -1.
</event>
<event>
 7    1  0.2601031E-009  0.7355635E+02  0.7561462E-02  0.1348401E+00
          4   -1    0    0  501    0  0.00000000000E+00  0.00000000000E+00  0.30468564850E+02  0.30468564850E+02  0.00000000000E+00 0. -1.
         -4   -1    0    0    0  501 -0.00000000000E+00 -0.00000000000E+00 -0.46910477454E+03  0.46910477454E+03  0.00000000000E+00 0.  1.
         25    2    1    2    0    0  0.31733963846E+01  0.49651567952E+02 -0.30823657865E+03  0.33635127075E+03  0.12508813003E+03 0.  0.
          5    1    3    3  502    0 -0.72319573858E+01  0.24054688642E+01 -0.28009012994E+03  0.28022498243E+03  0.41800000000E+01 0.  1.
         -5    1    3    3    0  502  0.10405353770E+02  0.47246099088E+02 -0.28146448710E+02  0.56126288325E+02  0.41800000000E+01 0.  1.
        -11    1    1    2    0    0 -0.38599636217E+02 -0.32698866805E+02 -0.39438762603E+02  0.64144865750E+02  0.00000000000E+00 0. -1.
         11    1    1    2    0    0  0.35426239833E+02 -0.16952701147E+02 -0.90960868442E+02  0.99077202891E+02  0.00000000000E+00 0.  1.
</event>
<event>
 7    1  0.2601031E-009  0.4129191E+03  0.7561462E-02  0.1039396E+00
          1   -1    0    0  501    0  0.00000000000E+00  0.00000000000E+00  0.18106139653E+04  0.18106139653E+04  0.00000000000E+00 0. -1.
         -1   -1    0    0    0  501 -0.00000000000E+00 -0.00000000000E+00 -0.14574124705E+03  0.14574124705E+03  0.00000000000E+00 0.  1.
         25    2    1    2    0    0 -0.34711526778E+03  0.21444588710E+03  0.13954213191E+04  0.14592200048E+04  0.12508523902E+03 0.  0.
          5    1    3    3  502    0 -0.29737098573E+03  0.15907663921E+03  0.12629851582E+04  0.13072428476E+04  0.41800000000E+01 0. -1.
         -5    1    3    3    0  502 -0.49744282047E+02  0.55369247890E+02  0.13243616092E+03  0.15197715725E+03  0.41800000000E+01 0. -1.
        -11    1    1    2    0    0  0.21193683936E+03 -0.17008005892E+03  0.14445338285E+03  0.30775189705E+03  0.00000000000E+00 0.  1.
         11    1    1    2    0    0  0.13517842841E+03 -0.44365828181E+02  0.12499801630E+03  0.18938331050E+03  0.00000000000E+00 0. -1.
</event>
<event>
 7    1  0.2601031E-009  0.1041072E+03  0.7561462E-02  0.1271889E+00
         -1   -1    0    0    0  501 -0.00000000000E+00  0.00000000000E+00  0.27338915321E+02  0.27338915321E+02  0.00000000000E+00 0.  1.
          1   -1    0    0  501    0  0.00000000000E+00 -0.00000000000E+00 -0.95317156381E+03  0.95317156381E+03  0.00000000000E+00 0. -1.
         25    2    1    2    0    0  0.96094422025E+01 -0.28415331677E+02 -0.84555024553E+03  0.85527907980E+03  0.12508922484E+03 0.  0.
          5    1    3    3  502    0 -0.10279189413E+02 -0.72069176275E+02 -0.35760437004E+03  0.36496299233E+03  0.41800000000E+01 0.  1.
         -5    1    3    3    0  502  0.19888631615E+02  0.43653844598E+02 -0.48794587550E+03  0.49031608747E+03  0.41800000000E+01 0.  1.
        -11    1    1    2    0    0 -0.18977874917E+02  0.55409567518E+02 -0.76593350323E+02  0.96420543572E+02  0.00000000000E+00 0. -1.
         11    1    1    2    0    0  0.93684327149E+01 -0.26994235841E+02 -0.36890526342E+01  0.28810855758E+02  0.00000000000E+00 0.  1.
</event>
<event>
 7    1  0.2601031E-009  0.1523490E+03  0.7561462E-02  0.1197616E+00
         -2   -1    0    0    0  501 -0.00000000000E+00  0.00000000000E+00  0.43138124738E+02  0.43138124738E+02  0.00000000000E+00 0.  1.
          2   -1    0    0  501    0  0.00000000000E+00 -0.00000000000E+00 -0.59554967427E+03  0.59554967427E+03  0.00000000000E+00 0. -1.
         25    2    1    2    0    0 -0.97183738122E+02  0.65638427450E+02 -0.26178478173E+03  0.31293966785E+03  0.12508749600E+03 0.  0.
          5    1    3    3  502    0 -0.10054357100E+03 -0.45724663374E+01 -0.16331825662E+03  0.19188601425E+03  0.41800000000E+01 0.  1.
         -5    1    3    3    0  502  0.33598328789E+01  0.70210893787E+02 -0.98466525108E+02  0.12105365360E+03  0.41800000000E+01 0.  1.
        -11    1    1    2    0    0  0.65907218111E+02 -0.59667596771E+01 -0.75890522713E+02  0.10069128591E+03  0.00000000000E+00 0.  1.
         11    1    1    2    0    0  0.31276520012E+02 -0.59671667773E+02 -0.21473624509E+03  0.22505684525E+03  0.00000000000E+00 0. -1.
</event>
<event>
 7    1  0.2601031E-009  0.9822558E+02  0.7561462E-02  0.1284072E+00
          1   -1    0    0  501    0  0.00000000000E+00  0.00000000000E+00  0.41559128837E+03  0.41559128837E+03  0.00000000000E+00 0. -1.
         -1   -1    0    0    0  501 -0.00000000000E+00 -0.00000000000E+00 -0.33059571060E+02  0.33059571060E+02  0.00000000000E+00 0.  1.
         25    2    1    2    0    0 -0.49859053471E+00 -0.32130997194E+02  0.16860569692E+03  0.21237977528E+03  0.12507852870E+03 0.  0.
          5    1    3    3  502    0 -0.50998154813E+02 -0.52822506670E+02  0.10863109274E+03  0.13118390037E+03  0.41800000000E+01 0.  1.
         -5    1    3    3    0  502  0.50499564278E+02  0.20691509476E+02  0.59974604179E+02  0.81195874914E+02  0.41800000000E+01 0.  1.
        -11    1    1    2    0    0  0.15283621020E+02 -0.13385806173E+02  0.36804430685E+01  0.20647385780E+02  0.00000000000E+00 0.  1.
         11    1    1    2    0    0 -0.14785030485E+02  0.45516803367E+02  0.21024557732E+03  0.21562369837E+03  0.00000000000E+00 0. -1.
</event>
<event>
 7    1  0.2601031E-009  0.1265756E+03  0.7561462E-02  0.1232627E+00
         -1   -1    0    0    0  501 -0.00000000000E+00  0.00000000000E+00  0.44601538008E+02  0.44601538008E+02  0.00000000000E+00 0.  1.
          1   -1    0    0  501    0  0.00000000000E+00 -0.00000000000E+00 -0.58687483722E+03  0.58687483722E+03  0.00000000000E+00 0. -1.
         25    2    1    2    0    0  0.10027790015E+03 -0.56197621873E+02 -0.35405678847E+03  0.39270827676E+03  0.12509896567E+03 0.  0.
          5    1    3    3  502    0  0.47303513541E+02 -0.35306264761E+02 -0.32166358617E+03  0.32706129363E+03  0.41800000000E+01 0. -1.
         -5    1    3    3    0  502  0.52974386613E+02 -0.20891357111E+02 -0.32393202302E+02  0.65646983132E+02  0.41800000000E+01 0. -1.
        -11    1    1    2    0    0 -0.98949372351E+02  0.71145567556E+02 -0.12811877326E+03  0.17682502689E+03  0.00000000000E+00 0.  1.
         11    1    1    2    0    0 -0.13285278028E+01 -0.14947945684E+02 -0.60097737485E+02  0.61943071583E+02  0.00000000000E+00 0. -1.
</event>
<event>
 7    1  0.2601031E-009  0.3745586E+03  0.7561462E-02  0.1052963E+00
         -1   -1    0    0    0  501 -0.00000000000E+00  0.00000000000E+00  0.61626434448E+03  0.61626434448E+03  0.00000000000E+00 0.  1.
          1   -1    0    0  501    0  0.00000000000E+00 -0.00000000000E+00 -0.34802425079E+03  0.34802425079E+03  0.00000000000E+00 0. -1.
         25    2    1    2    0    0 -0.34808497696E+03  0.86554101726E+02  0.41811027676E+03  0.56490694216E+03  0.12509550776E+03 0.  0.
          5    1    3    3  502    0 -0.15674589730E+03 -0.24340148994E+02  0.17369581778E+03  0.23526459293E+03  0.41800000000E+01 0.  1.
         -5    1    3    3    0  502 -0.19133907966E+03  0.11089425072E+03  0.24441445898E+03  0.32964234923E+03  0.41800000000E+01 0.  1.
        -11    1    1    2    0    0  0.31195981386E+03 -0.46665986969E+02 -0.11764463392E+03  0.33665546141E+03  0.00000000000E+00 0.  1.
         11    1    1    2    0    0  0.36125163093E+02 -0.39888114757E+02 -0.32225549149E+02  0.62726191701E+02  0.00000000000E+00 0. -1.
</event>
<event>
 7    1  0.2601031E-009  0.1970854E+03  0.7561462E-02  0.1152222E+00
          1   -1    0    0  501    0  0.00000000000E+00  0.00000000000E+00  0.12528652595E+04  0.12528652595E+04  0.00000000000E+00 0. -1.
         -1   -1    0    0    0  501 -0.00000000000E+00 -0.00000000000E+00 -0.39225997150E+02  0.39225997150E+02  0.00000000000E+00 0.  1.
         25    2    1    2    0    0 -0.14008331378E+03 -0.11456204667E+03  0.82463001455E+03  0.85346880232E+03  0.12508612348E+03 0.  0.
          5    1    3    3  502    0 -0.12104376224E+03 -0.12174132773E+03  0.81014188893E+03  0.82814243693E+03  0.41800000000E+01 0. -1.
         -5    1    3    3    0  502 -0.19039551539E+02  0.71792810594E+01  0.14488125625E+02  0.25326365382E+02  0.41800000000E+01 0. -1.
        -11    1    1    2    0    0  0.41467946286E+01  0.51764904921E+02  0.11978997666E+03  0.13056201513E+03  0.00000000000E+00 0.  1.
         11    1    1    2    0    0  0.13593651915E+03  0.62797141749E+02  0.26921927114E+03  0.30806043920E+03  0.00000000000E+00 0. -1.
</event>
<event>
 7    1  0.2601031E-009  0.1121283E+03  0.7561462E-02  0.1256679E+00
         -2   -1    0    0    0  501 -0.00000000000E+00  0.00000000000E+00  0.29247416631E+03  0.29247416631E+03  0.00000000000E+00 0.  1.
          2   -1    0    0  501    0  0.00000000000E+00 -0.00000000000E+00 -0.54852580681E+02  0.54852580681E+02  0.00000000000E+00 0. -1.
         25    2    1    2    0    0  0.58106954138E+02 -0.51513322032E+01  0.90331070862E+02  0.16494287555E+03  0.12507396008E+03 0.  0.
          5    1    3    3  502    0 -0.33222019560E+02  0.53097095446E+01  0.58422224256E+02  0.67546460205E+02  0.41800000000E+01 0. -1.
         -5    1    3    3    0  502  0.91328973698E+02 -0.10461041748E+02  0.31908846606E+02  0.97396415349E+02  0.41800000000E+01 0. -1.
        -11    1    1    2    0    0  0.75999208779E+01  0.27809499440E+02  0.82396311757E+02  0.87294210848E+02  0.00000000000E+00 0.  1.
         11    1    1    2    0    0 -0.65706875016E+02 -0.22658167237E+02  0.64894203013E+02  0.95089660592E+02  0.00000000000E+00 0. -1.
</event>
<event>
 7    1  0.2601031E-009  0.8099296E+02  0.7561462E-02  0.1326257E+00
         -2   -1    0    0    0  501 -0.00000000000E+00  0.00000000000E+00  0.24064891466E+03  0.24064891466E+03  0.00000000000E+00 0. -1.
          2   -1    0    0  501    0  0.00000000000E+00 -0.00000000000E+00 -0.60399680566E+02  0.60399680566E+02  0.00000000000E+00 0.  1.
         25    2    1    2    0    0  0.45590055948E+02  0.26005288468E+02  0.11397635719E+03  0.17717805289E+03  0.12508686661E+03 0.  0.
          5    1    3    3  502    0  0.76631430338E+01 -0.23715788277E+02 -0.18033323429E+02  0.31045700647E+02  0.41800000000E+01 0.  1.
         -5    1    3    3    0  502  0.37926912914E+02  0.49721076745E+02  0.13200968061E+03  0.14613235224E+03  0.41800000000E+01 0.  1.
        -11    1    1    2    0    0 -0.31767920755E+01 -0.31153906974E+02 -0.12929293295E+02  0.33879559513E+02  0.00000000000E+00 0.  1.
         11    1    1    2    0    0 -0.42413263873E+02  0.51486185066E+01  0.79202170203E+02  0.89990982825E+02  0.00000000000E+00 0. -1.
</event>
<event>
 7    1  0.2601031E-009  0.9854702E+02  0.7561462E-02  0.1283381E+00
          4   -1    0    0  501    0  0.00000000000E+00  0.00000000000E+00  0.13500996150E+03  0.13500996150E+03  0.00000000000E+00 0.  1.
         -4   -1    0    0    0  501 -0.00000000000E+00 -0.00000000000E+00 -0.12068866382E+03  0.12068866382E+03  0.00000000000E+00 0. -1.
         25    2    1    2    0    0 -0.24530756517E+02  0.67868372642E+02  0.65081784371E+01  0.14455810832E+03  0.12508723466E+03 0.  0.
          5    1    3    3  502    0  0.33896540119E+02  0.17679562252E+02 -0.39184115154E+02  0.54903639532E+02  0.41800000000E+01 0.  1.
         -5    1    3    3    0  502 -0.58427296636E+02  0.50188810390E+02  0.45692293591E+02  0.89654468791E+02  0.41800000000E+01 0.  1.
        -11    1    1    2    0    0  0.23966758872E+01 -0.56619944836E+02  0.40817464953E+02  0.69840014703E+02  0.00000000000E+00 0.  1.
         11    1    1    2    0    0  0.22134080630E+02 -0.11248427806E+02 -0.33004345717E+02  0.41300502293E+02  0.00000000000E+00 0. -1.
</event>
<event>
 7    1  0.2601031E-009  0.1049720E+03  0.7561462E-02  0.1270175E+00
         -1   -1    0    0    0  501 -0.00000000000E+00  0.00000000000E+00  0.96265083545E+02  0.96265083545E+02  0.00000000000E+00 0.  1.
          1   -1    0    0  501    0  0.00000000000E+00 -0.00000000000E+00 -0.19442240863E+03  0.19442240863E+03  0.00000000000E+00 0. -1.
         25    2    1    2    0    0 -0.52212968364E+02  0.64709451016E+02 -0.49018286933E+02  0.15801158482E+03  0.12510540103E+03 0.  0.
          5    1    3    3  502    0 -0.20523636796E+02  0.57622983145E+02  0.33051234933E+02  0.69652597830E+02  0.41800000000E+01 0.  1.
         -5    1    3    3    0  502 -0.31689331568E+02  0.70864678709E+01 -0.82069521866E+02  0.88358986987E+02  0.41800000000E+01 0.  1.
        -11    1    1    2    0    0  0.72232373187E+02 -0.35508714968E+02 -0.54021482590E+02  0.96936603799E+02  0.00000000000E+00 0. -1.
         11    1    1    2    0    0 -0.20019404823E+02 -0.29200736048E+02  0.48824444382E+01  0.35739303559E+02  0.00000000000E+00 0.  1.
</event>
<event>
 7    1  0.2601031E-009  0.8369337E+02  0.7561462E-02  0.1318885E+00
          2   -1    0    0  501    0  0.00000000000E+00  0.00000000000E+00  0.75615107178E+02  0.75615107178E+02  0.00000000000E+00 0. -1.
         -2   -1    0    0    0  501 -0.00000000000E+00 -0.00000000000E+00 -0.25577701145E+03  0.25577701145E+03  0.00000000000E+00 0.  1.
         25    2    1    2    0    0 -0.18959129015E+02  0.65520911760E+01 -0.19983479344E+03  0.23661179175E+03  0.12509523115E+03 0.  0.
          5    1    3    3  502    0  0.13305512770E+02 -0.27908789688E+02 -0.18402642700E+03  0.18665244559E+03  0.41800000000E+01 0. -1.
         -5    1    3    3    0  502 -0.32264641785E+02  0.34460880864E+02 -0.15808366438E+02  0.49959346162E+02  0.41800000000E+01 0. -1.
        -11    1    1    2    0    0  0.49178539809E+02 -0.23108591468E+02 -0.14628759072E+01  0.54356929487E+02  0.00000000000E+00 0.  1.
         11    1    1    2    0    0 -0.30219410794E+02  0.16556500292E+02  0.21135765075E+02  0.40423397383E+02  0.00000000000E+00 0. -1.
</event>
<event>
 7    1  0.2601031E-009  0.1065703E+03  0.7561462E-02  0.1267056E+00
         -1   -1    0    0    0  501 -0.00000000000E+00  0.00000000000E+00  0.15905141287E+03  0.15905141287E+03  0.00000000000E+00 0.  1.
          1   -1    0    0  501    0  0.00000000000E+00 -0.00000000000E+00 -0.83511091003E+02  0.83511091003E+02  0.00000000000E+00 0. -1.
         25    2    1    2    0    0  0.34211528594E+01 -0.39120151867E+02  0.54730349218E+02  0.14207100715E+03  0.12508664748E+03 0.  0.
          5    1    3    3  502    0  0.46718735998E+02  0.19088451051E+02  0.46832845135E+02  0.68976786241E+02  0.41800000000E+01 0.  1.
         -5    1    3    3    0  502 -0.43297583138E+02 -0.58208602918E+02  0.78975040838E+01  0.73094220907E+02  0.41800000000E+01 0.  1.
        -11    1    1    2    0    0 -0.42106290533E+02  0.22344061788E+02  0.31318787002E+02  0.57035631134E+02  0.00000000000E+00 0.  1.
         11    1    1    2    0    0  0.38685137673E+02  0.16776090079E+02 -0.10508814353E+02  0.43455865591E+02  0.00000000000E+00 0. -1.
</event>
<event>
 7    1  0.2601031E-009  0.8228791E+02  0.7561462E-02  0.1322681E+00
         -1   -1    0    0    0  501 -0.00000000000E+00  0.00000000000E+00  0.13991168971E+03  0.13991168971E+03  0.00000000000E+00 0.  1.
          1   -1    0    0  501    0  0.00000000000E+00 -0.00000000000E+00 -0.11731779427E+03  0.11731779427E+03  0.00000000000E+00 0. -1.
         25    2    1    2    0    0 -0.33482663835E+02  0.32204471248E+02 -0.36980293968E+02  0.13846653230E+03  0.12508885513E+03 0.  0.
          5    1    3    3  502    0 -0.35157502580E+02 -0.22934677670E+02 -0.64193015823E+02  0.76813183165E+02  0.41800000000E+01 0. -1.
         -5    1    3    3    0  502  0.16748387447E+01  0.55139148918E+02  0.27212721855E+02  0.61653349130E+02  0.41800000000E+01 0. -1.
        -11    1    1    2    0    0  0.29363248867E+02  0.48714956930E+01  0.73222171467E+02  0.79040611388E+02  0.00000000000E+00 0.  1.
         11    1    1    2    0    0  0.41194149684E+01 -0.37075966941E+02 -0.13647982059E+02  0.39722340296E+02  0.00000000000E+00 0. -1.
</event>
<event>
 7    1  0.2601031E-009  0.1596613E+03  0.7561462E-02  0.1189080E+00
          2   -1    0    0  501    0  0.00000000000E+00  0.00000000000E+00  0.43611705357E+03  0.43611705357E+03  0.00000000000E+00 0.  1.
         -2   -1    0    0    0  501 -0.00000000000E+00 -0.00000000000E+00 -0.59944674086E+02  0.59944674086E+02  0.00000000000E+00 0. -1.
         25    2    1    2    0    0 -0.52046970698E+02  0.10529869276E+03  0.16589377106E+03  0.23867299961E+03  0.12508939047E+03 0.  0.
          5    1    3    3  502    0 -0.90718911166E+02  0.93862164593E+02  0.11906034992E+03  0.17672822669E+03  0.41800000000E+01 0. -1.
         -5    1    3    3    0  502  0.38671940469E+02  0.11436528169E+02  0.46833421146E+02  0.61944772922E+02  0.41800000000E+01 0. -1.
        -11    1    1    2    0    0 -0.19353455659E+02  0.18218888349E+01  0.32974225298E+02  0.38277605187E+02  0.00000000000E+00 0. -1.
         11    1    1    2    0    0  0.71400426357E+02 -0.10712058160E+03  0.17730438312E+03  0.21911112286E+03  0.00000000000E+00 0.  1.
</event>
<event>
 7    1  0.3329739E-009  0.7969377E+02  0.7561462E-02  0.1329923E+00
         -2   -1    0    0    0  501 -0.00000000000E+00  0.00000000000E+00  0.47681832241E+02  0.47681832241E+02  0.00000000000E+00 0. -1.
          2   -1    0    0  501    0  0.00000000000E+00 -0.00000000000E+00 -0.34097229837E+03  0.34097229837E+03  0.00000000000E+00 0.  1.
         25    2    1    2    0    0 -0.14844239938E+02  0.63465168525E+02 -0.18621623705E+03  0.23360691475E+03  0.12509006596E+03 0.  0.
          5    1    3    3  502    0 -0.11864056494E+02  0.76513091894E+02 -0.19965601253E+03  0.21418451113E+03  0.41800000000E+01 0. -1.
         -5    1    3    3    0  502 -0.29801834447E+01 -0.13047923369E+02  0.13439775477E+02  0.19422403623E+02  0.41800000000E+01 0. -1.
        -11    1    1    2    0    0  0.27501383021E+01 -0.48530603819E+02 -0.12160141306E+03  0.13095681130E+03  0.00000000000E+00 0.  1.
         11    1    1    2    0    0  0.12094101636E+02 -0.14934564706E+02  0.14527183984E+02  0.24090404560E+02  0.00000000000E+00 0. -1.
</event>
<event>
 7    1  0.2601031E-009  0.9511787E+02  0.7561462E-02  0.1290911E+00
          1   -1    0    0  501    0  0.00000000000E+00  0.00000000000E+00  0.83155471048E+03  0.83155471048E+03  0.00000000000E+00 0. -1.
         -1   -1    0    0    0  501 -0.00000000000E+00 -0.00000000000E+00 -0.16317393327E+02  0.16317393327E+02  0.00000000000E+00 0.  1.
         25    2    1    2    0    0  0.14616713455E+02  0.80466246542E+01  0.58660356197E+03  0.60002489436E+03  0.12509092073E+03 0.  0.
          5    1    3    3  502    0  0.65568401105E+02 -0.84837924650E+01  0.41354831370E+03  0.41882080908E+03  0.41800000000E+01 0.  1.
         -5    1    3    3    0  502 -0.50951687651E+02  0.16530417119E+02  0.17305524827E+03  0.18120408527E+03  0.41800000000E+01 0.  1.
        -11    1    1    2    0    0  0.26137213807E+02 -0.13025179218E+02  0.20444333738E+02  0.35648001645E+02  0.00000000000E+00 0.  1.
         11    1    1    2    0    0 -0.40753927262E+02  0.49785545642E+01  0.20818942144E+03  0.21219920781E+03  0.00000000000E+00 0. -1.
</event>
<event>
 7    1  0.2601031E-009  0.9032123E+02  0.7561462E-02  0.1302076E+00
          1   -1    0    0  501    0  0.00000000000E+00  0.00000000000E+00  0.48033391596E+03  0.48033391596E+03  0.00000000000E+00 0. -1.
         -1   -1    0    0    0  501 -0.00000000000E+00 -0.00000000000E+00 -0.42948383247E+02  0.42948383247E+02  0.00000000000E+00 0.  1.
         25    2    1    2    0    0  0.36647890500E+02  0.49757682442E+02  0.36838909702E+03  0.39392679574E+03  0.12509555849E+03 0.  0.
          5    1    3    3  502    0 -0.77950028844E+01  0.51796296303E+02  0.50387822106E+02  0.72801259586E+02  0.41800000000E+01 0. -1.
         -5    1    3    3    0  502  0.44442893384E+02 -0.20386138612E+01  0.31800127492E+03  0.32112553615E+03  0.41800000000E+01 0. -1.
        -11    1    1    2    0    0 -0.48338350984E+02 -0.21642854388E+02  0.80873718478E+02  0.96672476241E+02  0.00000000000E+00 0. -1.
         11    1    1    2    0    0  0.11690460485E+02 -0.28114828055E+02 -0.11877282785E+02  0.32683027235E+02  0.00000000000E+00 0.  1.
</event>
<event>
 7    1  0.2601031E-009  0.9903191E+02  0.7561462E-02  0.1282345E+00
         -2   -1    0    0    0  501 -0.00000000000E+00  0.00000000000E+00  0.13014549819E+02  0.13014549819E+02  0.00000000000E+00 0.  1.
          2   -1    0    0  501    0  0.00000000000E+00 -0.00000000000E+00 -0.11066398702E+04  0.11066398702E+04  0.00000000000E+00 0. -1.
         25    2    1    2    0    0  0.49265409250E+02  0.95543873981E+01 -0.67937091800E+03  0.69261102278E+03  0.12508724068E+03 0.  0.
          5    1    3    3  502    0  0.27916460994E+02  0.45173152561E+02 -0.60490973791E+03  0.60725052979E+03  0.41800000000E+01 0.  1.
         -5    1    3    3    0  502  0.21348948256E+02 -0.35618765163E+02 -0.74461180085E+02  0.85360492987E+02  0.41800000000E+01 0.  1.
        -11    1    1    2    0    0  0.87596466161E+01 -0.37603939526E+02 -0.17928612905E+03  0.18339657507E+03  0.00000000000E+00 0.  1.
         11    1    1    2    0    0 -0.58025055866E+02  0.28049552128E+02 -0.23496827332E+03  0.24364682216E+03  0.00000000000E+00 0. -1.
</event>
<event>
 7    1  0.2601031E-009  0.1317679E+03  0.7561462E-02  0.1224856E+00
          1   -1    0    0  501    0  0.00000000000E+00  0.00000000000E+00  0.54719465454E+03  0.54719465454E+03  0.00000000000E+00 0. -1.
         -1   -1    0    0    0  501 -0.00000000000E+00 -0.00000000000E+00 -0.36242481876E+02  0.36242481876E+02  0.00000000000E+00 0.  1.
         25    2    1    2    0    0 -0.75588057654E+02  0.34379908089E+02  0.35004026327E+03  0.38088196146E+03  0.12508936851E+03 0.  0.
          5    1    3    3  502    0  0.22696891379E+02  0.40892626149E+02  0.16059163153E+03  0.16731557091E+03  0.41800000000E+01 0.  1.
         -5    1    3    3    0  502 -0.98284949033E+02 -0.65127180603E+01  0.18944863174E+03  0.21356639055E+03  0.41800000000E+01 0.  1.
        -11    1    1    2    0    0  0.48631669399E+02 -0.62398033973E+02  0.78582078266E+02  0.11150648832E+03  0.00000000000E+00 0. -1.
         11    1    1    2    0    0  0.26956388255E+02  0.28018125884E+02  0.82329831128E+02  0.91048686643E+02  0.00000000000E+00 0.  1.
</event>
<event>
 7    1  0.2601031E-009  0.9603824E+02  0.7561462E-02  0.1288855E+00
         -1   -1    0    0    0  501 -0.00000000000E+00  0.00000000000E+00  0.26683301492E+03  0.26683301492E+03  0.00000000000E+00 0.  1.
          1   -1    0    0  501    0  0.00000000000E+00 -0.00000000000E+00 -0.54740536949E+02  0.54740536949E+02  0.00000000000E+00 0. -1.
         25    2    1    2    0    0  0.23716081541E+02 -0.48585329854E+02  0.12858513013E+03  0.18736020598E+03  0.12508686698E+03 0.  0.
          5    1    3    3  502    0 -0.26633869210E+02 -0.25908109478E+01 -0.13082069304E+02  0.30078035636E+02  0.41800000000E+01 0.  1.
         -5    1    3    3    0  502  0.50349950751E+02 -0.45994518906E+02  0.14166719944E+03  0.15728217034E+03  0.41800000000E+01 0.  1.
        -11    1    1    2    0    0  0.76247512280E+01 -0.19922985067E+02 -0.54586619672E+00  0.21339169036E+02  0.00000000000E+00 0. -1.
         11    1    1    2    0    0 -0.31340832769E+02  0.68508314921E+02  0.84053214036E+02  0.11287417686E+03  0.00000000000E+00 0.  1.
</event>
<event>
 7    1  0.2601031E-009  0.2464346E+03  0.7561462E-02  0.1115579E+00
         -2   -1    0    0    0  501 -0.00000000000E+00  0.00000000000E+00  0.12261142870E+03  0.12261142870E+03  0.00000000000E+00 0.  1.
          2   -1    0    0  501    0  0.00000000000E+00 -0.00000000000E+00 -0.58535641894E+03  0.58535641894E+03  0.00000000000E+00 0. -1.
         25    2    1    2    0    0 -0.13503485332E+02  0.22598758576E+03 -0.11565418281E+03  0.28333493822E+03  0.12510021654E+03 0.  0.
          5    1    3    3  502    0 -0.31704610064E+02  0.82154039026E+01  0.54367251661E+01  0.33462001452E+02  0.41800000000E+01 0.  1.
         -5    1    3    3    0  502  0.18201124732E+02  0.21777218186E+03 -0.12109090798E+03  0.24987293677E+03  0.41800000000E+01 0.  1.
        -11    1    1    2    0    0 -0.31597975528E+02 -0.14668405300E+03 -0.24866177961E+03  0.29042610781E+03  0.00000000000E+00 0. -1.
         11    1    1    2    0    0  0.45101460860E+02 -0.79303532766E+02 -0.98429027813E+02  0.13420680161E+03  0.00000000000E+00 0.  1.
</event>
<event>
 7    1  0.2601031E-009  0.9573705E+02  0.7561462E-02  0.1289525E+00
          2   -1    0    0  501    0  0.00000000000E+00  0.00000000000E+00  0.77813883559E+03  0.77813883559E+03  0.00000000000E+00 0. -1.
         -2   -1    0    0    0  501 -0.00000000000E+00 -0.00000000000E+00 -0.23765000138E+02  0.23765000138E+02  0.00000000000E+00 0.  1.
         25    2    1    2    0    0  0.52397400857E+02 -0.64741004893E+02  0.52099617809E+03  0.54223641883E+03  0.12508569458E+03 0.  0.
          5    1    3    3  502    0  0.35243597759E+02 -0.51316698212E+02  0.83794527601E+02  0.10447253206E+03  0.41800000000E+01 0.  1.
         -5    1    3    3    0  502  0.17153803098E+02 -0.13424306681E+02  0.43720165049E+03  0.43776388678E+03  0.41800000000E+01 0.  1.
        -11    1    1    2    0    0 -0.67900730511E+02  0.60203981065E+02  0.15472851263E+03  0.17937653459E+03  0.00000000000E+00 0.  1.
         11    1    1    2    0    0  0.15503329654E+02  0.45370238275E+01  0.78649144730E+02  0.80290882312E+02  0.00000000000E+00 0. -1.
</event>
<event>
 7    1  0.2601031E-009  0.1059576E+03  0.7561462E-02  0.1268244E+00
          2   -1    0    0  501    0  0.00000000000E+00  0.00000000000E+00  0.17547843769E+03  0.17547843769E+03  0.00000000000E+00 0. -1.
         -2   -1    0    0    0  501 -0.00000000000E+00 -0.00000000000E+00 -0.12289220307E+03  0.12289220307E+03  0.00000000000E+00 0.  1.
         25    2    1    2    0    0  0.61895064310E+02  0.77085174217E+02  0.12565265853E+02  0.15993060711E+03  0.12508713009E+03 0.  0.
          5    1    3    3  502    0  0.39287610981E+01  0.11700053788E+02  0.59323876517E+02  0.60738135857E+02  0.41800000000E+01 0.  1.
         -5    1    3    3    0  502  0.57966303212E+02  0.65385120429E+02 -0.46758610664E+02  0.99192471250E+02  0.41800000000E+01 0.  1.
        -11    1    1    2    0    0 -0.27947573646E+02 -0.85929045940E+00  0.47017958144E+02  0.54703689462E+02  0.00000000000E+00 0. -1.
         11    1    1    2    0    0 -0.33947490664E+02 -0.76225883758E+02 -0.69969893728E+01  0.83736344184E+02  0.00000000000E+00 0.  1.
</event>
<event>
 7    1  0.2601031E-009  0.1154973E+03  0.7561462E-02  0.1250716E+00
         -2   -1    0    0    0  501 -0.00000000000E+00  0.00000000000E+00  0.29802064331E+02  0.29802064331E+02  0.00000000000E+00 0. -1.
          2   -1    0    0  501    0  0.00000000000E+00 -0.00000000000E+00 -0.80926155580E+03  0.80926155580E+03  0.00000000000E+00 0.  1.
         25    2    1    2    0    0  0.10931560217E+03 -0.66064030601E+01 -0.47649227408E+03  0.50466377118E+03  0.12508832578E+03 0.  0.
          5    1    3    3  502    0  0.93374923820E+02  0.14307617813E+02 -0.46687406376E+03  0.47635328081E+03  0.41800000000E+01 0. -1.
         -5    1    3    3    0  502  0.15940678354E+02 -0.20914020874E+02 -0.96182103202E+01  0.28310490375E+02  0.41800000000E+01 0. -1.
        -11    1    1    2    0    0 -0.44146540102E+02  0.66307988510E+01 -0.23882014176E+03  0.24295667228E+03  0.00000000000E+00 0.  1.
         11    1    1    2    0    0 -0.65169062072E+02 -0.24395790881E-01 -0.64147075626E+02  0.91443176662E+02  0.00000000000E+00 0. -1.
</event>
<event>
 7    1  0.2601031E-009  0.1009481E+03  0.7561462E-02  0.1278315E+00
          2   -1    0    0  501    0  0.00000000000E+00  0.00000000000E+00  0.18522503626E+03  0.18522503626E+03  0.00000000000E+00 0. -1.
         -2   -1    0    0    0  501 -0.00000000000E+00 -0.00000000000E+00 -0.78405575903E+02  0.78405575903E+02  0.00000000000E+00 0.  1.
         25    2    1    2    0    0  0.55665410425E+02  0.14549925307E+01  0.71006697672E+02  0.15424493959E+03  0.12509514520E+03 0.  0.
          5    1    3    3  502    0  0.75000592184E+02  0.44053676995E+02  0.30643734855E+02  0.92316445829E+02  0.41800000000E+01 0.  1.
         -5    1    3    3    0  502 -0.19335181759E+02 -0.42598684464E+02  0.40362962817E+02  0.61928493758E+02  0.41800000000E+01 0.  1.
        -11    1    1    2    0    0 -0.14581187383E+02 -0.18338022419E+02 -0.24880573657E+02  0.34175093815E+02  0.00000000000E+00 0.  1.
         11    1    1    2    0    0 -0.41084223042E+02  0.16883029889E+02  0.60693336340E+02  0.75210578759E+02  0.00000000000E+00 0. -1.
</event>
<event>
 7    1  0.2713945E-009  0.1013816E+03  0.7561462E-02  0.1277417E+00
          1   -1    0    0  501    0  0.00000000000E+00  0.00000000000E+00  0.77551005583E+02  0.77551005583E+02  0.00000000000E+00 0. -1.
         -1   -1    0    0    0  501 -0.00000000000E+00 -0.00000000000E+00 -0.20860606196E+03  0.20860606196E+03  0.00000000000E+00 0.  1.
         25    2    1    2    0    0  0.31572889185E+02  0.55501844288E+02 -0.51702877477E+02  0.14965910681E+03  0.12508940267E+03 0.  0.
          5    1    3    3  502    0  0.78958652779E+02  0.27557947222E+02 -0.41872849099E+02  0.93620068337E+02  0.41800000000E+01 0.  1.
         -5    1    3    3    0  502 -0.47385763594E+02  0.27943897066E+02 -0.98300283779E+01  0.56039038469E+02  0.41800000000E+01 0.  1.
        -11    1    1    2    0    0 -0.23076440775E+02 -0.39822353510E+02 -0.99477005813E+02  0.10960846976E+03  0.00000000000E+00 0.  1.
         11    1    1    2    0    0 -0.84964484096E+01 -0.15679490778E+02  0.20124826913E+02  0.26889490975E+02  0.00000000000E+00 0. -1.
</event>
<event>
 7    1  0.2601031E-009  0.1153622E+03  0.7561462E-02  0.1250950E+00
          3   -1    0    0  501    0  0.00000000000E+00  0.00000000000E+00  0.97691056208E+02  0.97691056208E+02  0.00000000000E+00 0. -1.
         -3   -1    0    0    0  501 -0.00000000000E+00 -0.00000000000E+00 -0.22878894877E+03  0.22878894877E+03  0.00000000000E+00 0.  1.
         25    2    1    2    0    0  0.68102843265E+02 -0.81130694546E+01  0.10869267025E+02  0.14307536029E+03  0.12509435878E+03 0.  0.
          5    1    3    3  502    0  0.98110357045E+02 -0.85027647569E+01  0.34732128507E+02  0.10450709219E+03  0.41800000000E+01 0.  1.
         -5    1    3    3    0  502 -0.30007513779E+02  0.38969530227E+00 -0.23862861482E+02  0.38568268094E+02  0.41800000000E+01 0.  1.
        -11    1    1    2    0    0 -0.75920981362E+02  0.27662191846E+02 -0.14077435868E+03  0.16231639575E+03  0.00000000000E+00 0.  1.
         11    1    1    2    0    0  0.78181380970E+01 -0.19549122391E+02 -0.11928009148E+01  0.21088248946E+02  0.00000000000E+00 0. -1.
</event>
<event>
 7    1  0.2601031E-009  0.9329421E+02  0.7561462E-02  0.1295065E+00
          4   -1    0    0  501    0  0.00000000000E+00  0.00000000000E+00  0.16884906577E+03  0.16884906577E+03  0.00000000000E+00 0. -1.
         -4   -1    0    0    0  501 -0.00000000000E+00 -0.00000000000E+00 -0.88158539489E+02  0.88158539489E+02  0.00000000000E+00 0.  1.
         25    2    1    2    0    0  0.29034928366E+01  0.26417520477E+02  0.91317460655E+02  0.15713628731E+03  0.12508644415E+03 0.  0.
          5    1    3    3  502    0 -0.39301488982E+02  0.61201987539E+02  0.48037238809E+02  0.87265909881E+02  0.41800000000E+01 0.  1.
         -5    1    3    3    0  502  0.42204981818E+02 -0.34784467062E+02  0.43280221846E+02  0.69870377429E+02  0.41800000000E+01 0.  1.
        -11    1    1    2    0    0 -0.26415419327E+02 -0.23189367732E+02  0.34267794427E+02  0.49089743215E+02  0.00000000000E+00 0. -1.
         11    1    1    2    0    0  0.23511926490E+02 -0.32281527451E+01 -0.44894728805E+02  0.50781574729E+02  0.00000000000E+00 0.  1.
</event>
<event>
 7    1  0.2601031E-009  0.1483254E+03  0.7561462E-02  0.1202546E+00
          1   -1    0    0  501    0  0.00000000000E+00  0.00000000000E+00  0.17664886401E+03  0.17664886401E+03  0.00000000000E+00 0. -1.
         -1   -1    0    0    0  501 -0.00000000000E+00 -0.00000000000E+00 -0.12985448466E+03  0.12985448466E+03  0.00000000000E+00 0.  1.
         25    2    1    2    0    0 -0.11445579144E+02 -0.96883920778E+02  0.34547597074E+02  0.16235260701E+03  0.12508931669E+03 0.  0.
          5    1    3    3  502    0 -0.70716727731E+01  0.28266698187E+02  0.21348176788E+02  0.36362505887E+02  0.41800000000E+01 0. -1.
         -5    1    3    3    0  502 -0.43739063711E+01 -0.12515061896E+03  0.13199420285E+02  0.12599010112E+03  0.41800000000E+01 0. -1.
        -11    1    1    2    0    0  0.36964113182E+02  0.10794997343E+03  0.18627338046E+02  0.11561366766E+03  0.00000000000E+00 0.  1.
         11    1    1    2    0    0 -0.25518534038E+02 -0.11066052654E+02 -0.63805557663E+01  0.28537074003E+02  0.00000000000E+00 0. -1.
</event>
<event>
 7    1  0.2601031E-009  0.2376803E+03  0.7561462E-02  0.1121348E+00
         -2   -1    0    0    0  501 -0.00000000000E+00  0.00000000000E+00  0.58531015952E+02  0.58531015952E+02  0.00000000000E+00 0.  1.
          2   -1    0    0  501    0  0.00000000000E+00 -0.00000000000E+00 -0.11373742074E+04  0.11373742074E+04  0.00000000000E+00 0. -1.
         25    2    1    2    0    0  0.50015360816E+02  0.21094481837E+03 -0.75880355253E+03  0.79901842312E+03  0.12509339086E+03 0.  0.
          5    1    3    3  502    0  0.47885121446E+01  0.20363650759E+03 -0.59730811647E+03  0.63109841979E+03  0.41800000000E+01 0.  1.
         -5    1    3    3    0  502  0.45226848672E+02  0.73083107858E+01 -0.16149543606E+03  0.16792000332E+03  0.41800000000E+01 0.  1.
        -11    1    1    2    0    0 -0.54453043396E+02 -0.94306757012E+02 -0.20958106872E+03  0.23618450990E+03  0.00000000000E+00 0.  1.
         11    1    1    2    0    0  0.44376825796E+01 -0.11663806136E+03 -0.11045857019E+03  0.16070229031E+03  0.00000000000E+00 0. -1.
</event>
<event>
 7    1  0.2911172E-009  0.1322256E+03  0.7561462E-02  0.1224190E+00
         -2   -1    0    0    0  501 -0.00000000000E+00  0.00000000000E+00  0.26837607513E+02  0.26837607513E+02  0.00000000000E+00 0.  1.
          2   -1    0    0  501    0  0.00000000000E+00 -0.00000000000E+00 -0.10490328089E+04  0.10490328089E+04  0.00000000000E+00 0. -1.
         25    2    1    2    0    0  0.11102036409E+02  0.10869762038E+03 -0.75756018270E+03  0.77555337462E+03  0.12508868289E+03 0.  0.
          5    1    3    3  502    0  0.26996505071E+02  0.11788710066E+03 -0.73992500113E+03  0.74975506633E+03  0.41800000000E+01 0.  1.
         -5    1    3    3    0  502 -0.15894468662E+02 -0.91894802803E+01 -0.17635181574E+02  0.25798308298E+02  0.41800000000E+01 0.  1.
        -11    1    1    2    0    0 -0.32664779110E+02 -0.35225834085E+02 -0.38480319143E+02  0.61551459306E+02  0.00000000000E+00 0.  1.
         11    1    1    2    0    0  0.21562742701E+02 -0.73471786291E+02 -0.22615469954E+03  0.23876558248E+03  0.00000000000E+00 0. -1.
</event>
<event>
 7    1  0.2601031E-009  0.1119753E+03  0.7561462E-02  0.1256955E+00
          1   -1    0    0  501    0  0.00000000000E+00  0.00000000000E+00  0.22402085179E+03  0.22402085179E+03  0.00000000000E+00 0. -1.
         -1   -1    0    0    0  501 -0.00000000000E+00 -0.00000000000E+00 -0.87132364027E+02  0.87132364027E+02  0.00000000000E+00 0.  1.
         25    2    1    2    0    0  0.48685543033E+02 -0.68031723393E+02  0.10038599683E+03  0.18090053117E+03  0.12509618831E+03 0.  0.
          5    1    3    3  502    0 -0.94874475960E+00 -0.51646427951E+02 -0.15174577893E+02  0.53999943064E+02  0.41800000000E+01 0. -1.
         -5    1    3    3    0  502  0.49634287792E+02 -0.16385295442E+02  0.11556057472E+03  0.12690058810E+03  0.41800000000E+01 0. -1.
        -11    1    1    2    0    0  0.16215545009E+02  0.49658886654E+02 -0.25683208469E+01  0.52302439672E+02  0.00000000000E+00 0.  1.
         11    1    1    2    0    0 -0.64901088041E+02  0.18372836739E+02  0.39070811784E+02  0.77950244979E+02  0.00000000000E+00 0. -1.
</event>
<event>
 7    1  0.2601031E-009  0.1385216E+03  0.7561462E-02  0.1215332E+00
         -2   -1    0    0    0  501 -0.00000000000E+00  0.00000000000E+00  0.24260701036E+03  0.24260701036E+03  0.00000000000E+00 0.  1.
          2   -1    0    0  501    0  0.00000000000E+00 -0.00000000000E+00 -0.17096284588E+03  0.17096284588E+03  0.00000000000E+00 0. -1.
         25    2    1    2    0    0  0.17696427113E+02  0.12091812088E+03 -0.84945156349E+02  0.19440744670E+03  0.12507685738E+03 0.  0.
          5    1    3    3  502    0  0.28045306901E+02  0.91628872007E+02  0.80684726055E+01  0.96254673002E+02  0.41800000000E+01 0. -1.
         -5    1    3    3    0  502 -0.10348879787E+02  0.29289248876E+02 -0.93013628955E+02  0.98152773695E+02  0.41800000000E+01 0. -1.
        -11    1    1    2    0    0 -0.51934172007E+02 -0.88614886562E+02  0.84193840413E+02  0.13280948425E+03  0.00000000000E+00 0. -1.
         11    1    1    2    0    0  0.34237744894E+02 -0.32303234322E+02  0.72395480413E+02  0.86352925297E+02  0.00000000000E+00 0.  1.
</event>
<event>
 7    1  0.2601031E-009  0.7128640E+02  0.7561462E-02  0.1355772E+00
          1   -1    0    0  501    0  0.00000000000E+00  0.00000000000E+00  0.11750821751E+03  0.11750821751E+03  0.00000000000E+00 0. -1.
         -1   -1    0    0    0  501 -0.00000000000E+00 -0.00000000000E+00 -0.10023548477E+03  0.10023548477E+03  0.00000000000E+00 0.  1.
         25    2    1    2    0    0 -0.24350318968E+02 -0.34008268144E+01  0.14232343858E+02  0.12827380304E+03  0.12508838986E+03 0.  0.
          5    1    3    3  502    0 -0.24775631126E+02  0.27385696587E+02  0.61411446097E+02  0.71781936355E+02  0.41800000000E+01 0.  1.
         -5    1    3    3    0  502  0.42531215737E+00 -0.30786523402E+02 -0.47179102239E+02  0.56491866686E+02  0.41800000000E+01 0.  1.
        -11    1    1    2    0    0  0.18469424775E+02 -0.32809357079E+02  0.26395702293E+02  0.45981590480E+02  0.00000000000E+00 0. -1.
         11    1    1    2    0    0  0.58808941929E+01  0.36210183894E+02 -0.23355313416E+02  0.43488308761E+02  0.00000000000E+00 0.  1.
</event>
<event>
 7    1  0.2601031E-009  0.1933788E+03  0.7561462E-02  0.1155449E+00
          1   -1    0    0  501    0  0.00000000000E+00  0.00000000000E+00  0.79000098336E+03  0.79000098336E+03  0.00000000000E+00 0. -1.
         -1   -1    0    0    0  501 -0.00000000000E+00 -0.00000000000E+00 -0.54374614611E+02  0.54374614611E+02  0.00000000000E+00 0.  1.
         25    2    1    2    0    0 -0.75975159813E+02 -0.14610724427E+03  0.25168031875E+03  0.32575024903E+03  0.12510271844E+03 0.  0.
          5    1    3    3  502    0 -0.71935097282E+02 -0.16526413670E+03  0.19469072022E+03  0.26534664505E+03  0.41800000000E+01 0. -1.
         -5    1    3    3    0  502 -0.40400625314E+01  0.19156892434E+02  0.56989598536E+02  0.60403603984E+02  0.41800000000E+01 0. -1.
        -11    1    1    2    0    0  0.46764200480E+02  0.14986957193E+03  0.40984844698E+03  0.43888897061E+03  0.00000000000E+00 0.  1.
         11    1    1    2    0    0  0.29210959334E+02 -0.37623276656E+01  0.74097603022E+02  0.79736378324E+02  0.00000000000E+00 0. -1.
</event>
<event>
 7    1  0.2601031E-009  0.2051479E+03  0.7561462E-02  0.1145467E+00
          1   -1    0    0  501    0  0.00000000000E+00  0.00000000000E+00  0.11288142329E+04  0.11288142329E+04  0.00000000000E+00 0. -1.
         -1   -1    0    0    0  501 -0.00000000000E+00 -0.00000000000E+00 -0.51026862375E+02  0.51026862375E+02  0.00000000000E+00 0.  1.
         25    2    1    2    0    0  0.43668376835E+02 -0.18449574722E+03  0.31411911528E+03  0.38763936639E+03  0.12509137426E+03 0.  0.
          5    1    3    3  502    0  0.31961727427E+02 -0.19806628115E+03  0.30916427949E+03  0.36858082948E+03  0.41800000000E+01 0. -1.
         -5    1    3    3    0  502  0.11706649408E+02  0.13570533929E+02  0.49548357924E+01  0.19058536911E+02  0.41800000000E+01 0. -1.
        -11    1    1    2    0    0 -0.37738090326E+02  0.10629631237E+03  0.60247782702E+03  0.61294583899E+03  0.00000000000E+00 0. -1.
         11    1    1    2    0    0 -0.59302865087E+01  0.78199434851E+02  0.16119042823E+03  0.17925588989E+03  0.00000000000E+00 0.  1.
</event>
<event>
 7    1  0.2601031E-009  0.1006333E+03  0.7561462E-02  0.1278970E+00
         -2   -1    0    0    0  501 -0.00000000000E+00  0.00000000000E+00  0.98280863208E+02  0.98280863208E+02  0.00000000000E+00 0.  1.
          2   -1    0    0  501    0  0.00000000000E+00 -0.00000000000E+00 -0.16147754030E+03  0.16147754030E+03  0.00000000000E+00 0. -1.
         25    2    1    2    0    0 -0.60359755799E+02 -0.18897324978E+02 -0.47155272691E+02  0.14788360477E+03  0.12508210026E+03 0.  0.
          5    1    3    3  502    0 -0.52861612373E+02 -0.65109868213E+02 -0.54789300191E+02  0.10026457409E+03  0.41800000000E+01 0. -1.
         -5    1    3    3    0  502 -0.74981434260E+01  0.46212543235E+02  0.76340274997E+01  0.47619030680E+02  0.41800000000E+01 0. -1.
        -11    1    1    2    0    0  0.53502033159E+02  0.26791960630E+02  0.28390340887E+02  0.66229058292E+02  0.00000000000E+00 0.  1.
         11    1    1    2    0    0  0.68577226401E+01 -0.78946356521E+01 -0.44431745290E+02  0.45645740452E+02  0.00000000000E+00 0. -1.
</event>
<event>
 7    1  0.2601031E-009  0.9135330E+02  0.7561462E-02  0.1299607E+00
         -2   -1    0    0    0  501 -0.00000000000E+00  0.00000000000E+00  0.11941412200E+03  0.11941412200E+03  0.00000000000E+00 0.  1.
          2   -1    0    0  501    0  0.00000000000E+00 -0.00000000000E+00 -0.15503960758E+03  0.15503960758E+03  0.00000000000E+00 0. -1.
         25    2    1    2    0    0 -0.35433699553E+02  0.15026015439E+02  0.53008278159E+02  0.14120591111E+03  0.12509158075E+03 0.  0.
          5    1    3    3  502    0 -0.47424160995E+02 -0.29347360659E+02 -0.16013715420E+02  0.58174136051E+02  0.41800000000E+01 0.  1.
         -5    1    3    3    0  502  0.11990461442E+02  0.44373376099E+02  0.69021993579E+02  0.83031775060E+02  0.41800000000E+01 0.  1.
        -11    1    1    2    0    0 -0.62504696434E+01  0.23224524382E+02 -0.69470362550E+02  0.73515836229E+02  0.00000000000E+00 0. -1.
         11    1    1    2    0    0  0.41684169197E+02 -0.38250539822E+02 -0.19163401189E+02  0.59731982249E+02  0.00000000000E+00 0.  1.
</event>
<event>
 7    1  0.2601031E-009  0.9673193E+02  0.7561462E-02  0.1287322E+00
          1   -1    0    0  501    0  0.00000000000E+00  0.00000000000E+00  0.12582444726E+03  0.12582444726E+03  0.00000000000E+00 0. -1.
         -1   -1    0    0    0  501 -0.00000000000E+00 -0.00000000000E+00 -0.96822433020E+02  0.96822433020E+02  0.00000000000E+00 0.  1.
         25    2    1    2    0    0  0.24799951446E+02  0.45529539145E+01  0.47380983674E+01  0.12769352320E+03  0.12508964510E+03 0.  0.
          5    1    3    3  502    0  0.50009872642E+02  0.47940795578E+02  0.24500105662E+02  0.73600508284E+02  0.41800000000E+01 0. -1.
         -5    1    3    3    0  502 -0.25209921195E+02 -0.43387841663E+02 -0.19762007295E+02  0.54093014920E+02  0.41800000000E+01 0. -1.
        -11    1    1    2    0    0 -0.18997646396E+02  0.31719414292E+02 -0.16144005704E+02  0.40344277560E+02  0.00000000000E+00 0.  1.
         11    1    1    2    0    0 -0.58023050502E+01 -0.36272368206E+02  0.40407921573E+02  0.54609079511E+02  0.00000000000E+00 0. -1.
</event>
<event>
 7    1  0.2601031E-009  0.8251384E+02  0.7561462E-02  0.1322065E+00
          2   -1    0    0  501    0  0.00000000000E+00  0.00000000000E+00  0.13026323681E+04  0.13026323681E+04  0.00000000000E+00 0. -1.
         -2   -1    0    0    0  501 -0.00000000000E+00 -0.00000000000E+00 -0.15295524719E+02  0.15295524719E+02  0.00000000000E+00 0.  1.
         25    2    1    2    0    0 -0.55402460001E+02  0.42983345821E+02  0.98268847600E+03  0.99309678260E+03  0.12509028002E+03 0.  0.
          5    1    3    3  502    0 -0.24587429324E+02 -0.82900222379E+01  0.80753194793E+03  0.80795951970E+03  0.41800000000E+01 0. -1.
         -5    1    3    3    0  502 -0.30815030677E+02  0.51273368058E+02  0.17515652807E+03  0.18513726290E+03  0.41800000000E+01 0. -1.
        -11    1    1    2    0    0  0.10991277954E+01 -0.19640554681E+02  0.62579382243E+01  0.20642704786E+02  0.00000000000E+00 0.  1.
         11    1    1    2    0    0  0.54303332206E+02 -0.23342791140E+02  0.29839042912E+03  0.30418840539E+03  0.00000000000E+00 0. -1.
</event>
<event>
 7    1  0.2905191E-009  0.1208310E+03  0.7561462E-02  0.1241732E+00
          1   -1    0    0  501    0  0.00000000000E+00  0.00000000000E+00  0.12114084223E+04  0.12114084223E+04  0.00000000000E+00 0. -1.
         -1   -1    0    0    0  501 -0.00000000000E+00 -0.00000000000E+00 -0.14383190724E+02  0.14383190724E+02  0.00000000000E+00 0.  1.
         25    2    1    2    0    0  0.29648982235E+02  0.68429846299E+02  0.70773701546E+03  0.72256522077E+03  0.12508840556E+03 0.  0.
          5    1    3    3  502    0 -0.36588331653E+02  0.16775051334E+02  0.84620658823E+02  0.93798916092E+02  0.41800000000E+01 0.  1.
         -5    1    3    3    0  502  0.66237313888E+02  0.51654794965E+02  0.62311635664E+03  0.62876630468E+03  0.41800000000E+01 0.  1.
        -11    1    1    2    0    0 -0.42360913076E+02  0.49241184927E+01  0.20163167588E+03  0.20609227695E+03  0.00000000000E+00 0. -1.
         11    1    1    2    0    0  0.12711930841E+02 -0.73353964792E+02  0.28765654023E+03  0.29713411530E+03  0.00000000000E+00 0.  1.
</event>
<event>
 7    1  0.2601031E-009  0.1109553E+03  0.7561462E-02  0.1258811E+00
         -2   -1    0    0    0  501 -0.00000000000E+00  0.00000000000E+00  0.17029399045E+02  0.17029399045E+02  0.00000000000E+00 0.  1.
          2   -1    0    0  501    0  0.00000000000E+00 -0.00000000000E+00 -0.92569924471E+03  0.92569924471E+03  0.00000000000E+00 0. -1.
         25    2    1    2    0    0  0.54963879348E+02 -0.20719389689E+02 -0.59306454610E+03  0.60895333351E+03  0.12509310699E+03 0.  0.
          5    1    3    3  502    0  0.92292983194E+01 -0.59278225089E+02 -0.44747312866E+03  0.45149613641E+03  0.41800000000E+01 0.  1.
         -5    1    3    3    0  502  0.45734581029E+02  0.38558835401E+02 -0.14559141743E+03  0.15745719710E+03  0.41800000000E+01 0.  1.
        -11    1    1    2    0    0 -0.50719782743E+02  0.50589634102E+02 -0.26804681973E+03  0.27745432959E+03  0.00000000000E+00 0. -1.
         11    1    1    2    0    0 -0.42440966054E+01 -0.29870244413E+02 -0.47558479843E+02  0.56320980658E+02  0.00000000000E+00 0.  1.
</event>
<event>
 7    1  0.3159005E-009  0.1651565E+03  0.7561462E-02  0.1182995E+00
          2   -1    0    0  501    0  0.00000000000E+00  0.00000000000E+00  0.31591083552E+03  0.31591083552E+03  0.00000000000E+00 0. -1.
         -2   -1    0    0    0  501 -0.00000000000E+00 -0.00000000000E+00 -0.15120659961E+03  0.15120659961E+03  0.00000000000E+00 0.  1.
         25    2    1    2    0    0  0.14307570072E+03  0.26941246380E+02  0.21480682409E+03  0.28807121353E+03  0.12508623225E+03 0.  0.
          5    1    3    3  502    0  0.89792718372E+02 -0.38056140201E+02  0.16071145764E+03  0.18803363289E+03  0.41800000000E+01 0.  1.
         -5    1    3    3    0  502  0.53282982344E+02  0.64997386581E+02  0.54095366445E+02  0.10003758064E+03  0.41800000000E+01 0.  1.
        -11    1    1    2    0    0 -0.54934318463E+02  0.41354580764E+01 -0.64126523713E+02  0.84540477891E+02  0.00000000000E+00 0. -1.
         11    1    1    2    0    0 -0.88141382252E+02 -0.31076704456E+02  0.14023935533E+02  0.94505743704E+02  0.00000000000E+00 0.  1.
</event>
<event>
 7    1  0.2601031E-009  0.9988898E+02  0.7561462E-02  0.1280530E+00
         -1   -1    0    0    0  501 -0.00000000000E+00  0.00000000000E+00  0.71249719346E+02  0.71249719346E+02  0.00000000000E+00 0.  1.
          1   -1    0    0  501    0  0.00000000000E+00 -0.00000000000E+00 -0.27366847149E+03  0.27366847149E+03  0.00000000000E+00 0. -1.
         25    2    1    2    0    0 -0.15935537112E+02 -0.35855211988E+01 -0.98890160981E+02  0.16029470273E+03  0.12509328711E+03 0.  0.
          5    1    3    3  502    0  0.46274745221E+01  0.53614638965E+02 -0.79999813989E+02  0.96505884121E+02  0.41800000000E+01 0.  1.
         -5    1    3    3    0  502 -0.20563011634E+02 -0.57200160164E+02 -0.18890346992E+02  0.63788818611E+02  0.41800000000E+01 0.  1.
        -11    1    1    2    0    0  0.26259990104E+02 -0.35664398204E+02  0.24292445275E+02  0.50513951310E+02  0.00000000000E+00 0.  1.
         11    1    1    2    0    0 -0.10324452992E+02  0.39249919403E+02 -0.12782103644E+03  0.13410953679E+03  0.00000000000E+00 0. -1.
</event>
<event>
 7    1  0.2601031E-009  0.7916815E+02  0.7561462E-02  0.1331429E+00
         -2   -1    0    0    0  501 -0.00000000000E+00  0.00000000000E+00  0.56603893657E+02  0.56603893657E+02  0.00000000000E+00 0. -1.
          2   -1    0    0  501    0  0.00000000000E+00 -0.00000000000E+00 -0.32574346947E+03  0.32574346947E+03  0.00000000000E+00 0.  1.
         25    2    1    2    0    0  0.22629539411E+02  0.35003926039E+01 -0.36576359058E+02  0.13232447572E+03  0.12509031949E+03 0.  0.
          5    1    3    3  502    0  0.36879069880E+02 -0.36560260931E+02  0.24673859980E+02  0.57645383518E+02  0.41800000000E+01 0. -1.
         -5    1    3    3    0  502 -0.14249530469E+02  0.40060653535E+02 -0.61250219038E+02  0.74679092204E+02  0.41800000000E+01 0. -1.
        -11    1    1    2    0    0 -0.29226862589E+02  0.22376574080E+02 -0.21484360432E+03  0.21797406928E+03  0.00000000000E+00 0.  1.
         11    1    1    2    0    0  0.65973231780E+01 -0.25876966684E+02 -0.17719612438E+02  0.32048818119E+02  0.00000000000E+00 0. -1.
</event>
<event>
 7    1  0.2601031E-009  0.1156840E+03  0.7561462E-02  0.1250392E+00
          4   -1    0    0  501    0  0.00000000000E+00  0.00000000000E+00  0.13533386139E+03  0.13533386139E+03  0.00000000000E+00 0. -1.
         -4   -1    0    0    0  501 -0.00000000000E+00 -0.00000000000E+00 -0.15122634137E+03  0.15122634137E+03  0.00000000000E+00 0.  1.
         25    2    1    2    0    0  0.46943407776E+02 -0.43269626053E+02  0.58978196450E+02  0.15232211543E+03  0.12509058766E+03 0.  0.
          5    1    3    3  502    0 -0.35393371429E+02 -0.40190686613E+02  0.41771908633E+02  0.68046651515E+02  0.41800000000E+01 0.  1.
         -5    1    3    3    0  502  0.82336779205E+02 -0.30789394409E+01  0.17206287817E+02  0.84275463916E+02  0.41800000000E+01 0.  1.
        -11    1    1    2    0    0 -0.38216198227E+02 -0.11328576871E+02  0.15768454569E+01  0.39891113076E+02  0.00000000000E+00 0. -1.
         11    1    1    2    0    0 -0.87272095486E+01  0.54598202925E+02 -0.76447521884E+02  0.94346974256E+02  0.00000000000E+00 0.  1.
</event>
<event>
 7    1  0.2601031E-009  0.1105034E+03  0.7561462E-02  0.1259640E+00
          1   -1    0    0  501    0  0.00000000000E+00  0.00000000000E+00  0.47568615612E+02  0.47568615612E+02  0.00000000000E+00 0. -1.
         -1   -1    0    0    0  501 -0.00000000000E+00 -0.00000000000E+00 -0.40456523415E+03  0.40456523415E+03  0.00000000000E+00 0.  1.
         25    2    1    2    0    0 -0.71606807139E+02  0.36196489650E+02 -0.24268021455E+03  0.28456415563E+03  0.12508137929E+03 0.  0.
          5    1    3    3  502    0 -0.43570517482E+02 -0.15794223989E+02 -0.14372547217E+02  0.48702053536E+02  0.41800000000E+01 0. -1.
         -5    1    3    3    0  502 -0.28036289657E+02  0.51990713639E+02 -0.22830766733E+03  0.23586210210E+03  0.41800000000E+01 0. -1.
        -11    1    1    2    0    0  0.55866633729E+02  0.18100209139E+02 -0.86534869337E+02  0.10458002652E+03  0.00000000000E+00 0.  1.
         11    1    1    2    0    0  0.15740173410E+02 -0.54296698789E+02 -0.27781534650E+02  0.62989667612E+02  0.00000000000E+00 0. -1.
</event>
<event>
 7    1  0.2601031E-009  0.6220756E+02  0.7561462E-02  0.1388794E+00
          3   -1    0    0  501    0  0.00000000000E+00  0.00000000000E+00  0.19832249956E+03  0.19832249956E+03  0.00000000000E+00 0. -1.
         -3   -1    0    0    0  501 -0.00000000000E+00 -0.00000000000E+00 -0.66079476069E+02  0.66079476069E+02  0.00000000000E+00 0.  1.
         25    2    1    2    0    0 -0.36512560431E+02  0.23085331330E+01  0.92155195425E+02  0.15961985156E+03  0.12508965014E+03 0.  0.
          5    1    3    3  502    0 -0.50753123392E+01 -0.15716786947E+02 -0.28702000158E+02  0.33377438493E+02  0.41800000000E+01 0. -1.
         -5    1    3    3    0  502 -0.31437248092E+02  0.18025320080E+02  0.12085719558E+03  0.12624241306E+03  0.41800000000E+01 0. -1.
        -11    1    1    2    0    0 -0.14751074146E+02 -0.11644185683E+02  0.48488032052E+02  0.52002600906E+02  0.00000000000E+00 0. -1.
         11    1    1    2    0    0  0.51263634577E+02  0.93356525497E+01 -0.84002039870E+01  0.52779523166E+02  0.00000000000E+00 0.  1.
</event>
<event>
 7    1  0.2601031E-009  0.9929072E+02  0.7561462E-02  0.1281795E+00
         -1   -1    0    0    0  501 -0.00000000000E+00  0.00000000000E+00  0.24172931773E+02  0.24172931773E+02  0.00000000000E+00 0.  1.
          1   -1    0    0  501    0  0.00000000000E+00 -0.00000000000E+00 -0.76600149057E+03  0.76600149057E+03  0.00000000000E+00 0. -1.
         25    2    1    2    0    0  0.81067259075E+02 -0.70211207701E+01 -0.28930678028E+03  0.32552687044E+03  0.12509250030E+03 0.  0.
          5    1    3    3  502    0  0.50545905450E+02 -0.26580932305E+02 -0.31902889589E+02  0.65549227944E+02  0.41800000000E+01 0. -1.
         -5    1    3    3    0  502  0.30521353625E+02  0.19559811535E+02 -0.25740389069E+03  0.25997764249E+03  0.41800000000E+01 0. -1.
        -11    1    1    2    0    0  0.55768517700E+00  0.21858764607E+02 -0.75299808092E+02  0.78410316296E+02  0.00000000000E+00 0.  1.
         11    1    1    2    0    0 -0.81624944252E+02 -0.14837643837E+02 -0.37722197043E+03  0.38623723561E+03  0.00000000000E+00 0. -1.
</event>
<event>
 7    1  0.2601031E-009  0.3454680E+03  0.7561462E-02  0.1064491E+00
         -2   -1    0    0    0  501 -0.00000000000E+00  0.00000000000E+00  0.37958206033E+02  0.37958206033E+02  0.00000000000E+00 0.  1.
          2   -1    0    0  501    0  0.00000000000E+00 -0.00000000000E+00 -0.34679831131E+04  0.34679831131E+04  0.00000000000E+00 0. -1.
         25    2    1    2    0    0  0.22210547809E+03  0.24997644157E+03 -0.21708299118E+04  0.21999930146E+04  0.12509074233E+03 0.  0.
          5    1    3    3  502    0 -0.71968321717E+01  0.26271994883E+01 -0.11297242640E+02  0.14275736819E+02  0.41800000000E+01 0. -1.
         -5    1    3    3    0  502  0.22930231027E+03  0.24734924208E+03 -0.21595326691E+04  0.21857172778E+04  0.41800000000E+01 0. -1.
        -11    1    1    2    0    0 -0.11913934429E+03 -0.19409908825E+03 -0.77406611093E+03  0.80687482517E+03  0.00000000000E+00 0. -1.
         11    1    1    2    0    0 -0.10296613381E+03 -0.55877353324E+02 -0.48512888437E+03  0.49907347934E+03  0.00000000000E+00 0.  1.
</event>
<event>
 7    1  0.2601031E-009  0.1600987E+03  0.7561462E-02  0.1188585E+00
         -2   -1    0    0    0  501 -0.00000000000E+00  0.00000000000E+00  0.56397260581E+02  0.56397260581E+02  0.00000000000E+00 0.  1.
          2   -1    0    0  501    0  0.00000000000E+00 -0.00000000000E+00 -0.46310302331E+03  0.46310302331E+03  0.00000000000E+00 0. -1.
         25    2    1    2    0    0  0.96088737870E+02 -0.72352581496E+02 -0.24534901745E+03  0.30051935237E+03  0.12509116353E+03 0.  0.
          5    1    3    3  502    0 -0.24701268921E+02 -0.42029963893E+02 -0.69606529813E+02  0.85083558599E+02  0.41800000000E+01 0.  1.
         -5    1    3    3    0  502  0.12079000679E+03 -0.30322617603E+02 -0.17574248764E+03  0.21543579378E+03  0.41800000000E+01 0.  1.
        -11    1    1    2    0    0 -0.32505660658E+02 -0.17242389249E+02 -0.28243759306E+02  0.46385643270E+02  0.00000000000E+00 0.  1.
         11    1    1    2    0    0 -0.63583077213E+02  0.89594970745E+02 -0.13311298597E+03  0.17259528825E+03  0.00000000000E+00 0. -1.
</event>
<event>
 7    1  0.2601031E-009  0.1086544E+03  0.7561462E-02  0.1263082E+00
         -2   -1    0    0    0  501 -0.00000000000E+00  0.00000000000E+00  0.31594691855E+02  0.31594691855E+02  0.00000000000E+00 0.  1.
          2   -1    0    0  501    0  0.00000000000E+00 -0.00000000000E+00 -0.52662450820E+03  0.52662450820E+03  0.00000000000E+00 0. -1.
         25    2    1    2    0    0  0.70347758929E+01  0.29009183472E+02 -0.13689638143E+03  0.18782904857E+03  0.12509241159E+03 0.  0.
          5    1    3    3  502    0 -0.56082780778E+02  0.28731373754E+02 -0.85673458016E+02  0.10643394170E+03  0.41800000000E+01 0.  1.
         -5    1    3    3    0  502  0.63117556671E+02  0.27780971854E+00 -0.51222923419E+02  0.81395106867E+02  0.41800000000E+01 0.  1.
        -11    1    1    2    0    0  0.25152470784E+00  0.30723394008E+02 -0.77303157488E+02  0.83185145078E+02  0.00000000000E+00 0.  1.
         11    1    1    2    0    0 -0.72863006007E+01 -0.59732577480E+02 -0.28083027743E+03  0.28720500641E+03  0.00000000000E+00 0. -1.
</event>
<event>
 7    1  0.2601031E-009  0.1120210E+03  0.7561462E-02  0.1256872E+00
          2   -1    0    0  501    0  0.00000000000E+00  0.00000000000E+00  0.81255555891E+03  0.81255555891E+03  0.00000000000E+00 0.  1.
         -2   -1    0    0    0  501 -0.00000000000E+00 -0.00000000000E+00 -0.21385590352E+02  0.21385590352E+02  0.00000000000E+00 0. -1.
         25    2    1    2    0    0 -0.64913802893E+02 -0.27535482193E+02  0.51372535194E+03  0.53341488508E+03  0.12508276387E+03 0.  0.
          5    1    3    3  502    0 -0.63342850853E+02  0.27812759697E+02  0.40947088445E+03  0.41529476757E+03  0.41800000000E+01 0.  1.
         -5    1    3    3    0  502 -0.15709520395E+01 -0.55348241890E+02  0.10425446748E+03  0.11812011751E+03  0.41800000000E+01 0.  1.
        -11    1    1    2    0    0  0.62713150392E+02  0.47782000025E+02  0.26540491361E+03  0.27686788714E+03  0.00000000000E+00 0.  1.
         11    1    1    2    0    0  0.22006525009E+01 -0.20246517831E+02  0.12039703006E+02  0.23658377040E+02  0.00000000000E+00 0. -1.
</event>
<event>
 7    1  0.2601031E-009  0.1766364E+03  0.7561462E-02  0.1171099E+00
          1   -1    0    0  501    0  0.00000000000E+00  0.00000000000E+00  0.38931368671E+03  0.38931368671E+03  0.00000000000E+00 0. -1.
         -1   -1    0    0    0  501 -0.00000000000E+00 -0.00000000000E+00 -0.87202579616E+02  0.87202579616E+02  0.00000000000E+00 0.  1.
         25    2    1    2    0    0  0.14792752045E+03 -0.26996134526E+01  0.16107408295E+03  0.25195866418E+03  0.12509384093E+03 0.  0.
          5    1    3    3  502    0  0.46423252163E+02  0.46900212188E+02  0.10900436789E+03  0.12749185411E+03  0.41800000000E+01 0.  1.
         -5    1    3    3    0  502  0.10150426828E+03 -0.49599825641E+02  0.52069715065E+02  0.12446681008E+03  0.41800000000E+01 0.  1.
        -11    1    1    2    0    0 -0.40491883238E+02 -0.41449282713E+02  0.38037319932E+02  0.69314308430E+02  0.00000000000E+00 0. -1.
         11    1    1    2    0    0 -0.10743563721E+03  0.44148896166E+02  0.10299970420E+03  0.15524329371E+03  0.00000000000E+00 0.  1.
</event>
<event>
 7    1  0.2601031E-009  0.1105301E+03  0.7561462E-02  0.1259591E+00
         -2   -1    0    0    0  501 -0.00000000000E+00  0.00000000000E+00  0.48531677065E+02  0.48531677065E+02  0.00000000000E+00 0.  1.
          2   -1    0    0  501    0  0.00000000000E+00 -0.00000000000E+00 -0.34550518848E+03  0.34550518848E+03  0.00000000000E+00 0. -1.
         25    2    1    2    0    0  0.59548418013E+02 -0.45223031227E+01 -0.22171575063E+03  0.26147918732E+03  0.12508807301E+03 0.  0.
          5    1    3    3  502    0  0.84433585534E+02 -0.19074007143E+02 -0.83909673836E+02  0.12062816370E+03  0.41800000000E+01 0. -1.
         -5    1    3    3    0  502 -0.24885167520E+02  0.14551704020E+02 -0.13780607680E+03  0.14085102362E+03  0.41800000000E+01 0. -1.
        -11    1    1    2    0    0 -0.56578117446E+02  0.40239688331E+02 -0.32191148269E+02  0.76528334084E+02  0.00000000000E+00 0.  1.
         11    1    1    2    0    0 -0.29703005671E+01 -0.35717385208E+02 -0.43066612510E+02  0.56029344139E+02  0.00000000000E+00 0. -1.
</event>
<event>
 7    1  0.2601031E-009  0.8956880E+02  0.7561462E-02  0.1303899E+00
          2   -1    0    0  501    0  0.00000000000E+00  0.00000000000E+00  0.36083804184E+03  0.36083804184E+03  0.00000000000E+00 0. -1.
         -2   -1    0    0    0  501 -0.00000000000E+00 -0.00000000000E+00 -0.46878474512E+02  0.46878474512E+02  0.00000000000E+00 0.  1.
         25    2    1    2    0    0 -0.27778853963E+02  0.34317898870E+02  0.26040125477E+03  0.29224194221E+03  0.12508859417E+03 0.  0.
          5    1    3    3  502    0 -0.22582542343E+02  0.64492402694E+02  0.64965647076E+02  0.94378222721E+02  0.41800000000E+01 0. -1.
         -5    1    3    3    0  502 -0.51963116199E+01 -0.30174503825E+02  0.19543560770E+03  0.19786371949E+03  0.41800000000E+01 0. -1.
        -11    1    1    2    0    0 -0.16297590892E+01 -0.47513890854E+02 -0.58346289331E+01  0.47898526424E+02  0.00000000000E+00 0.  1.
         11    1    1    2    0    0  0.29408613052E+02  0.13195991985E+02  0.59392941490E+02  0.67576047717E+02  0.00000000000E+00 0. -1.
</event>
<event>
 7    1  0.2601031E-009  0.2049518E+03  0.7561462E-02  0.1145627E+00
          1   -1    0    0  501    0  0.00000000000E+00  0.00000000000E+00  0.99224940946E+03  0.99224940946E+03  0.00000000000E+00 0. -1.
         -1   -1    0    0    0  501 -0.00000000000E+00 -0.00000000000E+00 -0.51024228215E+02  0.51024228215E+02  0.00000000000E+00 0.  1.
         25    2    1    2    0    0 -0.86802528927E+02  0.16004573228E+03  0.31199122356E+03  0.38227669607E+03  0.12509050055E+03 0.  0.
          5    1    3    3  502    0  0.49967280886E+00 -0.20065613010E+02  0.24485220853E+02  0.31935512186E+02  0.41800000000E+01 0.  1.
         -5    1    3    3    0  502 -0.87302201736E+02  0.18011134529E+03  0.28750600271E+03  0.35034118388E+03  0.41800000000E+01 0.  1.
        -11    1    1    2    0    0  0.72972811517E+02 -0.81274980855E+02  0.47341569030E+03  0.48585292997E+03  0.00000000000E+00 0. -1.
         11    1    1    2    0    0  0.13829717410E+02 -0.78770751424E+02  0.15581826738E+03  0.17514401164E+03  0.00000000000E+00 0.  1.
</event>
<event>
 7    1  0.2601031E-009  0.7657882E+02  0.7561462E-02  0.1339051E+00
         -1   -1    0    0    0  501 -0.00000000000E+00  0.00000000000E+00  0.25551430223E+03  0.25551430223E+03  0.00000000000E+00 0.  1.
          1   -1    0    0  501    0  0.00000000000E+00 -0.00000000000E+00 -0.49021983282E+02  0.49021983282E+02  0.00000000000E+00 0. -1.
         25    2    1    2    0    0  0.88344477391E+01 -0.12181054379E+02  0.14623936510E+03  0.19303215102E+03  0.12509609854E+03 0.  0.
          5    1    3    3  502    0  0.35708055234E+02  0.34139127833E+02  0.15911496540E+02  0.52069121175E+02  0.41800000000E+01 0.  1.
         -5    1    3    3    0  502 -0.26873607495E+02 -0.46320182212E+02  0.13032786856E+03  0.14096302984E+03  0.41800000000E+01 0.  1.
        -11    1    1    2    0    0  0.17795095022E+02 -0.46114512763E+01  0.74654440160E+02  0.76884434870E+02  0.00000000000E+00 0.  1.
         11    1    1    2    0    0 -0.26629542761E+02  0.16792505656E+02 -0.14401486311E+02  0.34619699621E+02  0.00000000000E+00 0. -1.
</event>
<event>
 7    1  0.2601031E-009  0.1439122E+03  0.7561462E-02  0.1208160E+00
         -1   -1    0    0    0  501 -0.00000000000E+00  0.00000000000E+00  0.45371877541E+02  0.45371877541E+02  0.00000000000E+00 0.  1.
          1   -1    0    0  501    0  0.00000000000E+00 -0.00000000000E+00 -0.61010727448E+03  0.61010727448E+03  0.00000000000E+00 0. -1.
         25    2    1    2    0    0 -0.11550879217E+03 -0.24308380126E+02 -0.21579114739E+03  0.27594706505E+03  0.12509110680E+03 0.  0.
          5    1    3    3  502    0  0.12237778554E+02  0.27369803106E+02 -0.19252763343E+02  0.35874930555E+02  0.41800000000E+01 0.  1.
         -5    1    3    3    0  502 -0.12774657073E+03 -0.51678183232E+02 -0.19653838405E+03  0.24007213449E+03  0.41800000000E+01 0.  1.
        -11    1    1    2    0    0  0.64755152476E+02  0.23618654373E+02 -0.30406094988E+03  0.31177577174E+03  0.00000000000E+00 0.  1.
         11    1    1    2    0    0  0.50753639699E+02  0.68972575305E+00 -0.44883299676E+02  0.67756315234E+02  0.00000000000E+00 0. -1.
</event>
<event>
 7    1  0.2601031E-009  0.1950283E+03  0.7561462E-02  0.1154003E+00
          1   -1    0    0  501    0  0.00000000000E+00  0.00000000000E+00  0.16490846285E+03  0.16490846285E+03  0.00000000000E+00 0. -1.
         -1   -1    0    0    0  501 -0.00000000000E+00 -0.00000000000E+00 -0.37341288514E+03  0.37341288514E+03  0.00000000000E+00 0.  1.
         25    2    1    2    0    0 -0.13412700055E+03 -0.12465501511E+03  0.30331355247E+02  0.22381828727E+03  0.12508281072E+03 0.  0.
          5    1    3    3  502    0 -0.15763496995E+02  0.14881080812E-01 -0.35990241529E+02  0.39512756728E+02  0.41800000000E+01 0.  1.
         -5    1    3    3    0  502 -0.11836350355E+03 -0.12466989619E+03  0.66321596776E+02  0.18430553054E+03  0.41800000000E+01 0.  1.
        -11    1    1    2    0    0  0.12583632808E+03  0.65135127172E+02 -0.14247378816E+03  0.20093816603E+03  0.00000000000E+00 0. -1.
         11    1    1    2    0    0  0.82906724625E+01  0.59519887936E+02 -0.96361989374E+02  0.11356489469E+03  0.00000000000E+00 0.  1.
</event>
<event>
 7    1  0.2601031E-009  0.9200647E+02  0.7561462E-02  0.1298064E+00
          1   -1    0    0  501    0  0.00000000000E+00  0.00000000000E+00  0.77253844902E+02  0.77253844902E+02  0.00000000000E+00 0. -1.
         -1   -1    0    0    0  501 -0.00000000000E+00 -0.00000000000E+00 -0.16131013656E+03  0.16131013656E+03  0.00000000000E+00 0.  1.
         25    2    1    2    0    0  0.11417096442E+02  0.22305178959E+02 -0.49988065844E+02  0.13701566850E+03  0.12508643247E+03 0.  0.
          5    1    3    3  502    0 -0.56655321898E+02  0.10753026642E+02 -0.16272675620E+02  0.60064344275E+02  0.41800000000E+01 0.  1.
         -5    1    3    3    0  502  0.68072418340E+02  0.11552152317E+02 -0.33715390224E+02  0.76951324224E+02  0.41800000000E+01 0.  1.
        -11    1    1    2    0    0  0.67090392852E+01  0.14510725085E+02 -0.53720729693E+02  0.56048988835E+02  0.00000000000E+00 0.  1.
         11    1    1    2    0    0 -0.18126135727E+02 -0.36815904045E+02  0.19652503882E+02  0.45499324125E+02  0.00000000000E+00 0. -1.
</event>
<event>
 7    1  0.2601031E-009  0.8896933E+02  0.7561462E-02  0.1305367E+00
         -2   -1    0    0    0  501 -0.00000000000E+00  0.00000000000E+00  0.57472865718E+02  0.57472865718E+02  0.00000000000E+00 0.  1.
          2   -1    0    0  501    0  0.00000000000E+00 -0.00000000000E+00 -0.27770692964E+03  0.27770692964E+03  0.00000000000E+00 0. -1.
         25    2    1    2    0    0 -0.33972557630E+01 -0.55561127771E+02 -0.96685108876E+02  0.16760980466E+03  0.12508579486E+03 0.  0.
          5    1    3    3  502    0 -0.25774271819E+02 -0.34868676378E+02  0.19277185653E+02  0.47636330325E+02  0.41800000000E+01 0. -1.
         -5    1    3    3    0  502  0.22377016056E+02 -0.20692451393E+02 -0.11596229453E+03  0.11997347434E+03  0.41800000000E+01 0. -1.
        -11    1    1    2    0    0 -0.40913303465E+02  0.15104528335E+02 -0.20193698234E+02  0.48060697301E+02  0.00000000000E+00 0.  1.
         11    1    1    2    0    0  0.44310559228E+02  0.40456599436E+02 -0.10335525681E+03  0.11950929340E+03  0.00000000000E+00 0. -1.
</event>
<event>
 7    1  0.2601031E-009  0.1123294E+03  0.7561462E-02  0.1256316E+00
          2   -1    0    0  501    0  0.00000000000E+00  0.00000000000E+00  0.55904231748E+03  0.55904231748E+03  0.00000000000E+00 0. -1.
         -2   -1    0    0    0  501 -0.00000000000E+00 -0.00000000000E+00 -0.40007037858E+02  0.40007037858E+02  0.00000000000E+00 0.  1.
         25    2    1    2    0    0 -0.64058368910E+02 -0.72943995018E+02  0.34131965886E+03  0.37626356859E+03  0.12510340717E+03 0.  0.
          5    1    3    3  502    0  0.11119761511E+02 -0.44891913457E+02  0.31300473286E+02  0.56001116219E+02  0.41800000000E+01 0.  1.
         -5    1    3    3    0  502 -0.75178130420E+02 -0.28052081561E+02  0.31001918558E+03  0.32026245237E+03  0.41800000000E+01 0.  1.
        -11    1    1    2    0    0  0.35747086381E+02  0.49814014322E+02  0.25777725798E+02  0.66511512950E+02  0.00000000000E+00 0.  1.
         11    1    1    2    0    0  0.28311282529E+02  0.23129980696E+02  0.15193789496E+03  0.15627427380E+03  0.00000000000E+00 0. -1.
</event>
<event>
 7    1  0.2601031E-009  0.3418159E+03  0.7561462E-02  0.1066025E+00
          1   -1    0    0  501    0  0.00000000000E+00  0.00000000000E+00  0.16645075877E+03  0.16645075877E+03  0.00000000000E+00 0. -1.
         -1   -1    0    0    0  501 -0.00000000000E+00 -0.00000000000E+00 -0.78184206001E+03  0.78184206001E+03  0.00000000000E+00 0.  1.
         25    2    1    2    0    0 -0.33533384306E+03 -0.70830327329E+01 -0.21247026548E+03  0.41628040747E+03  0.12508720269E+03 0.  0.
          5    1    3    3  502    0 -0.29527709549E+03  0.25043767227E+02 -0.14105528530E+03  0.32822221026E+03  0.41800000000E+01 0.  1.
         -5    1    3    3    0  502 -0.40056747572E+02 -0.32126799959E+02 -0.71414980185E+02  0.88058197214E+02  0.41800000000E+01 0.  1.
        -11    1    1    2    0    0  0.14190538137E+03  0.10441599810E+02 -0.24037848148E+03  0.27933488616E+03  0.00000000000E+00 0.  1.
         11    1    1    2    0    0  0.19342846168E+03 -0.33585670772E+01 -0.16254255428E+03  0.25267752514E+03  0.00000000000E+00 0. -1.
</event>
<event>
 7    1  0.2601031E-009  0.8400530E+02  0.7561462E-02  0.1318054E+00
          2   -1    0    0  501    0  0.00000000000E+00  0.00000000000E+00  0.69967951951E+02  0.69967951951E+02  0.00000000000E+00 0. -1.
         -2   -1    0    0    0  501 -0.00000000000E+00 -0.00000000000E+00 -0.20084568538E+03  0.20084568538E+03  0.00000000000E+00 0.  1.
         25    2    1    2    0    0 -0.34942975154E+02 -0.18648693036E+02 -0.39408906547E+02  0.13700650739E+03  0.12509570691E+03 0.  0.
          5    1    3    3  502    0 -0.16229543780E+02 -0.52556473725E+02  0.25916555357E+02  0.60948513216E+02  0.41800000000E+01 0. -1.
         -5    1    3    3    0  502 -0.18713431374E+02  0.33907780689E+02 -0.65325461904E+02  0.76057994176E+02  0.41800000000E+01 0. -1.
        -11    1    1    2    0    0  0.35606756737E+02  0.39414581281E+02 -0.98470204482E+02  0.11188266851E+03  0.00000000000E+00 0.  1.
         11    1    1    2    0    0 -0.66378158335E+00 -0.20765888245E+02  0.70013775986E+01  0.21924461428E+02  0.00000000000E+00 0. -1.
</event>
<event>
 7    1  0.2601031E-009  0.1074107E+03  0.7561462E-02  0.1265441E+00
          2   -1    0    0  501    0  0.00000000000E+00  0.00000000000E+00  0.70428217392E+03  0.70428217392E+03  0.00000000000E+00 0. -1.
         -2   -1    0    0    0  501 -0.00000000000E+00 -0.00000000000E+00 -0.22595011378E+02  0.22595011378E+02  0.00000000000E+00 0.  1.
         25    2    1    2    0    0  0.28111891604E+02 -0.54189068315E+02  0.31818964202E+03  0.34730208826E+03  0.12508940262E+03 0.  0.
          5    1    3    3  502    0 -0.27218960463E+02  0.71023985095E+01  0.13289332630E+02  0.31390996082E+02  0.41800000000E+01 0. -1.
         -5    1    3    3    0  502  0.55330852067E+02 -0.61291466824E+02  0.30490030939E+03  0.31591109218E+03  0.41800000000E+01 0. -1.
        -11    1    1    2    0    0 -0.48602680116E+02  0.31487053901E+01  0.11196286538E+03  0.12209757608E+03  0.00000000000E+00 0.  1.
         11    1    1    2    0    0  0.20490788512E+02  0.51040362925E+02  0.25153465514E+03  0.25747752096E+03  0.00000000000E+00 0. -1.
</event>
<event>
 7    1  0.2601031E-009  0.1108698E+03  0.7561462E-02  0.1258968E+00
         -1   -1    0    0    0  501 -0.00000000000E+00  0.00000000000E+00  0.83595404839E+02  0.83595404839E+02  0.00000000000E+00 0.  1.
          1   -1    0    0  501    0  0.00000000000E+00 -0.00000000000E+00 -0.41405511705E+03  0.41405511705E+03  0.00000000000E+00 0. -1.
         25    2    1    2    0    0  0.31478123994E+02  0.66489170306E+02  0.18272980209E+01  0.14511436902E+03  0.12507261499E+03 0.  0.
          5    1    3    3  502    0  0.44439437168E+02  0.88409978631E+02  0.33233026682E+02  0.10446575688E+03  0.41800000000E+01 0. -1.
         -5    1    3    3    0  502 -0.12961313174E+02 -0.21920808325E+02 -0.31405728661E+02  0.40648612148E+02  0.41800000000E+01 0. -1.
        -11    1    1    2    0    0 -0.49659216283E+02 -0.59291266191E+02 -0.32051048857E+03  0.32970966818E+03  0.00000000000E+00 0. -1.
         11    1    1    2    0    0  0.18181092290E+02 -0.71979041153E+01 -0.11776521660E+02  0.22826484681E+02  0.00000000000E+00 0.  1.
</event>
<event>
 7    1  0.2601031E-009  0.3979919E+03  0.7561462E-02  0.1044477E+00
          1   -1    0    0  501    0  0.00000000000E+00  0.00000000000E+00  0.20866462615E+04  0.20866462615E+04  0.00000000000E+00 0. -1.
         -1   -1    0    0    0  501 -0.00000000000E+00 -0.00000000000E+00 -0.12245297320E+03  0.12245297320E+03  0.00000000000E+00 0.  1.
         25    2    1    2    0    0 -0.38699211250E+03  0.48193820224E+02  0.16494764548E+04  0.16995602535E+04  0.12508773168E+03 0.  0.
          5    1    3    3  502    0 -0.42618959143E+02 -0.14535690046E+02  0.83776199728E+02  0.95202867627E+02  0.41800000000E+01 0.  1.
         -5    1    3    3    0  502 -0.34437315336E+03  0.62729510270E+02  0.15657002551E+04  0.16043573858E+04  0.41800000000E+01 0.  1.
        -11    1    1    2    0    0  0.16772339755E+03 -0.67025584807E+02  0.14509934990E+03  0.23168381135E+03  0.00000000000E+00 0. -1.
         11    1    1    2    0    0  0.21926871495E+03  0.18831764583E+02  0.16961748360E+03  0.27785516993E+03  0.00000000000E+00 0.  1.
</event>
<event>
 7    1  0.2601031E-009  0.6001689E+02  0.7561462E-02  0.1397761E+00
         -2   -1    0    0    0  501 -0.00000000000E+00  0.00000000000E+00  0.81706622597E+02  0.81706622597E+02  0.00000000000E+00 0.  1.
          2   -1    0    0  501    0  0.00000000000E+00 -0.00000000000E+00 -0.15998713321E+03  0.15998713321E+03  0.00000000000E+00 0. -1.
         25    2    1    2    0    0 -0.51263089103E+01  0.13435612235E+01 -0.67623263603E+01  0.12538251134E+03  0.12508781273E+03 0.  0.
          5    1    3    3  502    0 -0.26078797737E+02  0.10182764505E+02 -0.60547739851E+02  0.66837815535E+02  0.41800000000E+01 0. -1.
         -5    1    3    3    0  502  0.20952488827E+02 -0.88392032811E+01  0.53785413491E+02  0.58544695807E+02  0.41800000000E+01 0. -1.
        -11    1    1    2    0    0  0.34950753767E+02 -0.11971256219E+02 -0.75836563116E+02  0.84356685980E+02  0.00000000000E+00 0. -1.
         11    1    1    2    0    0 -0.29824444857E+02  0.10627694995E+02  0.43183788635E+01  0.31954558485E+02  0.00000000000E+00 0.  1.
</event>
<event>
 7    1  0.2601031E-009  0.1139206E+03  0.7561462E-02  0.1253477E+00
         -1   -1    0    0    0  501 -0.00000000000E+00  0.00000000000E+00  0.51664030203E+02  0.51664030203E+02  0.00000000000E+00 0.  1.
          1   -1    0    0  501    0  0.00000000000E+00 -0.00000000000E+00 -0.41495334131E+03  0.41495334131E+03  0.00000000000E+00 0. -1.
         25    2    1    2    0    0  0.13596679449E+01 -0.18256430147E+02 -0.33717481266E+03  0.36009604093E+03  0.12508860245E+03 0.  0.
          5    1    3    3  502    0  0.23588312675E+02 -0.67653427883E+02 -0.17905575539E+03  0.19290368254E+03  0.41800000000E+01 0.  1.
         -5    1    3    3    0  502 -0.22228644730E+02  0.49396997736E+02 -0.15811905727E+03  0.16719235839E+03  0.41800000000E+01 0.  1.
        -11    1    1    2    0    0 -0.18073419066E+02 -0.38524229500E+02 -0.19994133321E+02  0.47016274869E+02  0.00000000000E+00 0.  1.
         11    1    1    2    0    0  0.16713751121E+02  0.56780659647E+02 -0.61203651292E+01  0.59505055717E+02  0.00000000000E+00 0. -1.
</event>
<event>
 7    1  0.2922230E-009  0.9774893E+02  0.7561462E-02  0.1285102E+00
         -1   -1    0    0    0  501 -0.00000000000E+00  0.00000000000E+00  0.16824989816E+02  0.16824989816E+02  0.00000000000E+00 0.  1.
          1   -1    0    0  501    0  0.00000000000E+00 -0.00000000000E+00 -0.13679184587E+04  0.13679184587E+04  0.00000000000E+00 0. -1.
         25    2    1    2    0    0  0.72052215097E+02 -0.32951578415E+02 -0.10518384160E+04  0.10622092542E+04  0.12508844080E+03 0.  0.
          5    1    3    3  502    0  0.56242621038E+02 -0.60500187683E+02 -0.98079793654E+03  0.98427921336E+03  0.41800000000E+01 0. -1.
         -5    1    3    3    0  502  0.15809594059E+02  0.27548609268E+02 -0.71040479481E+02  0.77930040818E+02  0.41800000000E+01 0. -1.
        -11    1    1    2    0    0 -0.19135134710E+02  0.15023277512E+01 -0.23760791931E+01  0.19340530535E+02  0.00000000000E+00 0.  1.
         11    1    1    2    0    0 -0.52917080388E+02  0.31449250664E+02 -0.29687897369E+03  0.30319366382E+03  0.00000000000E+00 0. -1.
</event>
<event>
 7    1  0.2601031E-009  0.2031916E+03  0.7561462E-02  0.1147074E+00
          1   -1    0    0  501    0  0.00000000000E+00  0.00000000000E+00  0.23678437289E+04  0.23678437289E+04  0.00000000000E+00 0. -1.
         -1   -1    0    0    0  501 -0.00000000000E+00 -0.00000000000E+00 -0.25455778055E+02  0.25455778055E+02  0.00000000000E+00 0.  1.
         25    2    1    2    0    0  0.18857753802E+03  0.12616103891E+02  0.17563717892E+04  0.17709348618E+04  0.12509104224E+03 0.  0.
          5    1    3    3  502    0  0.16459987063E+03  0.50586932696E+02  0.11428664074E+04  0.11557738761E+04  0.41800000000E+01 0. -1.
         -5    1    3    3    0  502  0.23977667385E+02 -0.37970828806E+02  0.61350538177E+03  0.61516098563E+03  0.41800000000E+01 0. -1.
        -11    1    1    2    0    0 -0.13308494122E+03 -0.10525385512E+02  0.26660449931E+03  0.29816160781E+03  0.00000000000E+00 0.  1.
         11    1    1    2    0    0 -0.55492596803E+02 -0.20907183791E+01  0.31941166236E+03  0.32420303739E+03  0.00000000000E+00 0. -1.
</event>
<event>
 7    1  0.2601031E-009  0.1193346E+03  0.7561462E-02  0.1244199E+00
         -2   -1    0    0    0  501 -0.00000000000E+00  0.00000000000E+00  0.26006038610E+02  0.26006038610E+02  0.00000000000E+00 0.  1.
          2   -1    0    0  501    0  0.00000000000E+00 -0.00000000000E+00 -0.66615579177E+03  0.66615579177E+03  0.00000000000E+00 0. -1.
         25    2    1    2    0    0 -0.72371167664E+02 -0.11020077624E+01 -0.45167817469E+03  0.47423709068E+03  0.12509534104E+03 0.  0.
          5    1    3    3  502    0 -0.87988630556E+02  0.42521621359E+02 -0.29456166030E+03  0.31037740173E+03  0.41800000000E+01 0. -1.
         -5    1    3    3    0  502  0.15617462892E+02 -0.43623629121E+02 -0.15711651439E+03  0.16385968894E+03  0.41800000000E+01 0. -1.
        -11    1    1    2    0    0  0.24627180113E+02  0.29774959870E+02 -0.27053383037E+02  0.47169182411E+02  0.00000000000E+00 0.  1.
         11    1    1    2    0    0  0.47743987551E+02 -0.28672952107E+02 -0.16141819543E+03  0.17075555729E+03  0.00000000000E+00 0. -1.
</event>
<event>
 7    1  0.2601031E-009  0.1700445E+03  0.7561462E-02  0.1177801E+00
         -2   -1    0    0    0  501 -0.00000000000E+00  0.00000000000E+00  0.64169074208E+02  0.64169074208E+02  0.00000000000E+00 0.  1.
          2   -1    0    0  501    0  0.00000000000E+00 -0.00000000000E+00 -0.58812274634E+03  0.58812274634E+03  0.00000000000E+00 0. -1.
         25    2    1    2    0    0 -0.10582685341E+03  0.11792510626E+03 -0.23121620669E+03  0.30694446484E+03  0.12509323190E+03 0.  0.
          5    1    3    3  502    0  0.12345397524E+02  0.33147590774E+02 -0.22863485490E+01  0.35691335137E+02  0.41800000000E+01 0. -1.
         -5    1    3    3    0  502 -0.11817225094E+03  0.84777515490E+02 -0.22892985814E+03  0.27125312970E+03  0.41800000000E+01 0. -1.
        -11    1    1    2    0    0  0.78548836593E+02 -0.78659581011E+02 -0.10973254373E+03  0.15620012986E+03  0.00000000000E+00 0.  1.
         11    1    1    2    0    0  0.27278016822E+02 -0.39265525253E+02 -0.18300492172E+03  0.18914722585E+03  0.00000000000E+00 0. -1.
</event>
<event>
 7    1  0.2601031E-009  0.1781838E+03  0.7561462E-02  0.1169572E+00
         -2   -1    0    0    0  501 -0.00000000000E+00  0.00000000000E+00  0.15475158455E+03  0.15475158455E+03  0.00000000000E+00 0.  1.
          2   -1    0    0  501    0  0.00000000000E+00 -0.00000000000E+00 -0.45596977199E+03  0.45596977199E+03  0.00000000000E+00 0. -1.
         25    2    1    2    0    0 -0.15396246581E+03 -0.49301304323E+02 -0.36120977835E+03  0.41503762057E+03  0.12509461630E+03 0.  0.
          5    1    3    3  502    0 -0.44290153394E+02 -0.70051430744E+02 -0.21908138598E+03  0.23427109664E+03  0.41800000000E+01 0.  1.
         -5    1    3    3    0  502 -0.10967231241E+03  0.20750126421E+02 -0.14212839237E+03  0.18076652393E+03  0.41800000000E+01 0.  1.
        -11    1    1    2    0    0  0.32389793386E+02  0.91790202233E+01  0.58683997727E+02  0.67654746449E+02  0.00000000000E+00 0.  1.
         11    1    1    2    0    0  0.12157267242E+03  0.40122284100E+02  0.13075931792E+01  0.12802898953E+03  0.00000000000E+00 0. -1.
</event>
<event>
 7    1  0.2601031E-009  0.2420718E+03  0.7561462E-02  0.1118420E+00
          1   -1    0    0  501    0  0.00000000000E+00  0.00000000000E+00  0.43682252641E+03  0.43682252641E+03  0.00000000000E+00 0. -1.
         -1   -1    0    0    0  501 -0.00000000000E+00 -0.00000000000E+00 -0.16142124508E+03  0.16142124508E+03  0.00000000000E+00 0.  1.
         25    2    1    2    0    0  0.10256912972E+03 -0.19756273123E+03  0.34585080086E+02  0.25767128764E+03  0.12508759159E+03 0.  0.
          5    1    3    3  502    0 -0.28326908844E+02 -0.43717017716E+02  0.16603281707E+02  0.54833682769E+02  0.41800000000E+01 0. -1.
         -5    1    3    3    0  502  0.13089603856E+03 -0.15384571352E+03  0.17981798379E+02  0.20283760488E+03  0.41800000000E+01 0. -1.
        -11    1    1    2    0    0 -0.94340815923E+02  0.12392250928E+03  0.11154554409E+03  0.19157083875E+03  0.00000000000E+00 0.  1.
         11    1    1    2    0    0 -0.82283137956E+01  0.73640221957E+02  0.12927065715E+03  0.14900164509E+03  0.00000000000E+00 0. -1.
</event>
<event>
 7    1  0.2601031E-009  0.1579834E+03  0.7561462E-02  0.1190992E+00
         -1   -1    0    0    0  501 -0.00000000000E+00  0.00000000000E+00  0.37093855676E+03  0.37093855676E+03  0.00000000000E+00 0.  1.
          1   -1    0    0  501    0  0.00000000000E+00 -0.00000000000E+00 -0.78640594968E+02  0.78640594968E+02  0.00000000000E+00 0. -1.
         25    2    1    2    0    0 -0.48235922712E+02 -0.11249742607E+03  0.22171202648E+03  0.28246948152E+03  0.12510159948E+03 0.  0.
          5    1    3    3  502    0 -0.43733169282E+02  0.11717953870E+02  0.31900117288E+02  0.55542690080E+02  0.41800000000E+01 0.  1.
         -5    1    3    3    0  502 -0.45027534300E+01 -0.12421537994E+03  0.18981190919E+03  0.22692679144E+03  0.41800000000E+01 0.  1.
        -11    1    1    2    0    0 -0.28370856623E+01  0.90463533139E+02  0.21737286716E+02  0.93081735678E+02  0.00000000000E+00 0. -1.
         11    1    1    2    0    0  0.51073008374E+02  0.22033892926E+02  0.48848648602E+02  0.74027934539E+02  0.00000000000E+00 0.  1.
</event>
<event>
 7    1  0.2601031E-009  0.9418501E+02  0.7561462E-02  0.1293022E+00
         -1   -1    0    0    0  501 -0.00000000000E+00  0.00000000000E+00  0.19468093235E+03  0.19468093235E+03  0.00000000000E+00 0.  1.
          1   -1    0    0  501    0  0.00000000000E+00 -0.00000000000E+00 -0.82167049184E+02  0.82167049184E+02  0.00000000000E+00 0. -1.
         25    2    1    2    0    0  0.46326247816E+02 -0.16283942167E+02  0.10825992754E+03  0.17256477010E+03  0.12508836860E+03 0.  0.
          5    1    3    3  502    0 -0.13340236180E+02 -0.51567078704E+02  0.13543378529E+02  0.55118245703E+02  0.41800000000E+01 0. -1.
         -5    1    3    3    0  502  0.59666483996E+02  0.35283136536E+02  0.94716549013E+02  0.11744652440E+03  0.41800000000E+01 0. -1.
        -11    1    1    2    0    0 -0.25379831330E+02  0.30876981609E+02 -0.37848521680E+02  0.55045748473E+02  0.00000000000E+00 0. -1.
         11    1    1    2    0    0 -0.20946416486E+02 -0.14593039441E+02  0.42102477305E+02  0.49237462962E+02  0.00000000000E+00 0.  1.
</event>
<event>
 7    1  0.2601031E-009  0.1084369E+03  0.7561462E-02  0.1263492E+00
         -1   -1    0    0    0  501 -0.00000000000E+00  0.00000000000E+00  0.35317727748E+03  0.35317727748E+03  0.00000000000E+00 0.  1.
          1   -1    0    0  501    0  0.00000000000E+00 -0.00000000000E+00 -0.55512565513E+02  0.55512565513E+02  0.00000000000E+00 0. -1.
         25    2    1    2    0    0 -0.82964116768E+02  0.17221634617E+02  0.19275173274E+03  0.24490980475E+03  0.12509177678E+03 0.  0.
          5    1    3    3  502    0 -0.57521345258E+01 -0.84377816177E+01 -0.16787560576E+02  0.20089245887E+02  0.41800000000E+01 0.  1.
         -5    1    3    3    0  502 -0.77211982242E+02  0.25659416235E+02  0.20953929332E+03  0.22482055886E+03  0.41800000000E+01 0.  1.
        -11    1    1    2    0    0  0.10306705345E+03 -0.14350538088E+02  0.77918105787E+02  0.12999994869E+03  0.00000000000E+00 0. -1.
         11    1    1    2    0    0 -0.20102936677E+02 -0.28710965292E+01  0.26994873434E+02  0.33780089550E+02  0.00000000000E+00 0.  1.
</event>
<event>
 7    1  0.2601031E-009  0.1232111E+03  0.7561462E-02  0.1237892E+00
          2   -1    0    0  501    0  0.00000000000E+00  0.00000000000E+00  0.95154655385E+03  0.95154655385E+03  0.00000000000E+00 0. -1.
         -2   -1    0    0    0  501 -0.00000000000E+00 -0.00000000000E+00 -0.17603116036E+02  0.17603116036E+02  0.00000000000E+00 0.  1.
         25    2    1    2    0    0 -0.35727793069E+02  0.61482493103E+02  0.59612324546E+03  0.61324304455E+03  0.12509011051E+03 0.  0.
          5    1    3    3  502    0 -0.58153448177E+01 -0.38612177036E+02  0.17118622356E+03  0.17563289551E+03  0.41800000000E+01 0. -1.
         -5    1    3    3    0  502 -0.29912448251E+02  0.10009467014E+03  0.42493702191E+03  0.43761014903E+03  0.41800000000E+01 0. -1.
        -11    1    1    2    0    0 -0.12206857498E+02  0.10510298529E+02  0.16144442323E+02  0.22806068558E+02  0.00000000000E+00 0. -1.
         11    1    1    2    0    0  0.47934650566E+02 -0.71992791632E+02  0.32167575003E+03  0.33310055678E+03  0.00000000000E+00 0.  1.
</event>
<event>
 7    1  0.2601031E-009  0.1138946E+03  0.7561462E-02  0.1253523E+00
         -1   -1    0    0    0  501 -0.00000000000E+00  0.00000000000E+00  0.98446004005E+02  0.98446004005E+02  0.00000000000E+00 0.  1.
          1   -1    0    0  501    0  0.00000000000E+00 -0.00000000000E+00 -0.27772842552E+03  0.27772842552E+03  0.00000000000E+00 0. -1.
         25    2    1    2    0    0 -0.55415384649E+02 -0.45378361625E+02  0.18935490333E+02  0.14537884295E+03  0.12508554923E+03 0.  0.
          5    1    3    3  502    0  0.12490521808E+02 -0.70259710137E+02  0.13376171723E+02  0.72724372624E+02  0.41800000000E+01 0. -1.
         -5    1    3    3    0  502 -0.67905906458E+02  0.24881348512E+02  0.55593186097E+01  0.72654470330E+02  0.41800000000E+01 0. -1.
        -11    1    1    2    0    0  0.35535500850E+02  0.13563108335E+01 -0.17239304646E+03  0.17602265157E+03  0.00000000000E+00 0. -1.
         11    1    1    2    0    0  0.19879883800E+02  0.44022050792E+02 -0.25824865389E+02  0.54772934996E+02  0.00000000000E+00 0.  1.
</event>
<event>
 7    1  0.2601031E-009  0.2879160E+03  0.7561462E-02  0.1091442E+00
          2   -1    0    0  501    0  0.00000000000E+00  0.00000000000E+00  0.73076586046E+03  0.73076586046E+03  0.00000000000E+00 0. -1.
         -2   -1    0    0    0  501 -0.00000000000E+00 -0.00000000000E+00 -0.13497730377E+03  0.13497730377E+03  0.00000000000E+00 0.  1.
         25    2    1    2    0    0  0.13366597597E+03 -0.24292978586E+03  0.16783329956E+03  0.34741480734E+03  0.12509019916E+03 0.  0.
          5    1    3    3  502    0  0.97535075637E+02 -0.74155415864E+02  0.11175174384E+03  0.16588562726E+03  0.41800000000E+01 0.  1.
         -5    1    3    3    0  502  0.36130900338E+02 -0.16877437000E+03  0.56081555721E+02  0.18152918008E+03  0.41800000000E+01 0.  1.
        -11    1    1    2    0    0 -0.42062367028E+02  0.12085562404E+03  0.12390603696E+03  0.17812363846E+03  0.00000000000E+00 0.  1.
         11    1    1    2    0    0 -0.91603608947E+02  0.12207416182E+03  0.30404922017E+03  0.34020471843E+03  0.00000000000E+00 0. -1.
</event>
<event>
 7    1  0.2601031E-009  0.1123367E+03  0.7561462E-02  0.1256303E+00
          1   -1    0    0  501    0  0.00000000000E+00  0.00000000000E+00  0.27504813007E+03  0.27504813007E+03  0.00000000000E+00 0. -1.
         -1   -1    0    0    0  501 -0.00000000000E+00 -0.00000000000E+00 -0.61302862054E+02  0.61302862054E+02  0.00000000000E+00 0.  1.
         25    2    1    2    0    0 -0.18619853272E+01  0.56399761279E+02  0.66418421119E+02  0.15245123434E+03  0.12508226144E+03 0.  0.
          5    1    3    3  502    0 -0.36014923281E+02 -0.12659632272E+02  0.64743937073E+02  0.75276761195E+02  0.41800000000E+01 0.  1.
         -5    1    3    3    0  502  0.34152937954E+02  0.69059393551E+02  0.16744840460E+01  0.77174473146E+02  0.41800000000E+01 0.  1.
        -11    1    1    2    0    0 -0.45227871982E+02 -0.35950867410E+02  0.65904117593E+02  0.87643470876E+02  0.00000000000E+00 0.  1.
         11    1    1    2    0    0  0.47089857309E+02 -0.20448893869E+02  0.81422729305E+02  0.96256286908E+02  0.00000000000E+00 0. -1.
</event>
<event>
 7    1  0.2601031E-009  0.1014499E+03  0.7561462E-02  0.1277276E+00
          2   -1    0    0  501    0  0.00000000000E+00  0.00000000000E+00  0.28635397069E+03  0.28635397069E+03  0.00000000000E+00 0. -1.
         -2   -1    0    0    0  501 -0.00000000000E+00 -0.00000000000E+00 -0.59502263910E+02  0.59502263910E+02  0.00000000000E+00 0.  1.
         25    2    1    2    0    0 -0.72494311181E+01  0.62760102229E+02  0.16915297404E+03  0.21966478736E+03  0.12509398665E+03 0.  0.
          5    1    3    3  502    0 -0.57749973834E+02 -0.14566207928E+01  0.78589433762E+02  0.97626598430E+02  0.41800000000E+01 0. -1.
         -5    1    3    3    0  502  0.50500542716E+02  0.64216723022E+02  0.90563540279E+02  0.12203818893E+03  0.41800000000E+01 0. -1.
        -11    1    1    2    0    0  0.32565622593E+01 -0.29715594096E+02 -0.23765788462E+02  0.38189454453E+02  0.00000000000E+00 0.  1.
         11    1    1    2    0    0  0.39928688588E+01 -0.33044508133E+02  0.81464521206E+02  0.88001992788E+02  0.00000000000E+00 0. -1.
</event>
<event>
 7    1  0.2601031E-009  0.8685957E+02  0.7561462E-02  0.1310640E+00
          1   -1    0    0  501    0  0.00000000000E+00  0.00000000000E+00  0.11325622241E+03  0.11325622241E+03  0.00000000000E+00 0. -1.
         -1   -1    0    0    0  501 -0.00000000000E+00 -0.00000000000E+00 -0.16173613055E+03  0.16173613055E+03  0.00000000000E+00 0.  1.
         25    2    1    2    0    0 -0.31613849134E+02  0.30412899503E+02 -0.98382501208E+02  0.16507818229E+03  0.12508920741E+03 0.  0.
          5    1    3    3  502    0 -0.73577344679E+02  0.24339398636E+02 -0.27429524164E+02  0.82315752878E+02  0.41800000000E+01 0.  1.
         -5    1    3    3    0  502  0.41963495545E+02  0.60735008664E+01 -0.70952977044E+02  0.82762429414E+02  0.41800000000E+01 0.  1.
        -11    1    1    2    0    0  0.33067459960E+02 -0.12223703881E+02 -0.18013220994E+02  0.39589796355E+02  0.00000000000E+00 0.  1.
         11    1    1    2    0    0 -0.14536108269E+01 -0.18189195622E+02  0.67915814064E+02  0.70324374308E+02  0.00000000000E+00 0. -1.
</event>
<event>
 7    1  0.2601031E-009  0.8240315E+02  0.7561462E-02  0.1322367E+00
         -2   -1    0    0    0  501 -0.00000000000E+00  0.00000000000E+00  0.12727205301E+03  0.12727205301E+03  0.00000000000E+00 0.  1.
          2   -1    0    0  501    0  0.00000000000E+00 -0.00000000000E+00 -0.10244638880E+03  0.10244638880E+03  0.00000000000E+00 0. -1.
         25    2    1    2    0    0 -0.99399945408E+01 -0.27444570853E+02 -0.54560715853E+01  0.12856737623E+03  0.12509114098E+03 0.  0.
          5    1    3    3  502    0  0.13373718450E+02  0.21334954426E+02 -0.51468854606E+02  0.57450430982E+02  0.41800000000E+01 0. -1.
         -5    1    3    3    0  502 -0.23313712991E+02 -0.48779525279E+02  0.46012783021E+02  0.71116945246E+02  0.41800000000E+01 0. -1.
        -11    1    1    2    0    0 -0.30239960711E+02 -0.82128425737E+01  0.35294226985E+02  0.47197335363E+02  0.00000000000E+00 0.  1.
         11    1    1    2    0    0  0.40179955252E+02  0.35657413427E+02 -0.50124911933E+01  0.53953730216E+02  0.00000000000E+00 0. -1.
</event>
<event>
 7    1  0.2601031E-009  0.1143535E+03  0.7561462E-02  0.1252714E+00
          3   -1    0    0  501    0  0.00000000000E+00  0.00000000000E+00  0.93427175731E+02  0.93427175731E+02  0.00000000000E+00 0. -1.
         -3   -1    0    0    0  501 -0.00000000000E+00 -0.00000000000E+00 -0.24416011290E+03  0.24416011290E+03  0.00000000000E+00 0.  1.
         25    2    1    2    0    0  0.72985367098E+02 -0.56080383800E+02 -0.26822961694E+02  0.15761122083E+03  0.12509976978E+03 0.  0.
          5    1    3    3  502    0 -0.19909765236E+02 -0.73733289441E-01  0.29095346316E+02  0.35502334650E+02  0.41800000000E+01 0.  1.
         -5    1    3    3    0  502  0.92895132334E+02 -0.56006650510E+02 -0.55918308010E+02  0.12210888618E+03  0.41800000000E+01 0.  1.
        -11    1    1    2    0    0 -0.48296142597E+02  0.57486015425E+02 -0.13373263341E+03  0.15336745612E+03  0.00000000000E+00 0.  1.
         11    1    1    2    0    0 -0.24689224500E+02 -0.14056316250E+01  0.98226579331E+01  0.26608611680E+02  0.00000000000E+00 0. -1.
</event>
<event>
 7    1  0.2601031E-009  0.4452657E+03  0.7561462E-02  0.1029143E+00
          2   -1    0    0  501    0  0.00000000000E+00  0.00000000000E+00  0.24097051347E+04  0.24097051347E+04  0.00000000000E+00 0. -1.
         -2   -1    0    0    0  501 -0.00000000000E+00 -0.00000000000E+00 -0.96707846371E+02  0.96707846371E+02  0.00000000000E+00 0.  1.
         25    2    1    2    0    0 -0.27901361978E+03  0.34014720694E+03  0.15976279020E+04  0.16618097477E+04  0.12509197362E+03 0.  0.
          5    1    3    3  502    0 -0.81522420313E+02  0.73772417357E+02  0.61407477684E+03  0.62385381183E+03  0.41800000000E+01 0.  1.
         -5    1    3    3    0  502 -0.19749119946E+03  0.26637478958E+03  0.98355312520E+03  0.10379559359E+04  0.41800000000E+01 0.  1.
        -11    1    1    2    0    0  0.15357113745E+03 -0.11765166621E+03  0.31804137708E+03  0.37225841341E+03  0.00000000000E+00 0.  1.
         11    1    1    2    0    0  0.12544248233E+03 -0.22249554073E+03  0.39732800923E+03  0.47234481996E+03  0.00000000000E+00 0. -1.
</event>
<event>
 7    1  0.2601031E-009  0.1368753E+03  0.7561462E-02  0.1217596E+00
          3   -1    0    0  501    0  0.00000000000E+00  0.00000000000E+00  0.30306123119E+02  0.30306123119E+02  0.00000000000E+00 0. -1.
         -3   -1    0    0    0  501 -0.00000000000E+00 -0.00000000000E+00 -0.16957358769E+04  0.16957358769E+04  0.00000000000E+00 0.  1.
         25    2    1    2    0    0 -0.99932767674E+02 -0.81132379110E+02 -0.14379955696E+04  0.14491542572E+04  0.12509109371E+03 0.  0.
          5    1    3    3  502    0 -0.31047648418E+02 -0.12621098367E+02 -0.70158729171E+02  0.77865064536E+02  0.41800000000E+01 0. -1.
         -5    1    3    3    0  502 -0.68885119256E+02 -0.68511280743E+02 -0.13678368405E+04  0.13712891926E+04  0.41800000000E+01 0. -1.
        -11    1    1    2    0    0  0.25078417273E+02  0.59879227517E+02 -0.46273141939E+02  0.79722346715E+02  0.00000000000E+00 0. -1.
         11    1    1    2    0    0  0.74854350401E+02  0.21253151593E+02 -0.18116104218E+03  0.19716539612E+03  0.00000000000E+00 0.  1.
</event>
<event>
 7    1  0.2601031E-009  0.2369748E+03  0.7561462E-02  0.1121825E+00
          1   -1    0    0  501    0  0.00000000000E+00  0.00000000000E+00  0.16317254170E+03  0.16317254170E+03  0.00000000000E+00 0. -1.
         -1   -1    0    0    0  501 -0.00000000000E+00 -0.00000000000E+00 -0.36714553996E+03  0.36714553996E+03  0.00000000000E+00 0.  1.
         25    2    1    2    0    0  0.17872209720E+03 -0.12685766851E+03 -0.10814358584E+03  0.27454927234E+03  0.12509121350E+03 0.  0.
          5    1    3    3  502    0  0.99363764132E+02  0.28819107767E+01 -0.52934238579E+02  0.11269857606E+03  0.41800000000E+01 0. -1.
         -5    1    3    3    0  502  0.79358333070E+02 -0.12973957928E+03 -0.55209347257E+02  0.16185069628E+03  0.41800000000E+01 0. -1.
        -11    1    1    2    0    0 -0.65477718264E+02  0.69080830375E+02  0.22390217924E+01  0.95207698916E+02  0.00000000000E+00 0. -1.
         11    1    1    2    0    0 -0.11324437894E+03  0.57776838132E+02 -0.98068434218E+02  0.16056111041E+03  0.00000000000E+00 0.  1.
</event>
<event>
 7    1  0.2638192E-009  0.1109125E+03  0.7561462E-02  0.1258889E+00
          2   -1    0    0  501    0  0.00000000000E+00  0.00000000000E+00  0.83487232211E+03  0.83487232211E+03  0.00000000000E+00 0. -1.
         -2   -1    0    0    0  501 -0.00000000000E+00 -0.00000000000E+00 -0.17428075970E+02  0.17428075970E+02  0.00000000000E+00 0.  1.
         25    2    1    2    0    0  0.23052365418E+02 -0.32115851366E+02  0.58413898655E+03  0.59868911081E+03  0.12508979311E+03 0.  0.
          5    1    3    3  502    0  0.61431028176E+02 -0.51478181650E+02  0.46690755976E+03  0.47375512258E+03  0.41800000000E+01 0. -1.
         -5    1    3    3    0  502 -0.38378662758E+02  0.19362330284E+02  0.11723142679E+03  0.12493398823E+03  0.41800000000E+01 0. -1.
        -11    1    1    2    0    0 -0.51200539258E+02 -0.53916472417E+01  0.14039542717E+03  0.14953742358E+03  0.00000000000E+00 0. -1.
         11    1    1    2    0    0  0.28148173841E+02  0.37507498608E+02  0.92909832418E+02  0.10407386369E+03  0.00000000000E+00 0.  1.
</event>
<event>
 7    1  0.2601031E-009  0.1603254E+03  0.7561462E-02  0.1188330E+00
         -2   -1    0    0    0  501 -0.00000000000E+00  0.00000000000E+00  0.16567676743E+03  0.16567676743E+03  0.00000000000E+00 0. -1.
          2   -1    0    0  501    0  0.00000000000E+00 -0.00000000000E+00 -0.17987896873E+03  0.17987896873E+03  0.00000000000E+00 0.  1.
         25    2    1    2    0    0 -0.27751143800E+01  0.12789870704E+03  0.35471960355E+02  0.18240691897E+03  0.12509293982E+03 0.  0.
          5    1    3    3  502    0  0.48153374445E+02  0.10678184354E+03  0.46372526494E+02  0.12605154974E+03  0.41800000000E+01 0.  1.
         -5    1    3    3    0  502 -0.50928488825E+02  0.21116863504E+02 -0.10900566138E+02  0.56355369224E+02  0.41800000000E+01 0.  1.
        -11    1    1    2    0    0 -0.35014852520E+02 -0.44800347379E+02  0.44295021449E+01  0.57032723164E+02  0.00000000000E+00 0.  1.
         11    1    1    2    0    0  0.37789966900E+02 -0.83098359660E+02 -0.54103663793E+02  0.10611609403E+03  0.00000000000E+00 0. -1.
</event>
<event>
 7    1  0.2601031E-009  0.1407132E+03  0.7561462E-02  0.1212373E+00
         -2   -1    0    0    0  501 -0.00000000000E+00  0.00000000000E+00  0.66470567750E+02  0.66470567750E+02  0.00000000000E+00 0.  1.
          2   -1    0    0  501    0  0.00000000000E+00 -0.00000000000E+00 -0.63880638580E+03  0.63880638580E+03  0.00000000000E+00 0. -1.
         25    2    1    2    0    0  0.95622207374E+02  0.55116640520E+02 -0.52798289850E+03  0.55371039343E+03  0.12509119904E+03 0.  0.
          5    1    3    3  502    0  0.50305609586E+02  0.77484307548E+02 -0.45825842929E+03  0.46749623815E+03  0.41800000000E+01 0.  1.
         -5    1    3    3    0  502  0.45316597788E+02 -0.22367667028E+02 -0.69724469214E+02  0.86214155279E+02  0.41800000000E+01 0.  1.
        -11    1    1    2    0    0 -0.34140189741E+02 -0.67391262704E+02 -0.13812443884E+01  0.75558207234E+02  0.00000000000E+00 0.  1.
         11    1    1    2    0    0 -0.61482017634E+02  0.12274622184E+02 -0.42971675158E+02  0.76008352882E+02  0.00000000000E+00 0. -1.
</event>
<event>
 7    1  0.2601031E-009  0.1017614E+03  0.7561462E-02  0.1276635E+00
         -1   -1    0    0    0  501 -0.00000000000E+00  0.00000000000E+00  0.42200191615E+03  0.42200191615E+03  0.00000000000E+00 0.  1.
          1   -1    0    0  501    0  0.00000000000E+00 -0.00000000000E+00 -0.38310848200E+02  0.38310848200E+02  0.00000000000E+00 0. -1.
         25    2    1    2    0    0  0.12575239764E+02  0.38124633007E+02  0.11743178107E+03  0.17621079493E+03  0.12509355198E+03 0.  0.
          5    1    3    3  502    0  0.45836922733E+02  0.51850521707E+02  0.12136563623E+03  0.13977335277E+03  0.41800000000E+01 0.  1.
         -5    1    3    3    0  502 -0.33261682970E+02 -0.13725888699E+02 -0.39338551630E+01  0.36437442158E+02  0.41800000000E+01 0.  1.
        -11    1    1    2    0    0 -0.16541433476E+02  0.27570061011E+02  0.10853623815E+03  0.11319824326E+03  0.00000000000E+00 0.  1.
         11    1    1    2    0    0  0.39661937119E+01 -0.65694694018E+02  0.15772304873E+03  0.17090372616E+03  0.00000000000E+00 0. -1.
</event>
<event>
 7    1  0.2601031E-009  0.3310476E+03  0.7561462E-02  0.1070674E+00
         -2   -1    0    0    0  501 -0.00000000000E+00  0.00000000000E+00  0.80989810416E+03  0.80989810416E+03  0.00000000000E+00 0. -1.
          2   -1    0    0  501    0  0.00000000000E+00 -0.00000000000E+00 -0.54216030921E+03  0.54216030921E+03  0.00000000000E+00 0.  1.
         25    2    1    2    0    0 -0.20455098060E+03 -0.24384796117E+03  0.71672355707E+03  0.79413094194E+03  0.12509342049E+03 0.  0.
          5    1    3    3  502    0 -0.17732751546E+03 -0.14478065256E+03  0.57604144169E+03  0.61987716529E+03  0.41800000000E+01 0. -1.
         -5    1    3    3    0  502 -0.27223465142E+02 -0.99067308616E+02  0.14068211538E+03  0.17425377665E+03  0.41800000000E+01 0. -1.
        -11    1    1    2    0    0  0.79339906634E+02  0.16294293269E+03 -0.26662073571E+03  0.32238461006E+03  0.00000000000E+00 0. -1.
         11    1    1    2    0    0  0.12521107396E+03  0.80905028487E+02 -0.18236502642E+03  0.23554286136E+03  0.00000000000E+00 0.  1.
</event>
<event>
 7    1  0.2601031E-009  0.9284317E+02  0.7561462E-02  0.1296109E+00
         -2   -1    0    0    0  501 -0.00000000000E+00  0.00000000000E+00  0.13073916946E+02  0.13073916946E+02  0.00000000000E+00 0.  1.
          2   -1    0    0  501    0  0.00000000000E+00 -0.00000000000E+00 -0.12936473398E+04  0.12936473398E+04  0.00000000000E+00 0. -1.
         25    2    1    2    0    0 -0.11308972706E+01  0.13552613022E+02 -0.10968348028E+04  0.11040288416E+04  0.12509255041E+03 0.  0.
          5    1    3    3  502    0  0.53780225486E+02 -0.17454676659E+02 -0.35411204793E+03  0.35862207584E+03  0.41800000000E+01 0.  1.
         -5    1    3    3    0  502 -0.54911122757E+02  0.31007289681E+02 -0.74272275492E+03  0.74540676579E+03  0.41800000000E+01 0.  1.
        -11    1    1    2    0    0 -0.16944677307E+02  0.20887056331E+02 -0.17791080999E+02  0.32247694093E+02  0.00000000000E+00 0.  1.
         11    1    1    2    0    0  0.18075574577E+02 -0.34439669353E+02 -0.16594753902E+03  0.17044472103E+03  0.00000000000E+00 0. -1.
</event>
<event>
 7    1  0.2601031E-009  0.1848969E+03  0.7561462E-02  0.1163146E+00
          1   -1    0    0  501    0  0.00000000000E+00  0.00000000000E+00  0.43763517833E+03  0.43763517833E+03  0.00000000000E+00 0. -1.
         -1   -1    0    0    0  501 -0.00000000000E+00 -0.00000000000E+00 -0.95446085100E+02  0.95446085100E+02  0.00000000000E+00 0.  1.
         25    2    1    2    0    0 -0.16641851143E+03 -0.41993501369E+02  0.15364359666E+03  0.26213166576E+03  0.12509228712E+03 0.  0.
          5    1    3    3  502    0 -0.86081544250E+02 -0.43681220842E+02  0.15384322175E+03  0.18166807808E+03  0.41800000000E+01 0.  1.
         -5    1    3    3    0  502 -0.80336967176E+02  0.16877194730E+01 -0.19962508969E+00  0.80463587679E+02  0.41800000000E+01 0.  1.
        -11    1    1    2    0    0  0.69191773034E+02 -0.26163351298E+02  0.91066518179E+02  0.11732490418E+03  0.00000000000E+00 0.  1.
         11    1    1    2    0    0  0.97226738391E+02  0.68156852667E+02  0.97478978395E+02  0.15362469350E+03  0.00000000000E+00 0. -1.
</event>
<event>
 7    1  0.2601031E-009  0.5504838E+02  0.7561462E-02  0.1419870E+00
         -1   -1    0    0    0  501 -0.00000000000E+00  0.00000000000E+00  0.41401843849E+02  0.41401843849E+02  0.00000000000E+00 0.  1.
          1   -1    0    0  501    0  0.00000000000E+00 -0.00000000000E+00 -0.33875332174E+03  0.33875332174E+03  0.00000000000E+00 0. -1.
         25    2    1    2    0    0  0.30071400497E+01 -0.29220954170E+01 -0.24076610106E+03  0.27135473483E+03  0.12508994828E+03 0.  0.
          5    1    3    3  502    0  0.13871572868E+02 -0.46822276435E+01  0.11333341460E+02  0.18980537880E+02  0.41800000000E+01 0.  1.
         -5    1    3    3    0  502 -0.10864432818E+02  0.17601322266E+01 -0.25209944252E+03  0.25237419695E+03  0.41800000000E+01 0.  1.
        -11    1    1    2    0    0 -0.36673471286E+02  0.23579187353E+02 -0.50818474723E+01  0.43894723442E+02  0.00000000000E+00 0.  1.
         11    1    1    2    0    0  0.33666331236E+02 -0.20657091936E+02 -0.51503529357E+02  0.64905707317E+02  0.00000000000E+00 0. -1.
</event>
<event>
 7    1  0.2601031E-009  0.1497343E+03  0.7561462E-02  0.1200800E+00
          2   -1    0    0  501    0  0.00000000000E+00  0.00000000000E+00  0.19351822537E+04  0.19351822537E+04  0.00000000000E+00 0. -1.
         -2   -1    0    0    0  501 -0.00000000000E+00 -0.00000000000E+00 -0.20299791094E+02  0.20299791094E+02  0.00000000000E+00 0.  1.
         25    2    1    2    0    0  0.11132674299E+03 -0.22626423203E+02  0.15931190212E+04  0.16020555048E+04  0.12509206974E+03 0.  0.
          5    1    3    3  502    0  0.12157064312E+03 -0.47161760927E+02  0.10207143896E+04  0.10290184597E+04  0.41800000000E+01 0.  1.
         -5    1    3    3    0  502 -0.10243900133E+02  0.24535337724E+02  0.57240463167E+03  0.57303704509E+03  0.41800000000E+01 0.  1.
        -11    1    1    2    0    0 -0.10643153827E+03 -0.12011168353E+02  0.27425971989E+03  0.29443222387E+03  0.00000000000E+00 0. -1.
         11    1    1    2    0    0 -0.48952047171E+01  0.34637591556E+02  0.47503721440E+02  0.58994316071E+02  0.00000000000E+00 0.  1.
</event>
<event>
 7    1  0.2601031E-009  0.1277827E+03  0.7561462E-02  0.1230783E+00
          1   -1    0    0  501    0  0.00000000000E+00  0.00000000000E+00  0.28410392451E+03  0.28410392451E+03  0.00000000000E+00 0. -1.
         -1   -1    0    0    0  501 -0.00000000000E+00 -0.00000000000E+00 -0.10508941693E+03  0.10508941693E+03  0.00000000000E+00 0.  1.
         25    2    1    2    0    0  0.13961513168E+02  0.10328400323E+03  0.19092500294E+03  0.25092385457E+03  0.12509162591E+03 0.  0.
          5    1    3    3  502    0  0.41247236102E+02  0.20594895776E+01  0.11499240802E+02  0.43072972064E+02  0.41800000000E+01 0.  1.
         -5    1    3    3    0  502 -0.27285722934E+02  0.10122451365E+03  0.17942576214E+03  0.20785088251E+03  0.41800000000E+01 0.  1.
        -11    1    1    2    0    0  0.49057121020E+01 -0.74850116633E+02  0.32930479239E+02  0.81920830283E+02  0.00000000000E+00 0. -1.
         11    1    1    2    0    0 -0.18867225270E+02 -0.28433886597E+02 -0.44840974601E+02  0.56348656591E+02  0.00000000000E+00 0.  1.
</event>
<event>
 7    1  0.2601031E-009  0.1461830E+03  0.7561462E-02  0.1205243E+00
         -2   -1    0    0    0  501 -0.00000000000E+00  0.00000000000E+00  0.11075819527E+03  0.11075819527E+03  0.00000000000E+00 0.  1.
          2   -1    0    0  501    0  0.00000000000E+00 -0.00000000000E+00 -0.24806850799E+03  0.24806850799E+03  0.00000000000E+00 0. -1.
         25    2    1    2    0    0 -0.10824201121E+03 -0.56145200166E+02 -0.44191346018E+02  0.18019125451E+03  0.12508955451E+03 0.  0.
          5    1    3    3  502    0 -0.10631225404E+03  0.70506690467E+01 -0.73150333850E+01  0.10687838605E+03  0.41800000000E+01 0.  1.
         -5    1    3    3    0  502 -0.19297571788E+01 -0.63195869213E+02 -0.36876312633E+02  0.73312868459E+02  0.41800000000E+01 0.  1.
        -11    1    1    2    0    0  0.59986956184E+02  0.25300516385E+02 -0.10167143455E+03  0.12072958065E+03  0.00000000000E+00 0. -1.
         11    1    1    2    0    0  0.48255055031E+02  0.30844683781E+02  0.85524678454E+01  0.57905868095E+02  0.00000000000E+00 0.  1.
</event>
<event>
 7    1  0.2601031E-009  0.1826630E+03  0.7561462E-02  0.1165250E+00
         -2   -1    0    0    0  501 -0.00000000000E+00  0.00000000000E+00  0.35087514649E+02  0.35087514649E+02  0.00000000000E+00 0.  1.
          2   -1    0    0  501    0  0.00000000000E+00 -0.00000000000E+00 -0.10395180796E+04  0.10395180796E+04  0.00000000000E+00 0. -1.
         25    2    1    2    0    0 -0.23513150164E+02  0.15064116922E+03 -0.65015327871E+03  0.67940492923E+03  0.12508453921E+03 0.  0.
          5    1    3    3  502    0  0.13307965783E+02 -0.16798462612E+02 -0.39555864891E+02  0.45182177312E+02  0.41800000000E+01 0. -1.
         -5    1    3    3    0  502 -0.36821115947E+02  0.16743963184E+03 -0.61059741382E+03  0.63422275192E+03  0.41800000000E+01 0. -1.
        -11    1    1    2    0    0  0.52245958880E+02 -0.77985781187E+02 -0.22982654441E+03  0.24825725126E+03  0.00000000000E+00 0. -1.
         11    1    1    2    0    0 -0.28732808717E+02 -0.72655388037E+02 -0.12445074188E+03  0.14694341381E+03  0.00000000000E+00 0.  1.
</event>
<event>
 7    1  0.2601031E-009  0.1048808E+03  0.7561462E-02  0.1270355E+00
          4   -1    0    0  501    0  0.00000000000E+00  0.00000000000E+00  0.40359975500E+03  0.40359975500E+03  0.00000000000E+00 0. -1.
         -4   -1    0    0    0  501 -0.00000000000E+00 -0.00000000000E+00 -0.28185887642E+02  0.28185887642E+02  0.00000000000E+00 0.  1.
         25    2    1    2    0    0 -0.18899399239E+01  0.80091453452E+00  0.20096818957E+03  0.23672634163E+03  0.12508770629E+03 0.  0.
          5    1    3    3  502    0  0.16227068975E+02 -0.58964233839E+02  0.83001582260E+02  0.10318349528E+03  0.41800000000E+01 0. -1.
         -5    1    3    3    0  502 -0.18117008899E+02  0.59765148374E+02  0.11796660731E+03  0.13354284636E+03  0.41800000000E+01 0. -1.
        -11    1    1    2    0    0  0.43876881891E+02 -0.85351220918E+00  0.10649864747E+03  0.11518624554E+03  0.00000000000E+00 0. -1.
         11    1    1    2    0    0 -0.41986941967E+02  0.52597674666E-01  0.67947030313E+02  0.79873055473E+02  0.00000000000E+00 0.  1.
</event>
<event>
 7    1  0.2601031E-009  0.9787985E+02  0.7561462E-02  0.1284819E+00
          2   -1    0    0  501    0  0.00000000000E+00  0.00000000000E+00  0.78588572426E+02  0.78588572426E+02  0.00000000000E+00 0. -1.
         -2   -1    0    0    0  501 -0.00000000000E+00 -0.00000000000E+00 -0.17215608219E+03  0.17215608219E+03  0.00000000000E+00 0.  1.
         25    2    1    2    0    0  0.13960269178E+01  0.32061678745E+02 -0.11408142385E+03  0.17231716599E+03  0.12509490115E+03 0.  0.
          5    1    3    3  502    0  0.25541921426E+01 -0.47686456352E+02 -0.31079552365E+02  0.57130840989E+02  0.41800000000E+01 0.  1.
         -5    1    3    3    0  502 -0.11581652248E+01  0.79748135098E+02 -0.83001871485E+02  0.11518632501E+03  0.41800000000E+01 0.  1.
        -11    1    1    2    0    0 -0.66967124785E+01  0.17175377493E+02  0.22226182012E+02  0.28876334893E+02  0.00000000000E+00 0. -1.
         11    1    1    2    0    0  0.53006855607E+01 -0.49237056238E+02 -0.17122679280E+01  0.49551153729E+02  0.00000000000E+00 0.  1.
</event>
<event>
 7    1  0.2601031E-009  0.9736085E+02  0.7561462E-02  0.1285946E+00
          4   -1    0    0  501    0  0.00000000000E+00  0.00000000000E+00  0.40136252738E+02  0.40136252738E+02  0.00000000000E+00 0. -1.
         -4   -1    0    0    0  501 -0.00000000000E+00 -0.00000000000E+00 -0.35061237592E+03  0.35061237592E+03  0.00000000000E+00 0.  1.
         25    2    1    2    0    0 -0.22199533981E+02 -0.17230827840E+02 -0.24342992644E+03  0.27512620103E+03  0.12508627690E+03 0.  0.
          5    1    3    3  502    0 -0.70517100679E+02 -0.89130937032E+01 -0.18786771866E+03  0.20090758284E+03  0.41800000000E+01 0.  1.
         -5    1    3    3    0  502  0.48317566698E+02 -0.83177341365E+01 -0.55562207787E+02  0.74218618196E+02  0.41800000000E+01 0.  1.
        -11    1    1    2    0    0  0.33173102881E+02 -0.17770738320E+02 -0.69313601106E+02  0.78870965465E+02  0.00000000000E+00 0.  1.
         11    1    1    2    0    0 -0.10973568899E+02  0.35001566159E+02  0.22674043725E+01  0.36751462156E+02  0.00000000000E+00 0. -1.
</event>
<event>
 7    1  0.2601031E-009  0.9872764E+02  0.7561462E-02  0.1282995E+00
          1   -1    0    0  501    0  0.00000000000E+00  0.00000000000E+00  0.56035195714E+02  0.56035195714E+02  0.00000000000E+00 0. -1.
         -1   -1    0    0    0  501 -0.00000000000E+00 -0.00000000000E+00 -0.21893372739E+03  0.21893372739E+03  0.00000000000E+00 0.  1.
         25    2    1    2    0    0  0.36526558909E+01  0.10554794076E+02 -0.65857745530E+02  0.14180782330E+03  0.12508984982E+03 0.  0.
          5    1    3    3  502    0  0.55653290743E+02  0.37129846042E+02 -0.34376424919E+02  0.75333427028E+02  0.41800000000E+01 0. -1.
         -5    1    3    3    0  502 -0.52000634852E+02 -0.26575051965E+02 -0.31481320610E+02  0.66474396269E+02  0.41800000000E+01 0. -1.
        -11    1    1    2    0    0  0.33679023208E+02 -0.67659487280E+01 -0.88138270626E+02  0.94596032767E+02  0.00000000000E+00 0.  1.
         11    1    1    2    0    0 -0.37331679099E+02 -0.37888453485E+01 -0.89025155253E+01  0.38565067044E+02  0.00000000000E+00 0. -1.
</event>
<event>
 7    1  0.2601031E-009  0.1003815E+03  0.7561462E-02  0.1279496E+00
          3   -1    0    0  501    0  0.00000000000E+00  0.00000000000E+00  0.12677907251E+03  0.12677907251E+03  0.00000000000E+00 0. -1.
         -3   -1    0    0    0  501 -0.00000000000E+00 -0.00000000000E+00 -0.16220158358E+03  0.16220158358E+03  0.00000000000E+00 0.  1.
         25    2    1    2    0    0  0.75275071403E+02  0.60565028721E+02 -0.17906569557E+02  0.15906827844E+03  0.12509041888E+03 0.  0.
          5    1    3    3  502    0  0.31872288403E+02  0.49178085642E+02  0.50283525745E+02  0.77331961289E+02  0.41800000000E+01 0.  1.
         -5    1    3    3    0  502  0.43402783000E+02  0.11386943079E+02 -0.68190095302E+02  0.81736317155E+02  0.41800000000E+01 0.  1.
        -11    1    1    2    0    0 -0.22169822961E+02 -0.13305204292E+02 -0.46449364197E+02  0.53160821530E+02  0.00000000000E+00 0.  1.
         11    1    1    2    0    0 -0.53105248442E+02 -0.47259824428E+02  0.28933422681E+02  0.76751556109E+02  0.00000000000E+00 0. -1.
</event>
<event>
 7    1  0.2601031E-009  0.7063704E+02  0.7561462E-02  0.1357940E+00
         -3   -1    0    0    0  501 -0.00000000000E+00  0.00000000000E+00  0.23277239960E+03  0.23277239960E+03  0.00000000000E+00 0.  1.
          3   -1    0    0  501    0  0.00000000000E+00 -0.00000000000E+00 -0.52562551833E+02  0.52562551833E+02  0.00000000000E+00 0. -1.
         25    2    1    2    0    0  0.21657111910E+02  0.31361393137E+01  0.10499557499E+03  0.16477358948E+03  0.12508956454E+03 0.  0.
          5    1    3    3  502    0  0.52150758604E+01  0.45401367670E+02  0.10977442498E+03  0.11898057817E+03  0.41800000000E+01 0. -1.
         -5    1    3    3    0  502  0.16442036049E+02 -0.42265228356E+02 -0.47788499899E+01  0.45793011308E+02  0.41800000000E+01 0. -1.
        -11    1    1    2    0    0  0.13928851316E+02  0.12516867327E+01 -0.16769909185E+02  0.21835967410E+02  0.00000000000E+00 0. -1.
         11    1    1    2    0    0 -0.35585963225E+02 -0.43878260463E+01  0.91984181961E+02  0.98725394540E+02  0.00000000000E+00 0.  1.
</event>
<event>
 7    1  0.2601031E-009  0.1135720E+03  0.7561462E-02  0.1254095E+00
         -2   -1    0    0    0  501 -0.00000000000E+00  0.00000000000E+00  0.31581893103E+02  0.31581893103E+02  0.00000000000E+00 0.  1.
          2   -1    0    0  501    0  0.00000000000E+00 -0.00000000000E+00 -0.47446061303E+03  0.47446061303E+03  0.00000000000E+00 0. -1.
         25    2    1    2    0    0  0.44449283181E+02 -0.32132495437E+02 -0.23868936791E+03  0.27500642605E+03  0.12509070300E+03 0.  0.
          5    1    3    3  502    0  0.72556112511E+02 -0.54676040036E+02 -0.20970152751E+03  0.22857397458E+03  0.41800000000E+01 0.  1.
         -5    1    3    3    0  502 -0.28106829330E+02  0.22543544599E+02 -0.28987840396E+02  0.46432451463E+02  0.41800000000E+01 0.  1.
        -11    1    1    2    0    0  0.14379120836E+02 -0.17715826644E+02 -0.16597146358E+02  0.28214799254E+02  0.00000000000E+00 0.  1.
         11    1    1    2    0    0 -0.58828404017E+02  0.49848322081E+02 -0.18759220566E+03  0.20282128083E+03  0.00000000000E+00 0. -1.
</event>
<event>
 7    1  0.2601031E-009  0.2044701E+03  0.7561462E-02  0.1146021E+00
         -2   -1    0    0    0  501 -0.00000000000E+00  0.00000000000E+00  0.95965491415E+02  0.95965491415E+02  0.00000000000E+00 0.  1.
          2   -1    0    0  501    0  0.00000000000E+00 -0.00000000000E+00 -0.53302323681E+03  0.53302323681E+03  0.00000000000E+00 0. -1.
         25    2    1    2    0    0 -0.87759477019E+02  0.16461858356E+03 -0.31612498042E+03  0.38779312125E+03  0.12508995876E+03 0.  0.
          5    1    3    3  502    0  0.23029658881E+02  0.69881285377E+02 -0.14727575468E+03  0.16468569929E+03  0.41800000000E+01 0. -1.
         -5    1    3    3    0  502 -0.11078913590E+03  0.94737298179E+02 -0.16884922574E+03  0.22310742196E+03  0.41800000000E+01 0. -1.
        -11    1    1    2    0    0  0.24808397591E+02 -0.81203186204E+02 -0.49138989120E+01  0.85050340641E+02  0.00000000000E+00 0. -1.
         11    1    1    2    0    0  0.62951079428E+02 -0.83415397352E+02 -0.11601886606E+03  0.15614526634E+03  0.00000000000E+00 0.  1.
</event>
<event>
 7    1  0.2601031E-009  0.2633501E+03  0.7561462E-02  0.1105147E+00
         -2   -1    0    0    0  501 -0.00000000000E+00  0.00000000000E+00  0.95013228059E+02  0.95013228059E+02  0.00000000000E+00 0.  1.
          2   -1    0    0  501    0  0.00000000000E+00 -0.00000000000E+00 -0.79403811341E+03  0.79403811341E+03  0.00000000000E+00 0. -1.
         25    2    1    2    0    0  0.13861367969E+03  0.20876646644E+03 -0.40157070551E+03  0.48959787118E+03  0.12509937743E+03 0.  0.
          5    1    3    3  502    0  0.58163008216E+02  0.33466245525E+02 -0.19812848638E+03  0.20922546362E+03  0.41800000000E+01 0.  1.
         -5    1    3    3    0  502  0.80450671479E+02  0.17530022091E+03 -0.20344221913E+03  0.28037240756E+03  0.41800000000E+01 0.  1.
        -11    1    1    2    0    0  0.44499837273E+01 -0.59935708945E+02 -0.71063241228E+02  0.93070273534E+02  0.00000000000E+00 0.  1.
         11    1    1    2    0    0 -0.14306366342E+03 -0.14883075749E+03 -0.22639093862E+03  0.30638319676E+03  0.00000000000E+00 0. -1.
</event>
<event>
 7    1  0.2886638E-009  0.1108137E+03  0.7561462E-02  0.1259070E+00
          2   -1    0    0  501    0  0.00000000000E+00  0.00000000000E+00  0.90215911723E+03  0.90215911723E+03  0.00000000000E+00 0. -1.
         -2   -1    0    0    0  501 -0.00000000000E+00 -0.00000000000E+00 -0.21830347391E+02  0.21830347391E+02  0.00000000000E+00 0.  1.
         25    2    1    2    0    0 -0.81988320026E+02 -0.65938056579E+01  0.59524761601E+03  0.61378584935E+03  0.12509109320E+03 0.  0.
          5    1    3    3  502    0 -0.84828730695E+01 -0.51991737826E+02  0.12599937855E+03  0.13663241099E+03  0.41800000000E+01 0. -1.
         -5    1    3    3    0  502 -0.73505446956E+02  0.45397932168E+02  0.46924823746E+03  0.47715343836E+03  0.41800000000E+01 0. -1.
        -11    1    1    2    0    0  0.56017323223E+02  0.34024998662E+01  0.27727541782E+03  0.28289781694E+03  0.00000000000E+00 0. -1.
         11    1    1    2    0    0  0.25970996803E+02  0.31913057917E+01  0.78057360063E+01  0.27305798325E+02  0.00000000000E+00 0.  1.
</event>
<event>
 7    1  0.2601031E-009  0.1229037E+03  0.7561462E-02  0.1238382E+00
         -2   -1    0    0    0  501 -0.00000000000E+00  0.00000000000E+00  0.20254320579E+02  0.20254320579E+02  0.00000000000E+00 0.  1.
          2   -1    0    0  501    0  0.00000000000E+00 -0.00000000000E+00 -0.83092086220E+03  0.83092086220E+03  0.00000000000E+00 0. -1.
         25    2    1    2    0    0  0.21298840637E+02  0.66240991598E+02 -0.41451488152E+03  0.43853290054E+03  0.12508800213E+03 0.  0.
          5    1    3    3  502    0 -0.23381942629E+02 -0.21361782539E+02 -0.39421217655E+02  0.50739982221E+02  0.41800000000E+01 0. -1.
         -5    1    3    3    0  502  0.44680783266E+02  0.87602774137E+02 -0.37509366386E+03  0.38779291832E+03  0.41800000000E+01 0. -1.
        -11    1    1    2    0    0  0.31380949333E+02 -0.52214191928E+02 -0.21536618630E+03  0.22381617462E+03  0.00000000000E+00 0.  1.
         11    1    1    2    0    0 -0.52679789970E+02 -0.14026799671E+02 -0.18078547380E+03  0.18882610761E+03  0.00000000000E+00 0. -1.
</event>
<event>
 7    1  0.2601031E-009  0.2423368E+03  0.7561462E-02  0.1118246E+00
         -1   -1    0    0    0  501 -0.00000000000E+00  0.00000000000E+00  0.11042365581E+03  0.11042365581E+03  0.00000000000E+00 0.  1.
          1   -1    0    0  501    0  0.00000000000E+00 -0.00000000000E+00 -0.97172820107E+03  0.97172820107E+03  0.00000000000E+00 0. -1.
         25    2    1    2    0    0 -0.23416052256E+03  0.43776209432E+02 -0.11492277923E+03  0.29257760254E+03  0.12508757525E+03 0.  0.
          5    1    3    3  502    0 -0.17443061769E+03  0.27822823226E+02 -0.18080579394E+02  0.17760779721E+03  0.41800000000E+01 0.  1.
         -5    1    3    3    0  502 -0.59729904875E+02  0.15953386206E+02 -0.96842199835E+02  0.11496980533E+03  0.41800000000E+01 0.  1.
        -11    1    1    2    0    0  0.68106772598E+02 -0.41891984795E+02 -0.14387697731E+03  0.16460272010E+03  0.00000000000E+00 0. -1.
         11    1    1    2    0    0  0.16605374996E+03 -0.18842246364E+01 -0.60250478872E+03  0.62497153424E+03  0.00000000000E+00 0.  1.
</event>
<event>
 7    1  0.2601031E-009  0.1184467E+03  0.7561462E-02  0.1245682E+00
          2   -1    0    0  501    0  0.00000000000E+00  0.00000000000E+00  0.50416080490E+03  0.50416080490E+03  0.00000000000E+00 0. -1.
         -2   -1    0    0    0  501 -0.00000000000E+00 -0.00000000000E+00 -0.39273144093E+02  0.39273144093E+02  0.00000000000E+00 0.  1.
         25    2    1    2    0    0  0.17301364886E+02  0.63144406736E+02  0.36739150277E+03  0.39358765362E+03  0.12509265144E+03 0.  0.
          5    1    3    3  502    0 -0.46424366858E+02  0.46176502263E+02  0.11216450705E+03  0.12994552798E+03  0.41800000000E+01 0. -1.
         -5    1    3    3    0  502  0.63725731745E+02  0.16967904473E+02  0.25522699572E+03  0.26364212564E+03  0.41800000000E+01 0. -1.
        -11    1    1    2    0    0  0.32852229873E+02 -0.33610676710E+02  0.15894580404E+02  0.49614355611E+02  0.00000000000E+00 0.  1.
         11    1    1    2    0    0 -0.50153594759E+02 -0.29533730026E+02  0.81601577632E+02  0.10023193976E+03  0.00000000000E+00 0. -1.
</event>
<event>
 7    1  0.2601031E-009  0.1177182E+03  0.7561462E-02  0.1246909E+00
          2   -1    0    0  501    0  0.00000000000E+00  0.00000000000E+00  0.60801549301E+03  0.60801549301E+03  0.00000000000E+00 0. -1.
         -2   -1    0    0    0  501 -0.00000000000E+00 -0.00000000000E+00 -0.31985047688E+02  0.31985047688E+02  0.00000000000E+00 0.  1.
         25    2    1    2    0    0  0.15919333005E+02  0.44354162440E+02  0.18136828158E+03  0.22531027152E+03  0.12509815346E+03 0.  0.
          5    1    3    3  502    0 -0.73827357526E+01 -0.30862798871E+02  0.53709923808E+01  0.32455155222E+02  0.41800000000E+01 0.  1.
         -5    1    3    3    0  502  0.23302068758E+02  0.75216961311E+02  0.17599728920E+03  0.19285511630E+03  0.41800000000E+01 0.  1.
        -11    1    1    2    0    0 -0.47194355062E+02  0.21355609151E+02  0.20775442415E+03  0.21411508575E+03  0.00000000000E+00 0. -1.
         11    1    1    2    0    0  0.31275022057E+02 -0.65709771591E+02  0.18690773960E+03  0.20057518344E+03  0.00000000000E+00 0.  1.
</event>
<event>
 7    1  0.2601031E-009  0.9502222E+02  0.7561462E-02  0.1291126E+00
         -2   -1    0    0    0  501 -0.00000000000E+00  0.00000000000E+00  0.44353504433E+02  0.44353504433E+02  0.00000000000E+00 0.  1.
          2   -1    0    0  501    0  0.00000000000E+00 -0.00000000000E+00 -0.45057606029E+03  0.45057606029E+03  0.00000000000E+00 0. -1.
         25    2    1    2    0    0  0.49090281048E+02  0.31975231549E+02 -0.34172540689E+03  0.36858477165E+03  0.12508480746E+03 0.  0.
          5    1    3    3  502    0  0.18307162832E+02  0.68896186610E+02 -0.28642708611E+03  0.29519448639E+03  0.41800000000E+01 0. -1.
         -5    1    3    3    0  502  0.30783118216E+02 -0.36920955061E+02 -0.55298320778E+02  0.73390285260E+02  0.41800000000E+01 0. -1.
        -11    1    1    2    0    0 -0.50516541418E+02 -0.14094758005E+02  0.67461590290E+01  0.52878103424E+02  0.00000000000E+00 0.  1.
         11    1    1    2    0    0  0.14262603692E+01 -0.17880473544E+02 -0.71243308003E+02  0.73466689649E+02  0.00000000000E+00 0. -1.
</event>
<event>
 7    1  0.2601031E-009  0.1504496E+03  0.7561462E-02  0.1199922E+00
          3   -1    0    0  501    0  0.00000000000E+00  0.00000000000E+00  0.75915610473E+02  0.75915610473E+02  0.00000000000E+00 0. -1.
         -3   -1    0    0    0  501 -0.00000000000E+00 -0.00000000000E+00 -0.31169399781E+03  0.31169399781E+03  0.00000000000E+00 0.  1.
         25    2    1    2    0    0 -0.96742382663E+02 -0.50191564782E+02 -0.14021801978E+03  0.21722319191E+03  0.12508613134E+03 0.  0.
          5    1    3    3  502    0  0.26921327198E+02 -0.15345966062E+01 -0.48665410093E+02  0.55793434958E+02  0.41800000000E+01 0. -1.
         -5    1    3    3    0  502 -0.12366370986E+03 -0.48656968175E+02 -0.91552609684E+02  0.16142975695E+03  0.41800000000E+01 0. -1.
        -11    1    1    2    0    0  0.14874620388E+02  0.56613945027E+02 -0.46228531812E+02  0.74588673784E+02  0.00000000000E+00 0. -1.
         11    1    1    2    0    0  0.81867762275E+02 -0.64223802459E+01 -0.49331835750E+02  0.95797742596E+02  0.00000000000E+00 0.  1.
</event>
<event>
 7    1  0.2601031E-009  0.9096874E+02  0.7561462E-02  0.1300523E+00
          1   -1    0    0  501    0  0.00000000000E+00  0.00000000000E+00  0.58542878544E+02  0.58542878544E+02  0.00000000000E+00 0. -1.
         -1   -1    0    0    0  501 -0.00000000000E+00 -0.00000000000E+00 -0.25755697895E+03  0.25755697895E+03  0.00000000000E+00 0.  1.
         25    2    1    2    0    0  0.86260273997E+01  0.37729956218E+02 -0.64342556772E+02  0.14589820101E+03  0.12509341510E+03 0.  0.
          5    1    3    3  502    0  0.34466109666E+02  0.38329732570E+02  0.21607538853E+02  0.56048543689E+02  0.41800000000E+01 0. -1.
         -5    1    3    3    0  502 -0.25840082266E+02 -0.59977635201E+00 -0.85950095625E+02  0.89849657324E+02  0.41800000000E+01 0. -1.
        -11    1    1    2    0    0 -0.16451501535E+02  0.30877225920E+02 -0.43097021249E+02  0.55510433468E+02  0.00000000000E+00 0.  1.
         11    1    1    2    0    0  0.78254741354E+01 -0.68607182138E+02 -0.91574522388E+02  0.11469122302E+03  0.00000000000E+00 0. -1.
</event>
<event>
 7    1  0.2601031E-009  0.1163887E+03  0.7561462E-02  0.1249176E+00
         -1   -1    0    0    0  501 -0.00000000000E+00  0.00000000000E+00  0.63244687319E+02  0.63244687319E+02  0.00000000000E+00 0.  1.
          1   -1    0    0  501    0  0.00000000000E+00 -0.00000000000E+00 -0.35554635957E+03  0.35554635957E+03  0.00000000000E+00 0. -1.
         25    2    1    2    0    0  0.10167311651E+03  0.17441304173E+02 -0.14479353954E+03  0.21738042112E+03  0.12508979447E+03 0.  0.
          5    1    3    3  502    0  0.10601655175E+03  0.30587253993E+02 -0.16127477455E+03  0.19545361255E+03  0.41800000000E+01 0. -1.
         -5    1    3    3    0  502 -0.43434352446E+01 -0.13145949820E+02  0.16481235012E+02  0.21926808567E+02  0.41800000000E+01 0. -1.
        -11    1    1    2    0    0 -0.89688119399E+02 -0.38445836176E+01 -0.51062951711E+02  0.10327712536E+03  0.00000000000E+00 0.  1.
         11    1    1    2    0    0 -0.11984997108E+02 -0.13596720555E+02 -0.96445180999E+02  0.98133500413E+02  0.00000000000E+00 0. -1.
</event>
<event>
 7    1  0.2601031E-009  0.1887257E+03  0.7561462E-02  0.1159616E+00
         -2   -1    0    0    0  501 -0.00000000000E+00  0.00000000000E+00  0.37409077740E+02  0.37409077740E+02  0.00000000000E+00 0. -1.
          2   -1    0    0  501    0  0.00000000000E+00 -0.00000000000E+00 -0.10867804432E+04  0.10867804432E+04  0.00000000000E+00 0.  1.
         25    2    1    2    0    0 -0.85482833289E+02 -0.14161589646E+03 -0.59676216393E+03  0.63177034338E+03  0.12508520919E+03 0.  0.
          5    1    3    3  502    0  0.18638154860E+02 -0.80491963717E+02 -0.30415482860E+03  0.31520464654E+03  0.41800000000E+01 0. -1.
         -5    1    3    3    0  502 -0.10412098815E+03 -0.61123932741E+02 -0.29260733533E+03  0.31656569684E+03  0.41800000000E+01 0. -1.
        -11    1    1    2    0    0  0.11723021867E+01  0.47671917095E+02 -0.24381057436E+03  0.24843023596E+03  0.00000000000E+00 0.  1.
         11    1    1    2    0    0  0.84310531102E+02  0.93943979363E+02 -0.20879862718E+03  0.24398894160E+03  0.00000000000E+00 0. -1.
</event>
<event>
 7    1  0.2601031E-009  0.1507253E+03  0.7561462E-02  0.1199585E+00
          2   -1    0    0  501    0  0.00000000000E+00  0.00000000000E+00  0.48254641074E+03  0.48254641074E+03  0.00000000000E+00 0. -1.
         -2   -1    0    0    0  501 -0.00000000000E+00 -0.00000000000E+00 -0.63965625902E+02  0.63965625902E+02  0.00000000000E+00 0.  1.
         25    2    1    2    0    0 -0.63822819556E+02 -0.84925753684E+02  0.31694231851E+03  0.35691265128E+03  0.12509385056E+03 0.  0.
          5    1    3    3  502    0 -0.40691069074E+02  0.11365361609E+02  0.26556584553E+02  0.50076532728E+02  0.41800000000E+01 0. -1.
         -5    1    3    3    0  502 -0.23131750481E+02 -0.96291115292E+02  0.29038573396E+03  0.30683611855E+03  0.41800000000E+01 0. -1.
        -11    1    1    2    0    0 -0.32022741586E+02  0.46843759167E+02  0.40379778332E+02  0.69644240607E+02  0.00000000000E+00 0.  1.
         11    1    1    2    0    0  0.95845561142E+02  0.38081994516E+02  0.61258687995E+02  0.11995514475E+03  0.00000000000E+00 0. -1.
</event>
<event>
 7    1  0.2601031E-009  0.8628407E+02  0.7561462E-02  0.1312108E+00
          4   -1    0    0  501    0  0.00000000000E+00  0.00000000000E+00  0.27911529370E+03  0.27911529370E+03  0.00000000000E+00 0.  1.
         -4   -1    0    0    0  501 -0.00000000000E+00 -0.00000000000E+00 -0.68139408543E+02  0.68139408543E+02  0.00000000000E+00 0. -1.
         25    2    1    2    0    0 -0.55288564712E+01  0.58921489194E+02  0.19085600595E+03  0.23574379147E+03  0.12508720986E+03 0.  0.
          5    1    3    3  502    0  0.74315642782E+01  0.25044106725E+02  0.19695680284E+03  0.19872566521E+03  0.41800000000E+01 0.  1.
         -5    1    3    3    0  502 -0.12960420749E+02  0.33877382470E+02 -0.61007968942E+01  0.37018126259E+02  0.41800000000E+01 0.  1.
        -11    1    1    2    0    0 -0.65383730095E+01  0.24476081155E+02  0.28589921423E+01  0.25495150645E+02  0.00000000000E+00 0. -1.
         11    1    1    2    0    0  0.12067229481E+02 -0.83397570350E+02  0.17260887069E+02  0.86015760125E+02  0.00000000000E+00 0.  1.
</event>
<event>
 7    1  0.2601031E-009  0.2442046E+03  0.7561462E-02  0.1117023E+00
         -2   -1    0    0    0  501 -0.00000000000E+00  0.00000000000E+00  0.42600738217E+03  0.42600738217E+03  0.00000000000E+00 0.  1.
          2   -1    0    0  501    0  0.00000000000E+00 -0.00000000000E+00 -0.20366029409E+03  0.20366029409E+03  0.00000000000E+00 0. -1.
         25    2    1    2    0    0  0.19651083855E+03 -0.12200027494E+03  0.26888476394E+03  0.37609461060E+03  0.12509021982E+03 0.  0.
          5    1    3    3  502    0  0.92356357559E+02 -0.17972280523E+02  0.36563814293E+02  0.10103011712E+03  0.41800000000E+01 0.  1.
         -5    1    3    3    0  502  0.10415448099E+03 -0.10402799442E+03  0.23232094965E+03  0.27506449349E+03  0.41800000000E+01 0.  1.
        -11    1    1    2    0    0 -0.90938908232E+02  0.10684649931E+03 -0.93364257182E+01  0.14061731149E+03  0.00000000000E+00 0.  1.
         11    1    1    2    0    0 -0.10557193031E+03  0.15153775627E+02 -0.37201250138E+02  0.11295575416E+03  0.00000000000E+00 0. -1.
</event>
<event>
 7    1  0.2601031E-009  0.1729775E+03  0.7561462E-02  0.1174778E+00
          1   -1    0    0  501    0  0.00000000000E+00  0.00000000000E+00  0.20575349161E+03  0.20575349161E+03  0.00000000000E+00 0. -1.
         -1   -1    0    0    0  501 -0.00000000000E+00 -0.00000000000E+00 -0.18285331441E+03  0.18285331441E+03  0.00000000000E+00 0.  1.
         25    2    1    2    0    0  0.94478854842E+02  0.12410115842E+03  0.45547769007E+02  0.20506783826E+03  0.12510342718E+03 0.  0.
          5    1    3    3  502    0  0.98547870841E+02  0.99192534220E+02  0.80773721327E+02  0.16153237493E+03  0.41800000000E+01 0.  1.
         -5    1    3    3    0  502 -0.40690159982E+01  0.24908624196E+02 -0.35225952319E+02  0.43535463330E+02  0.41800000000E+01 0.  1.
        -11    1    1    2    0    0 -0.12583539083E+02  0.14684664413E+02 -0.10322883514E+02  0.21921376527E+02  0.00000000000E+00 0.  1.
         11    1    1    2    0    0 -0.81895315759E+02 -0.13878582283E+03 -0.12324708289E+02  0.16161759123E+03  0.00000000000E+00 0. -1.
</event>
<event>
 7    1  0.2601031E-009  0.1173992E+03  0.7561462E-02  0.1247450E+00
          2   -1    0    0  501    0  0.00000000000E+00  0.00000000000E+00  0.16389303849E+03  0.16389303849E+03  0.00000000000E+00 0. -1.
         -2   -1    0    0    0  501 -0.00000000000E+00 -0.00000000000E+00 -0.13796144226E+03  0.13796144226E+03  0.00000000000E+00 0.  1.
         25    2    1    2    0    0  0.33523166942E+02  0.52782319533E+02  0.98190921871E+02  0.17087350712E+03  0.12508605965E+03 0.  0.
          5    1    3    3  502    0 -0.35426176186E+02 -0.55945547004E+01 -0.16690617242E+01  0.36146523602E+02  0.41800000000E+01 0. -1.
         -5    1    3    3    0  502  0.68949343128E+02  0.58376874233E+02  0.99859983595E+02  0.13472698351E+03  0.41800000000E+01 0. -1.
        -11    1    1    2    0    0  0.13056792718E+02 -0.59743342448E+02 -0.49481218721E+02  0.78664717689E+02  0.00000000000E+00 0.  1.
         11    1    1    2    0    0 -0.46579959660E+02  0.69610229150E+01 -0.22778106918E+02  0.52316255951E+02  0.00000000000E+00 0. -1.
</event>
<event>
 7    1  0.2601031E-009  0.2062497E+03  0.7561462E-02  0.1144571E+00
          2   -1    0    0  501    0  0.00000000000E+00  0.00000000000E+00  0.40806656570E+03  0.40806656570E+03  0.00000000000E+00 0. -1.
         -2   -1    0    0    0  501 -0.00000000000E+00 -0.00000000000E+00 -0.12032171178E+03  0.12032171178E+03  0.00000000000E+00 0.  1.
         25    2    1    2    0    0 -0.16223774186E+03  0.10173803945E+03  0.17680765852E+03  0.28910328282E+03  0.12509215193E+03 0.  0.
          5    1    3    3  502    0  0.16942352459E+01  0.27774578016E+02 -0.99028433709E+01  0.29830124436E+02  0.41800000000E+01 0.  1.
         -5    1    3    3    0  502 -0.16393197711E+03  0.73963461432E+02  0.18671050189E+03  0.25927315839E+03  0.41800000000E+01 0.  1.
        -11    1    1    2    0    0  0.13842200251E+03 -0.49412813608E+02  0.10672955862E+03  0.18164106257E+03  0.00000000000E+00 0. -1.
         11    1    1    2    0    0  0.23815739350E+02 -0.52325225839E+02  0.42076367842E+01  0.57643932094E+02  0.00000000000E+00 0.  1.
</event>
<event>
 7    1  0.2601031E-009  0.1069092E+03  0.7561462E-02  0.1266403E+00
          1   -1    0    0  501    0  0.00000000000E+00  0.00000000000E+00  0.34527222092E+03  0.34527222092E+03  0.00000000000E+00 0. -1.
         -1   -1    0    0    0  501 -0.00000000000E+00 -0.00000000000E+00 -0.36146726276E+02  0.36146726276E+02  0.00000000000E+00 0.  1.
         25    2    1    2    0    0 -0.81546919491E+01 -0.40530568146E+01  0.13053530005E+03  0.18102711178E+03  0.12509366239E+03 0.  0.
          5    1    3    3  502    0 -0.61281356403E+02 -0.25176634114E+02  0.55031646978E+02  0.86227734036E+02  0.41800000000E+01 0.  1.
         -5    1    3    3    0  502  0.53126664453E+02  0.21123577299E+02  0.75503653071E+02  0.94799377745E+02  0.41800000000E+01 0.  1.
        -11    1    1    2    0    0  0.37359589607E+02 -0.28044837213E+02  0.79375627407E+02  0.92101802676E+02  0.00000000000E+00 0. -1.
         11    1    1    2    0    0 -0.29204897658E+02  0.32097894028E+02  0.99214567184E+02  0.10829003274E+03  0.00000000000E+00 0.  1.
</event>
<event>
 7    1  0.2606439E-009  0.9828270E+02  0.7561462E-02  0.1283949E+00
         -2   -1    0    0    0  501 -0.00000000000E+00  0.00000000000E+00  0.34650203532E+02  0.34650203532E+02  0.00000000000E+00 0.  1.
          2   -1    0    0  501    0  0.00000000000E+00 -0.00000000000E+00 -0.47552113475E+03  0.47552113475E+03  0.00000000000E+00 0. -1.
         25    2    1    2    0    0  0.62819694197E+01  0.66040946985E+02 -0.27338924787E+03  0.30787852327E+03  0.12508650774E+03 0.  0.
          5    1    3    3  502    0  0.14572058473E+02 -0.30045019472E+02 -0.13510507728E+03  0.13923326611E+03  0.41800000000E+01 0.  1.
         -5    1    3    3    0  502 -0.82900890531E+01  0.96085966457E+02 -0.13828417059E+03  0.16864525716E+03  0.41800000000E+01 0.  1.
        -11    1    1    2    0    0 -0.82085460728E+00 -0.19746469951E+02  0.75526199561E+01  0.21157479670E+02  0.00000000000E+00 0.  1.
         11    1    1    2    0    0 -0.54611148124E+01 -0.46294477034E+02 -0.17503430330E+03  0.18113533534E+03  0.00000000000E+00 0. -1.
</event>
<event>
 7    1  0.2601031E-009  0.1454837E+03  0.7561462E-02  0.1206135E+00
          2   -1    0    0  501    0  0.00000000000E+00  0.00000000000E+00  0.47265202792E+03  0.47265202792E+03  0.00000000000E+00 0. -1.
         -2   -1    0    0    0  501 -0.00000000000E+00 -0.00000000000E+00 -0.50253355923E+02  0.50253355923E+02  0.00000000000E+00 0.  1.
         25    2    1    2    0    0 -0.92989476033E+02 -0.53465731297E+02  0.20046002078E+03  0.25949445067E+03  0.12509005924E+03 0.  0.
          5    1    3    3  502    0 -0.11176022801E+03 -0.55972150589E+01  0.12204834522E+03  0.16563498529E+03  0.41800000000E+01 0. -1.
         -5    1    3    3    0  502  0.18770751977E+02 -0.47868516238E+02  0.78411675560E+02  0.93859465377E+02  0.41800000000E+01 0. -1.
        -11    1    1    2    0    0  0.10385440471E+03  0.43288235195E+02  0.22159067334E+03  0.24851968774E+03  0.00000000000E+00 0. -1.
         11    1    1    2    0    0 -0.10864928674E+02  0.10177496102E+02  0.34797787749E+00  0.14891245435E+02  0.00000000000E+00 0.  1.
</event>
<event>
 7    1  0.2601031E-009  0.1038221E+03  0.7561462E-02  0.1272458E+00
          1   -1    0    0  501    0  0.00000000000E+00  0.00000000000E+00  0.60182115410E+02  0.60182115410E+02  0.00000000000E+00 0. -1.
         -1   -1    0    0    0  501 -0.00000000000E+00 -0.00000000000E+00 -0.36441196943E+03  0.36441196943E+03  0.00000000000E+00 0.  1.
         25    2    1    2    0    0  0.78655178269E+02  0.28032361457E+01 -0.25513963440E+03  0.29485461726E+03  0.12509403292E+03 0.  0.
          5    1    3    3  502    0  0.52740662769E+02 -0.31342767276E+02 -0.24219827116E+03  0.24988281558E+03  0.41800000000E+01 0.  1.
         -5    1    3    3    0  502  0.25914515501E+02  0.34146003421E+02 -0.12941363241E+02  0.44971801674E+02  0.41800000000E+01 0.  1.
        -11    1    1    2    0    0 -0.87456162136E+02  0.94824923685E+01 -0.10867473860E+02  0.88637463553E+02  0.00000000000E+00 0.  1.
         11    1    1    2    0    0  0.88009838663E+01 -0.12285728514E+02 -0.38222745762E+02  0.41102004036E+02  0.00000000000E+00 0. -1.
</event>
<event>
 7    1  0.2601031E-009  0.9918783E+02  0.7561462E-02  0.1282013E+00
         -2   -1    0    0    0  501 -0.00000000000E+00  0.00000000000E+00  0.49822787884E+02  0.49822787884E+02  0.00000000000E+00 0.  1.
          2   -1    0    0  501    0  0.00000000000E+00 -0.00000000000E+00 -0.26858683501E+03  0.26858683501E+03  0.00000000000E+00 0. -1.
         25    2    1    2    0    0 -0.38273826171E+02 -0.18681590703E+01 -0.10491103705E+03  0.16769675735E+03  0.12508997139E+03 0.  0.
          5    1    3    3  502    0 -0.65793947953E+02  0.14295731038E+02 -0.10907407510E+02  0.68334877272E+02  0.41800000000E+01 0.  1.
         -5    1    3    3    0  502  0.27520121782E+02 -0.16163890108E+02 -0.94003629537E+02  0.99361880077E+02  0.41800000000E+01 0.  1.
        -11    1    1    2    0    0 -0.36218882443E+01 -0.39608922370E+02 -0.44273004039E+02  0.59515407185E+02  0.00000000000E+00 0. -1.
         11    1    1    2    0    0  0.41895714415E+02  0.41477081440E+02 -0.69580006044E+02  0.91197458365E+02  0.00000000000E+00 0.  1.
</event>
<event>
 7    1  0.2601031E-009  0.1483755E+03  0.7561462E-02  0.1202483E+00
         -2   -1    0    0    0  501 -0.00000000000E+00  0.00000000000E+00  0.31637649911E+02  0.31637649911E+02  0.00000000000E+00 0.  1.
          2   -1    0    0  501    0  0.00000000000E+00 -0.00000000000E+00 -0.77549149944E+03  0.77549149944E+03  0.00000000000E+00 0. -1.
         25    2    1    2    0    0 -0.10206179681E+03  0.45882575288E+02 -0.46172399317E+03  0.49128111087E+03  0.12508502290E+03 0.  0.
          5    1    3    3  502    0 -0.42100570828E+02  0.76473133677E+02 -0.35028187546E+03  0.36102003118E+03  0.41800000000E+01 0.  1.
         -5    1    3    3    0  502 -0.59961225980E+02 -0.30590558390E+02 -0.11144211771E+03  0.13026107969E+03  0.41800000000E+01 0.  1.
        -11    1    1    2    0    0  0.36757988136E+01 -0.43337140747E+02 -0.81526944271E+02  0.92402715909E+02  0.00000000000E+00 0.  1.
         11    1    1    2    0    0  0.98385997995E+02 -0.25454345403E+01 -0.20060291209E+03  0.22344532257E+03  0.00000000000E+00 0. -1.
</event>
<event>
 7    1  0.2601031E-009  0.1188579E+03  0.7561462E-02  0.1244993E+00
         -1   -1    0    0    0  501 -0.00000000000E+00  0.00000000000E+00  0.38136770150E+02  0.38136770150E+02  0.00000000000E+00 0.  1.
          1   -1    0    0  501    0  0.00000000000E+00 -0.00000000000E+00 -0.51782708102E+03  0.51782708102E+03  0.00000000000E+00 0. -1.
         25    2    1    2    0    0 -0.14652625940E+01  0.64332772470E+02 -0.38473256613E+03  0.40964181327E+03  0.12508563117E+03 0.  0.
          5    1    3    3  502    0  0.28947481037E+02  0.86476709927E+02 -0.33456805773E+03  0.34679884036E+03  0.41800000000E+01 0. -1.
         -5    1    3    3    0  502 -0.30412743631E+02 -0.22143937457E+02 -0.50164508403E+02  0.62842972913E+02  0.41800000000E+01 0. -1.
        -11    1    1    2    0    0 -0.13882912839E+02  0.19172540780E+02 -0.85134058280E+01  0.25155509687E+02  0.00000000000E+00 0.  1.
         11    1    1    2    0    0  0.15348175433E+02 -0.83505313250E+02 -0.86444338911E+02  0.12116652822E+03  0.00000000000E+00 0. -1.
</event>
<event>
 7    1  0.2601031E-009  0.7464642E+02  0.7561462E-02  0.1344969E+00
         -2   -1    0    0    0  501 -0.00000000000E+00  0.00000000000E+00  0.34874085750E+02  0.34874085750E+02  0.00000000000E+00 0.  1.
          2   -1    0    0  501    0  0.00000000000E+00 -0.00000000000E+00 -0.36278699533E+03  0.36278699533E+03  0.00000000000E+00 0. -1.
         25    2    1    2    0    0  0.27809237782E+02  0.15467391095E+02 -0.18822360256E+03  0.22823037607E+03  0.12509350946E+03 0.  0.
          5    1    3    3  502    0 -0.11244369833E+02 -0.13011802589E+01  0.15746040982E+02  0.19837820687E+02  0.41800000000E+01 0. -1.
         -5    1    3    3    0  502  0.39053607615E+02  0.16768571354E+02 -0.20396964354E+03  0.20839255538E+03  0.41800000000E+01 0. -1.
        -11    1    1    2    0    0 -0.25131071477E+02  0.35492876037E+02 -0.78622399777E+02  0.89848743729E+02  0.00000000000E+00 0. -1.
         11    1    1    2    0    0 -0.26781663048E+01 -0.50960267132E+02 -0.61066907244E+02  0.79581961281E+02  0.00000000000E+00 0.  1.
</event>
<event>
 7    1  0.2601031E-009  0.1775511E+03  0.7561462E-02  0.1170194E+00
          2   -1    0    0  501    0  0.00000000000E+00  0.00000000000E+00  0.10987725457E+03  0.10987725457E+03  0.00000000000E+00 0. -1.
         -2   -1    0    0    0  501 -0.00000000000E+00 -0.00000000000E+00 -0.35435578384E+03  0.35435578384E+03  0.00000000000E+00 0.  1.
         25    2    1    2    0    0  0.27406757271E+02  0.16246578241E+03 -0.14064824387E+03  0.25015380484E+03  0.12509491106E+03 0.  0.
          5    1    3    3  502    0 -0.16877325152E+02  0.90869187877E+00 -0.63197293395E+02  0.65551812467E+02  0.41800000000E+01 0. -1.
         -5    1    3    3    0  502  0.44284082422E+02  0.16155709054E+03 -0.77450950472E+02  0.18460199237E+03  0.41800000000E+01 0. -1.
        -11    1    1    2    0    0  0.71101097552E+01 -0.85214731879E+02 -0.96823727970E+02  0.12917793344E+03  0.00000000000E+00 0.  1.
         11    1    1    2    0    0 -0.34516867026E+02 -0.77251050535E+02 -0.70065574328E+01  0.84901300138E+02  0.00000000000E+00 0. -1.
</event>
<event>
 7    1  0.2601031E-009  0.1030488E+03  0.7561462E-02  0.1274012E+00
         -1   -1    0    0    0  501 -0.00000000000E+00  0.00000000000E+00  0.65412554982E+02  0.65412554982E+02  0.00000000000E+00 0.  1.
          1   -1    0    0  501    0  0.00000000000E+00 -0.00000000000E+00 -0.28083703167E+03  0.28083703167E+03  0.00000000000E+00 0. -1.
         25    2    1    2    0    0 -0.13668501392E+02 -0.16181308546E+02 -0.19672501715E+02  0.12838436266E+03  0.12508746770E+03 0.  0.
          5    1    3    3  502    0 -0.42947458441E+02  0.32373662978E+02  0.21622214846E+02  0.58116527907E+02  0.41800000000E+01 0. -1.
         -5    1    3    3    0  502  0.29278957048E+02 -0.48554971524E+02 -0.41294716561E+02  0.70267834757E+02  0.41800000000E+01 0. -1.
        -11    1    1    2    0    0 -0.39810382833E+02  0.12357779504E+02 -0.76640295476E+02  0.87242857508E+02  0.00000000000E+00 0. -1.
         11    1    1    2    0    0  0.53478884225E+02  0.38235290419E+01 -0.11911167949E+03  0.13062236648E+03  0.00000000000E+00 0.  1.
</event>
<event>
 7    1  0.2601031E-009  0.1829092E+03  0.7561462E-02  0.1165017E+00
          1   -1    0    0  501    0  0.00000000000E+00  0.00000000000E+00  0.31296034898E+03  0.31296034898E+03  0.00000000000E+00 0. -1.
         -1   -1    0    0    0  501 -0.00000000000E+00 -0.00000000000E+00 -0.12597353626E+03  0.12597353626E+03  0.00000000000E+00 0.  1.
         25    2    1    2    0    0  0.93123026825E+02 -0.11487620444E+03  0.14737173968E+02  0.19424976052E+03  0.12508934685E+03 0.  0.
          5    1    3    3  502    0  0.12101366372E+03 -0.71127594308E+02  0.10734237095E+01  0.14043527376E+03  0.41800000000E+01 0. -1.
         -5    1    3    3    0  502 -0.27890636890E+02 -0.43748610131E+02  0.13663750258E+02  0.53814486764E+02  0.41800000000E+01 0. -1.
        -11    1    1    2    0    0  0.16349959694E+02  0.32332095404E+02  0.43395765872E+02  0.56532097704E+02  0.00000000000E+00 0.  1.
         11    1    1    2    0    0 -0.10947298652E+03  0.82544109035E+02  0.12885387288E+03  0.18815202701E+03  0.00000000000E+00 0. -1.
</event>
<event>
 7    1  0.2601031E-009  0.1071956E+03  0.7561462E-02  0.1265853E+00
          1   -1    0    0  501    0  0.00000000000E+00  0.00000000000E+00  0.54339673358E+02  0.54339673358E+02  0.00000000000E+00 0. -1.
         -1   -1    0    0    0  501 -0.00000000000E+00 -0.00000000000E+00 -0.27500838839E+03  0.27500838839E+03  0.00000000000E+00 0.  1.
         25    2    1    2    0    0  0.37260988964E+02  0.39150545343E+02 -0.68757733335E+02  0.15263070388E+03  0.12508940552E+03 0.  0.
          5    1    3    3  502    0  0.74113026897E+02  0.49998151560E+02 -0.70527509628E+02  0.11394804926E+03  0.41800000000E+01 0. -1.
         -5    1    3    3    0  502 -0.36852037933E+02 -0.10847606217E+02  0.17697762926E+01  0.38682654622E+02  0.41800000000E+01 0. -1.
        -11    1    1    2    0    0 -0.46964281034E+02 -0.10948574586E+01 -0.56111150893E+02  0.73179940287E+02  0.00000000000E+00 0.  1.
         11    1    1    2    0    0  0.97032920705E+01 -0.38055687884E+02 -0.95799830801E+02  0.10353741758E+03  0.00000000000E+00 0. -1.
</event>
<event>
 7    1  0.2601031E-009  0.7553414E+02  0.7561462E-02  0.1342225E+00
         -2   -1    0    0    0  501 -0.00000000000E+00  0.00000000000E+00  0.75161004011E+02  0.75161004011E+02  0.00000000000E+00 0.  1.
          2   -1    0    0  501    0  0.00000000000E+00 -0.00000000000E+00 -0.16831008862E+03  0.16831008862E+03  0.00000000000E+00 0. -1.
         25    2    1    2    0    0  0.11783639408E+02 -0.58689355836E+00 -0.81827360714E+02  0.14994203797E+03  0.12509076380E+03 0.  0.
          5    1    3    3  502    0 -0.12200687219E+02 -0.24699934507E+02 -0.10496194026E+03  0.10859753605E+03  0.41800000000E+01 0. -1.
         -5    1    3    3    0  502  0.23984326627E+02  0.24113040948E+02  0.23134579550E+02  0.41344501914E+02  0.41800000000E+01 0. -1.
        -11    1    1    2    0    0 -0.48354722114E+02 -0.12755919472E+02  0.70132463966E+01  0.50498299549E+02  0.00000000000E+00 0.  1.
         11    1    1    2    0    0  0.36571082706E+02  0.13342813030E+02 -0.18334970287E+02  0.43030755109E+02  0.00000000000E+00 0. -1.
</event>
<event>
 7    1  0.2601031E-009  0.1136740E+03  0.7561462E-02  0.1253914E+00
         -3   -1    0    0    0  501 -0.00000000000E+00  0.00000000000E+00  0.59367035056E+03  0.59367035056E+03  0.00000000000E+00 0.  1.
          3   -1    0    0  501    0  0.00000000000E+00 -0.00000000000E+00 -0.34158775582E+02  0.34158775582E+02  0.00000000000E+00 0. -1.
         25    2    1    2    0    0  0.49650937160E+02 -0.10471790975E+01  0.13425104921E+03  0.19009786604E+03  0.12509013676E+03 0.  0.
          5    1    3    3  502    0 -0.20290384336E+02  0.38562021049E+02  0.15092497915E+02  0.46303186254E+02  0.41800000000E+01 0.  1.
         -5    1    3    3    0  502  0.69941321495E+02 -0.39609200147E+02  0.11915855130E+03  0.14379467979E+03  0.41800000000E+01 0.  1.
        -11    1    1    2    0    0 -0.73501106467E+02  0.15612124060E+02  0.28690109383E+03  0.29657779538E+03  0.00000000000E+00 0. -1.
         11    1    1    2    0    0  0.23850169307E+02 -0.14564944962E+02  0.13835943194E+03  0.14115346472E+03  0.00000000000E+00 0.  1.
</event>
<event>
 7    1  0.2601031E-009  0.8660600E+02  0.7561462E-02  0.1311285E+00
         -2   -1    0    0    0  501 -0.00000000000E+00  0.00000000000E+00  0.98202964276E+02  0.98202964276E+02  0.00000000000E+00 0. -1.
          2   -1    0    0  501    0  0.00000000000E+00 -0.00000000000E+00 -0.13285057925E+03  0.13285057925E+03  0.00000000000E+00 0.  1.
         25    2    1    2    0    0 -0.15345900664E+02 -0.28482600390E+02 -0.27096570021E+02  0.13201407907E+03  0.12508692087E+03 0.  0.
          5    1    3    3  502    0 -0.30165593725E+02 -0.63079514026E+02  0.18786892194E+02  0.72521775025E+02  0.41800000000E+01 0. -1.
         -5    1    3    3    0  502  0.14819693061E+02  0.34596913636E+02 -0.45883462215E+02  0.59492304044E+02  0.41800000000E+01 0. -1.
        -11    1    1    2    0    0 -0.98605975876E+01 -0.13265912889E+02 -0.38074048060E+02  0.41507215821E+02  0.00000000000E+00 0.  1.
         11    1    1    2    0    0  0.25206498251E+02  0.41748513279E+02  0.30523003104E+02  0.57532248640E+02  0.00000000000E+00 0. -1.
</event>
<event>
 7    1  0.2601031E-009  0.1070886E+03  0.7561462E-02  0.1266058E+00
          1   -1    0    0  501    0  0.00000000000E+00  0.00000000000E+00  0.67035346337E+03  0.67035346337E+03  0.00000000000E+00 0. -1.
         -1   -1    0    0    0  501 -0.00000000000E+00 -0.00000000000E+00 -0.32273411711E+02  0.32273411711E+02  0.00000000000E+00 0.  1.
         25    2    1    2    0    0 -0.33777278629E+01 -0.85720608624E+02  0.46243242336E+03  0.48667301450E+03  0.12508974809E+03 0.  0.
          5    1    3    3  502    0 -0.11433720257E+02 -0.10397020651E+03  0.45163505006E+03  0.46360783497E+03  0.41800000000E+01 0. -1.
         -5    1    3    3    0  502  0.80559923944E+01  0.18249597889E+02  0.10797373303E+02  0.23065179532E+02  0.41800000000E+01 0. -1.
        -11    1    1    2    0    0 -0.10217212802E+02  0.46362462353E+02  0.14687664862E+02  0.49695038504E+02  0.00000000000E+00 0.  1.
         11    1    1    2    0    0  0.13594940665E+02  0.39358146271E+02  0.16095996344E+03  0.16625882208E+03  0.00000000000E+00 0. -1.
</event>
<event>
 7    1  0.2601031E-009  0.2202671E+03  0.7561462E-02  0.1133684E+00
         -2   -1    0    0    0  501 -0.00000000000E+00  0.00000000000E+00  0.26929196388E+02  0.26929196388E+02  0.00000000000E+00 0.  1.
          2   -1    0    0  501    0  0.00000000000E+00 -0.00000000000E+00 -0.19096426960E+04  0.19096426960E+04  0.00000000000E+00 0. -1.
         25    2    1    2    0    0 -0.15631050421E+03 -0.11534899543E+03 -0.79697306748E+03  0.82979036418E+03  0.12509042216E+03 0.  0.
          5    1    3    3  502    0 -0.15030581693E+03 -0.13965302158E+03 -0.69158616692E+03  0.72139011895E+03  0.41800000000E+01 0. -1.
         -5    1    3    3    0  502 -0.60046872878E+01  0.24304026147E+02 -0.10538690056E+03  0.10840024523E+03  0.41800000000E+01 0. -1.
        -11    1    1    2    0    0  0.13268629357E+03  0.52319617903E+02 -0.83840580505E+03  0.85045122663E+03  0.00000000000E+00 0. -1.
         11    1    1    2    0    0  0.23624210641E+02  0.63029377531E+02 -0.24733462710E+03  0.25633030161E+03  0.00000000000E+00 0.  1.
</event>
<event>
 7    1  0.2601031E-009  0.1131124E+03  0.7561462E-02  0.1254912E+00
          2   -1    0    0  501    0  0.00000000000E+00  0.00000000000E+00  0.99389458755E+03  0.99389458755E+03  0.00000000000E+00 0. -1.
         -2   -1    0    0    0  501 -0.00000000000E+00 -0.00000000000E+00 -0.23438253581E+02  0.23438253581E+02  0.00000000000E+00 0.  1.
         25    2    1    2    0    0 -0.81643819598E+02 -0.43369965334E+02  0.69838149447E+03  0.71549242842E+03  0.12508411626E+03 0.  0.
          5    1    3    3  502    0 -0.16593534433E+02 -0.31028688278E+02  0.38654945532E+02  0.52438555428E+02  0.41800000000E+01 0.  1.
         -5    1    3    3    0  502 -0.65050285165E+02 -0.12341277056E+02  0.65972654894E+03  0.66305387299E+03  0.41800000000E+01 0.  1.
        -11    1    1    2    0    0  0.89004564294E+02  0.91824026533E+01  0.14813189307E+03  0.17305833331E+03  0.00000000000E+00 0. -1.
         11    1    1    2    0    0 -0.73607446958E+01  0.34187562681E+02  0.12394294643E+03  0.12878207940E+03  0.00000000000E+00 0.  1.
</event>
<event>
 7    1  0.2601031E-009  0.1160440E+03  0.7561462E-02  0.1249770E+00
         -2   -1    0    0    0  501 -0.00000000000E+00  0.00000000000E+00  0.33533754514E+03  0.33533754514E+03  0.00000000000E+00 0. -1.
          2   -1    0    0  501    0  0.00000000000E+00 -0.00000000000E+00 -0.47929613154E+02  0.47929613154E+02  0.00000000000E+00 0.  1.
         25    2    1    2    0    0 -0.12793772450E+02  0.62447474397E+02  0.13943116628E+03  0.19786851517E+03  0.12509009350E+03 0.  0.
          5    1    3    3  502    0 -0.43320087675E+02 -0.92262232055E+01  0.10211967368E+03  0.11138964648E+03  0.41800000000E+01 0. -1.
         -5    1    3    3    0  502  0.30526315225E+02  0.71673697602E+02  0.37311492600E+02  0.86478868686E+02  0.41800000000E+01 0. -1.
        -11    1    1    2    0    0  0.43929758847E+02 -0.49637793805E+01  0.77841771717E+02  0.89519853900E+02  0.00000000000E+00 0. -1.
         11    1    1    2    0    0 -0.31135986397E+02 -0.57483695016E+02  0.70134993989E+02  0.95878789226E+02  0.00000000000E+00 0.  1.
</event>
<event>
 7    1  0.2601031E-009  0.9942127E+02  0.7561462E-02  0.1281518E+00
          1   -1    0    0  501    0  0.00000000000E+00  0.00000000000E+00  0.17613297088E+03  0.17613297088E+03  0.00000000000E+00 0. -1.
         -1   -1    0    0    0  501 -0.00000000000E+00 -0.00000000000E+00 -0.94620090370E+02  0.94620090370E+02  0.00000000000E+00 0.  1.
         25    2    1    2    0    0  0.56285428053E+02  0.18435592862E+02  0.72175214715E+01  0.13859264941E+03  0.12509160388E+03 0.  0.
          5    1    3    3  502    0  0.44741283345E+02 -0.22219686143E+02  0.55166288602E+02  0.74540517075E+02  0.41800000000E+01 0.  1.
         -5    1    3    3    0  502  0.11544144708E+02  0.40655279004E+02 -0.47948767130E+02  0.64052132340E+02  0.41800000000E+01 0.  1.
        -11    1    1    2    0    0 -0.60430361552E+02 -0.47513561201E+02  0.38865349209E+02  0.86138739626E+02  0.00000000000E+00 0.  1.
         11    1    1    2    0    0  0.41449334992E+01  0.29077968339E+02  0.35430009832E+02  0.46021672211E+02  0.00000000000E+00 0. -1.
</event>
<event>
 7    1  0.2601031E-009  0.8558971E+02  0.7561462E-02  0.1313898E+00
          2   -1    0    0  501    0  0.00000000000E+00  0.00000000000E+00  0.80041673725E+03  0.80041673725E+03  0.00000000000E+00 0. -1.
         -2   -1    0    0    0  501 -0.00000000000E+00 -0.00000000000E+00 -0.21827716653E+02  0.21827716653E+02  0.00000000000E+00 0.  1.
         25    2    1    2    0    0 -0.51529178131E+02  0.51683887324E+01  0.61385684977E+03  0.62861055176E+03  0.12509606444E+03 0.  0.
          5    1    3    3  502    0 -0.71042232942E+02  0.30774410507E+02  0.56273985707E+03  0.56805605563E+03  0.41800000000E+01 0. -1.
         -5    1    3    3    0  502  0.19513054812E+02 -0.25606021774E+02  0.51116992693E+02  0.60554496127E+02  0.41800000000E+01 0. -1.
        -11    1    1    2    0    0  0.26298940486E+02 -0.18966497892E+02  0.16146914245E+03  0.16469258112E+03  0.00000000000E+00 0. -1.
         11    1    1    2    0    0  0.25230237645E+02  0.13798109160E+02  0.32630283766E+01  0.28941321017E+02  0.00000000000E+00 0.  1.
</event>
<event>
 7    1  0.2601031E-009  0.1059944E+03  0.7561462E-02  0.1268173E+00
         -2   -1    0    0    0  501 -0.00000000000E+00  0.00000000000E+00  0.29181118012E+03  0.29181118012E+03  0.00000000000E+00 0.  1.
          2   -1    0    0  501    0  0.00000000000E+00 -0.00000000000E+00 -0.48327401131E+02  0.48327401131E+02  0.00000000000E+00 0. -1.
         25    2    1    2    0    0 -0.10794068787E+02  0.42128691117E+02  0.10991262837E+03  0.17210357997E+03  0.12509003889E+03 0.  0.
          5    1    3    3  502    0 -0.48303798737E+02  0.67551774063E+02  0.50566015262E+02  0.97318515458E+02  0.41800000000E+01 0.  1.
         -5    1    3    3    0  502  0.37509729950E+02 -0.25423082946E+02  0.59346613105E+02  0.74785064515E+02  0.41800000000E+01 0.  1.
        -11    1    1    2    0    0 -0.25443722600E+02 -0.39518355388E+02  0.24358934472E+02  0.52938087621E+02  0.00000000000E+00 0. -1.
         11    1    1    2    0    0  0.36237791388E+02 -0.26103357286E+01  0.10921221615E+03  0.11509691366E+03  0.00000000000E+00 0.  1.
</event>
<event>
 7    1  0.2602619E-009  0.1224706E+03  0.7561462E-02  0.1239076E+00
          2   -1    0    0  501    0  0.00000000000E+00  0.00000000000E+00  0.12001104653E+04  0.12001104653E+04  0.00000000000E+00 0. -1.
         -2   -1    0    0    0  501 -0.00000000000E+00 -0.00000000000E+00 -0.16663244396E+02  0.16663244396E+02  0.00000000000E+00 0.  1.
         25    2    1    2    0    0 -0.77012484896E+02 -0.25906385370E+02  0.81313205352E+03  0.82669965234E+03  0.12508603073E+03 0.  0.
          5    1    3    3  502    0 -0.97553276303E+02  0.15568434098E+01  0.38559103692E+03  0.39776498794E+03  0.41800000000E+01 0. -1.
         -5    1    3    3    0  502  0.20540791407E+02 -0.27463228780E+02  0.42754101660E+03  0.42893466440E+03  0.41800000000E+01 0. -1.
        -11    1    1    2    0    0  0.38519396358E+02  0.53105349608E+02  0.13513997261E+03  0.15022228280E+03  0.00000000000E+00 0.  1.
         11    1    1    2    0    0  0.38493088538E+02 -0.27198964238E+02  0.23517519479E+03  0.23985177457E+03  0.00000000000E+00 0. -1.
</event>
<event>
 7    1  0.2601031E-009  0.1360288E+03  0.7561462E-02  0.1218775E+00
          1   -1    0    0  501    0  0.00000000000E+00  0.00000000000E+00  0.40751788194E+02  0.40751788194E+02  0.00000000000E+00 0. -1.
         -1   -1    0    0    0  501 -0.00000000000E+00 -0.00000000000E+00 -0.53711601752E+03  0.53711601752E+03  0.00000000000E+00 0.  1.
         25    2    1    2    0    0  0.94641134152E+02  0.24722576974E+01 -0.20605212862E+03  0.25896716530E+03  0.12507380486E+03 0.  0.
          5    1    3    3  502    0  0.50393857913E+02 -0.59907986103E+02 -0.84238657934E+02  0.11507446113E+03  0.41800000000E+01 0.  1.
         -5    1    3    3    0  502  0.44247276239E+02  0.62380243800E+02 -0.12181347069E+03  0.14389270417E+03  0.41800000000E+01 0.  1.
        -11    1    1    2    0    0 -0.25753540166E+02  0.31146206142E+02 -0.18057777480E+03  0.18504503165E+03  0.00000000000E+00 0.  1.
         11    1    1    2    0    0 -0.68887593986E+02 -0.33618463839E+02 -0.10973432591E+03  0.13385560877E+03  0.00000000000E+00 0. -1.
</event>
<event>
 7    1  0.2601031E-009  0.1575195E+03  0.7561462E-02  0.1191526E+00
         -3   -1    0    0    0  501 -0.00000000000E+00  0.00000000000E+00  0.82183100304E+02  0.82183100304E+02  0.00000000000E+00 0.  1.
          3   -1    0    0  501    0  0.00000000000E+00 -0.00000000000E+00 -0.67103448520E+03  0.67103448520E+03  0.00000000000E+00 0. -1.
         25    2    1    2    0    0 -0.10326596149E+03  0.96786239827E+02 -0.60496780578E+02  0.19834129380E+03  0.12509185962E+03 0.  0.
          5    1    3    3  502    0 -0.12227826429E+03  0.72014945251E+02 -0.14665358207E+02  0.14272586097E+03  0.41800000000E+01 0. -1.
         -5    1    3    3    0  502  0.19012302801E+02  0.24771294577E+02 -0.45831422370E+02  0.55615432834E+02  0.41800000000E+01 0. -1.
        -11    1    1    2    0    0  0.49520649536E+02 -0.48453003214E+02 -0.10772046864E+03  0.12807688166E+03  0.00000000000E+00 0.  1.
         11    1    1    2    0    0  0.53745311952E+02 -0.48333236613E+02 -0.42063413568E+03  0.42679941004E+03  0.00000000000E+00 0. -1.
</event>
<event>
 7    1  0.2601031E-009  0.1040891E+03  0.7561462E-02  0.1271925E+00
          2   -1    0    0  501    0  0.00000000000E+00  0.00000000000E+00  0.47578073423E+03  0.47578073423E+03  0.00000000000E+00 0. -1.
         -2   -1    0    0    0  501 -0.00000000000E+00 -0.00000000000E+00 -0.28486452721E+02  0.28486452721E+02  0.00000000000E+00 0.  1.
         25    2    1    2    0    0  0.33334660344E+02 -0.16315106821E+01  0.21070640008E+03  0.24730540761E+03  0.12509562818E+03 0.  0.
          5    1    3    3  502    0 -0.25021145111E+01 -0.58519856150E+02  0.70481107818E+02  0.91738176895E+02  0.41800000000E+01 0.  1.
         -5    1    3    3    0  502  0.35836774855E+02  0.56888345468E+02  0.14022529226E+03  0.15556723071E+03  0.41800000000E+01 0.  1.
        -11    1    1    2    0    0 -0.43041792303E+02 -0.27706803565E+02  0.65622838456E+02  0.83226316604E+02  0.00000000000E+00 0.  1.
         11    1    1    2    0    0  0.97071319588E+01  0.29338314247E+02  0.17096504298E+03  0.17373546274E+03  0.00000000000E+00 0. -1.
</event>
<event>
 7    1  0.2601031E-009  0.8467128E+02  0.7561462E-02  0.1316294E+00
          1   -1    0    0  501    0  0.00000000000E+00  0.00000000000E+00  0.16120339890E+02  0.16120339890E+02  0.00000000000E+00 0. -1.
         -1   -1    0    0    0  501 -0.00000000000E+00 -0.00000000000E+00 -0.98854502451E+03  0.98854502451E+03  0.00000000000E+00 0.  1.
         25    2    1    2    0    0 -0.32955636491E+02  0.48286377253E+02 -0.69711407856E+03  0.71065658630E+03  0.12508835641E+03 0.  0.
          5    1    3    3  502    0 -0.15290635800E+02  0.60462208890E+02 -0.14242789845E+03  0.15553990132E+03  0.41800000000E+01 0. -1.
         -5    1    3    3    0  502 -0.17665000691E+02 -0.12175831637E+02 -0.55468618012E+03  0.55511668497E+03  0.41800000000E+01 0. -1.
        -11    1    1    2    0    0  0.39854280849E+02 -0.38832576118E+01 -0.49002723961E+02  0.63282780812E+02  0.00000000000E+00 0. -1.
         11    1    1    2    0    0 -0.68986443571E+01 -0.44403119641E+02 -0.22630788209E+03  0.23072599729E+03  0.00000000000E+00 0.  1.
</event>
<event>
 7    1  0.2601031E-009  0.1040338E+03  0.7561462E-02  0.1272035E+00
          1   -1    0    0  501    0  0.00000000000E+00  0.00000000000E+00  0.33552163441E+03  0.33552163441E+03  0.00000000000E+00 0. -1.
         -1   -1    0    0    0  501 -0.00000000000E+00 -0.00000000000E+00 -0.90103295503E+02  0.90103295503E+02  0.00000000000E+00 0.  1.
         25    2    1    2    0    0 -0.27970964597E+02  0.54460285548E+02 -0.16723957097E+02  0.14026892389E+03  0.12508949879E+03 0.  0.
          5    1    3    3  502    0 -0.35771783313E+01 -0.35302469076E+02  0.19087380108E+02  0.40507542595E+02  0.41800000000E+01 0. -1.
         -5    1    3    3    0  502 -0.24393786265E+02  0.89762754625E+02 -0.35811337205E+02  0.99761381298E+02  0.41800000000E+01 0. -1.
        -11    1    1    2    0    0  0.29470348577E+02 -0.51781819170E+01  0.15240875166E+02  0.33579745220E+02  0.00000000000E+00 0.  1.
         11    1    1    2    0    0 -0.14993839800E+01 -0.49282103631E+02  0.24690142083E+03  0.25177626080E+03  0.00000000000E+00 0. -1.
</event>
<event>
 7    1  0.2601031E-009  0.1049351E+03  0.7561462E-02  0.1270248E+00
         -2   -1    0    0    0  501 -0.00000000000E+00  0.00000000000E+00  0.11859753555E+02  0.11859753555E+02  0.00000000000E+00 0.  1.
          2   -1    0    0  501    0  0.00000000000E+00 -0.00000000000E+00 -0.10062532246E+04  0.10062532246E+04  0.00000000000E+00 0. -1.
         25    2    1    2    0    0 -0.90862336519E+01  0.13490124958E+02 -0.55531761155E+03  0.56946365110E+03  0.12508659848E+03 0.  0.
          5    1    3    3  502    0 -0.30948519326E+02 -0.45697418063E+02 -0.16446567728E+03  0.17352952564E+03  0.41800000000E+01 0.  1.
         -5    1    3    3    0  502  0.21862285674E+02  0.59187543021E+02 -0.39085193427E+03  0.39593412546E+03  0.41800000000E+01 0.  1.
        -11    1    1    2    0    0  0.27980190610E+02 -0.45908964987E+02 -0.22703082891E+03  0.23330992566E+03  0.00000000000E+00 0.  1.
         11    1    1    2    0    0 -0.18893956958E+02  0.32418840029E+02 -0.21204503057E+03  0.21533940138E+03  0.00000000000E+00 0. -1.
</event>
<event>
 7    1  0.2601031E-009  0.1209503E+03  0.7561462E-02  0.1241538E+00
         -4   -1    0    0    0  501 -0.00000000000E+00  0.00000000000E+00  0.46475326518E+03  0.46475326518E+03  0.00000000000E+00 0.  1.
          4   -1    0    0  501    0  0.00000000000E+00 -0.00000000000E+00 -0.33592341102E+02  0.33592341102E+02  0.00000000000E+00 0. -1.
         25    2    1    2    0    0 -0.54183709918E+02  0.28743345665E+02  0.23443839759E+03  0.27271059182E+03  0.12509056835E+03 0.  0.
          5    1    3    3  502    0 -0.88460359641E+02  0.39088818997E+02  0.20292176084E+03  0.22482856674E+03  0.41800000000E+01 0.  1.
         -5    1    3    3    0  502  0.34276649723E+02 -0.10345473332E+02  0.31516636742E+02  0.47882025085E+02  0.41800000000E+01 0.  1.
        -11    1    1    2    0    0 -0.18149933034E+02 -0.31841959610E+02  0.84218826979E+02  0.91848469115E+02  0.00000000000E+00 0. -1.
         11    1    1    2    0    0  0.72333642952E+02  0.30986139444E+01  0.11250369952E+03  0.13378654535E+03  0.00000000000E+00 0.  1.
</event>
<event>
 7    1  0.2601031E-009  0.5667344E+02  0.7561462E-02  0.1412347E+00
          2   -1    0    0  501    0  0.00000000000E+00  0.00000000000E+00  0.10907060405E+03  0.10907060405E+03  0.00000000000E+00 0.  1.
         -2   -1    0    0    0  501 -0.00000000000E+00 -0.00000000000E+00 -0.14085998915E+03  0.14085998915E+03  0.00000000000E+00 0. -1.
         25    2    1    2    0    0  0.92836674552E+01  0.20079515284E+02 -0.74853710536E+02  0.14744374486E+03  0.12508879447E+03 0.  0.
          5    1    3    3  502    0 -0.17766777176E+02  0.21874300728E+02 -0.10375652943E+03  0.10759662264E+03  0.41800000000E+01 0.  1.
         -5    1    3    3    0  502  0.27050444631E+02 -0.17947854439E+01  0.28902818893E+02  0.39847122224E+02  0.41800000000E+01 0.  1.
        -11    1    1    2    0    0 -0.48930917402E+01 -0.38337885338E+02  0.63748757492E+02  0.74549580017E+02  0.00000000000E+00 0.  1.
         11    1    1    2    0    0 -0.43905757151E+01  0.18258370053E+02 -0.20684432058E+02  0.27937268329E+02  0.00000000000E+00 0. -1.
</event>
<event>
 7    1  0.2601031E-009  0.1274965E+03  0.7561462E-02  0.1231218E+00
         -2   -1    0    0    0  501 -0.00000000000E+00  0.00000000000E+00  0.39341161772E+02  0.39341161772E+02  0.00000000000E+00 0.  1.
          2   -1    0    0  501    0  0.00000000000E+00 -0.00000000000E+00 -0.56467280648E+03  0.56467280648E+03  0.00000000000E+00 0. -1.
         25    2    1    2    0    0  0.54182479475E+02  0.54564034391E+02 -0.42384416846E+03  0.44855787239E+03  0.12508921144E+03 0.  0.
          5    1    3    3  502    0 -0.36254094657E+02  0.18436031192E+02 -0.20424184282E+03  0.20829414150E+03  0.41800000000E+01 0.  1.
         -5    1    3    3    0  502  0.90436574132E+02  0.36128003198E+02 -0.21960232564E+03  0.24026373089E+03  0.41800000000E+01 0.  1.
        -11    1    1    2    0    0 -0.69865849800E+02 -0.11507948354E+02 -0.50922988705E+02  0.87217089049E+02  0.00000000000E+00 0.  1.
         11    1    1    2    0    0  0.15683370325E+02 -0.43056086037E+02 -0.50564487541E+02  0.68239006806E+02  0.00000000000E+00 0. -1.
</event>
<event>
 7    1  0.2601031E-009  0.1791549E+03  0.7561462E-02  0.1168623E+00
         -1   -1    0    0    0  501 -0.00000000000E+00  0.00000000000E+00  0.10219850220E+03  0.10219850220E+03  0.00000000000E+00 0.  1.
          1   -1    0    0  501    0  0.00000000000E+00 -0.00000000000E+00 -0.39216311036E+03  0.39216311036E+03  0.00000000000E+00 0. -1.
         25    2    1    2    0    0  0.10298272975E+03 -0.12743420232E+03 -0.11495068755E+03  0.23602162830E+03  0.12509048690E+03 0.  0.
          5    1    3    3  502    0  0.79470594342E+02 -0.14167002751E+03 -0.57796480070E+02  0.17246413415E+03  0.41800000000E+01 0. -1.
         -5    1    3    3    0  502  0.23512135406E+02  0.14235825195E+02 -0.57154207478E+02  0.63557494151E+02  0.41800000000E+01 0. -1.
        -11    1    1    2    0    0 -0.95898090303E+02  0.95623481515E+02 -0.78636259734E+02  0.15660126208E+03  0.00000000000E+00 0.  1.
         11    1    1    2    0    0 -0.70846394449E+01  0.31810720800E+02 -0.96377660878E+02  0.10173872218E+03  0.00000000000E+00 0. -1.
</event>
<event>
 7    1  0.2601031E-009  0.8269527E+02  0.7561462E-02  0.1321572E+00
          1   -1    0    0  501    0  0.00000000000E+00  0.00000000000E+00  0.98742849186E+03  0.98742849186E+03  0.00000000000E+00 0. -1.
         -1   -1    0    0    0  501 -0.00000000000E+00 -0.00000000000E+00 -0.10658768754E+02  0.10658768754E+02  0.00000000000E+00 0.  1.
         25    2    1    2    0    0  0.13558571783E+02 -0.60507521138E+01  0.56912342569E+03  0.58289724666E+03  0.12508908837E+03 0.  0.
          5    1    3    3  502    0 -0.33797026557E+02  0.11547437683E+02  0.51580786335E+02  0.62877915360E+02  0.41800000000E+01 0.  1.
         -5    1    3    3    0  502  0.47355598340E+02 -0.17598189797E+02  0.51754263935E+03  0.52001933130E+03  0.41800000000E+01 0.  1.
        -11    1    1    2    0    0  0.25172756611E+02  0.25124780926E+02  0.19129071533E+03  0.19456890826E+03  0.00000000000E+00 0.  1.
         11    1    1    2    0    0 -0.38731328395E+02 -0.19074028812E+02  0.21635558209E+03  0.22062110569E+03  0.00000000000E+00 0. -1.
</event>
<event>
 7    1  0.2601031E-009  0.1699560E+03  0.7561462E-02  0.1177894E+00
         -1   -1    0    0    0  501 -0.00000000000E+00  0.00000000000E+00  0.35568609082E+03  0.35568609082E+03  0.00000000000E+00 0.  1.
          1   -1    0    0  501    0  0.00000000000E+00 -0.00000000000E+00 -0.94807313198E+02  0.94807313198E+02  0.00000000000E+00 0. -1.
         25    2    1    2    0    0 -0.13930283599E+03 -0.33104721668E+02  0.17136408766E+03  0.25595646650E+03  0.12508740742E+03 0.  0.
          5    1    3    3  502    0 -0.85523639666E+02  0.41420685544E+02  0.10974486605E+03  0.14522869605E+03  0.41800000000E+01 0.  1.
         -5    1    3    3    0  502 -0.53779196319E+02 -0.74525407213E+02  0.61619221617E+02  0.11072777045E+03  0.41800000000E+01 0.  1.
        -11    1    1    2    0    0  0.49824302207E+02  0.38779645863E+02  0.83491662095E+02  0.10467654782E+03  0.00000000000E+00 0.  1.
         11    1    1    2    0    0  0.89478533778E+02 -0.56749241947E+01  0.60230278635E+01  0.89860389696E+02  0.00000000000E+00 0. -1.
</event>
<event>
 7    1  0.2601031E-009  0.1094469E+03  0.7561462E-02  0.1261598E+00
          2   -1    0    0  501    0  0.00000000000E+00  0.00000000000E+00  0.10373478326E+03  0.10373478326E+03  0.00000000000E+00 0. -1.
         -2   -1    0    0    0  501 -0.00000000000E+00 -0.00000000000E+00 -0.19644241169E+03  0.19644241169E+03  0.00000000000E+00 0.  1.
         25    2    1    2    0    0  0.59263339599E+02  0.49537639343E+02 -0.10460452291E+03  0.18043858789E+03  0.12509938711E+03 0.  0.
          5    1    3    3  502    0  0.80000147611E+02  0.44802908689E+02 -0.12198061013E+03  0.15265669292E+03  0.41800000000E+01 0. -1.
         -5    1    3    3    0  502 -0.20736808012E+02  0.47347306545E+01  0.17376087225E+02  0.27781894970E+02  0.41800000000E+01 0. -1.
        -11    1    1    2    0    0  0.57730973227E+00 -0.45445696812E+02  0.32986821894E+02  0.56158481674E+02  0.00000000000E+00 0.  1.
         11    1    1    2    0    0 -0.59840649332E+02 -0.40919425315E+01 -0.21089927412E+02  0.63580125388E+02  0.00000000000E+00 0. -1.
</event>
<event>
 7    1  0.2601031E-009  0.1254948E+03  0.7561462E-02  0.1234298E+00
         -1   -1    0    0    0  501 -0.00000000000E+00  0.00000000000E+00  0.53828376478E+02  0.53828376478E+02  0.00000000000E+00 0.  1.
          1   -1    0    0  501    0  0.00000000000E+00 -0.00000000000E+00 -0.37555538328E+03  0.37555538328E+03  0.00000000000E+00 0. -1.
         25    2    1    2    0    0 -0.71160555319E+01  0.63371273694E+02 -0.27364377478E+03  0.30756413948E+03  0.12509287686E+03 0.  0.
          5    1    3    3  502    0 -0.52488938400E+02 -0.91644086028E+01 -0.85379565863E+02  0.10072843544E+03  0.41800000000E+01 0. -1.
         -5    1    3    3    0  502  0.45372882868E+02  0.72535682297E+02 -0.18826420892E+03  0.20683570404E+03  0.41800000000E+01 0. -1.
        -11    1    1    2    0    0 -0.91454274601E+01 -0.84627429623E+02 -0.38052526688E+02  0.93238594345E+02  0.00000000000E+00 0. -1.
         11    1    1    2    0    0  0.16261482992E+02  0.21256155929E+02 -0.10030705335E+02  0.28581025935E+02  0.00000000000E+00 0.  1.
</event>
<event>
 7    1  0.2601031E-009  0.1236078E+03  0.7561462E-02  0.1237261E+00
          1   -1    0    0  501    0  0.00000000000E+00  0.00000000000E+00  0.13343971408E+04  0.13343971408E+04  0.00000000000E+00 0. -1.
         -1   -1    0    0    0  501 -0.00000000000E+00 -0.00000000000E+00 -0.13331278877E+02  0.13331278877E+02  0.00000000000E+00 0.  1.
         25    2    1    2    0    0 -0.45469575932E+02 -0.48187355817E+02  0.93542550374E+03  0.94607496053E+03  0.12508978495E+03 0.  0.
          5    1    3    3  502    0 -0.16234496029E+02 -0.88832515035E+02  0.65090817995E+03  0.65715576974E+03  0.41800000000E+01 0.  1.
         -5    1    3    3    0  502 -0.29235079903E+02  0.40645159218E+02  0.28451732379E+03  0.28891919078E+03  0.41800000000E+01 0.  1.
        -11    1    1    2    0    0  0.60044799854E+02  0.41510714600E+01  0.27805148342E+03  0.28449118935E+03  0.00000000000E+00 0.  1.
         11    1    1    2    0    0 -0.14575223922E+02  0.44036284357E+02  0.10758887478E+03  0.11716226982E+03  0.00000000000E+00 0. -1.
</event>
<event>
 7    1  0.2601031E-009  0.1442909E+03  0.7561462E-02  0.1207669E+00
         -2   -1    0    0    0  501 -0.00000000000E+00  0.00000000000E+00  0.11770442147E+03  0.11770442147E+03  0.00000000000E+00 0.  1.
          2   -1    0    0  501    0  0.00000000000E+00 -0.00000000000E+00 -0.29915660893E+03  0.29915660893E+03  0.00000000000E+00 0. -1.
         25    2    1    2    0    0 -0.10240891888E+03  0.84143359895E+02 -0.24770615999E+02  0.18392713931E+03  0.12509163632E+03 0.  0.
          5    1    3    3  502    0 -0.74761536030E+02  0.22392142084E+02  0.42044800755E+02  0.88746453265E+02  0.41800000000E+01 0.  1.
         -5    1    3    3    0  502 -0.27647382853E+02  0.61751217811E+02 -0.66815416753E+02  0.95180686043E+02  0.41800000000E+01 0.  1.
        -11    1    1    2    0    0  0.67571552352E+02 -0.83996675258E+02 -0.46549664405E+02  0.11742328303E+03  0.00000000000E+00 0. -1.
         11    1    1    2    0    0  0.34837366530E+02 -0.14668463679E+00 -0.11013190706E+03  0.11551060806E+03  0.00000000000E+00 0.  1.
</event>
<event>
 7    1  0.2601031E-009  0.9518282E+02  0.7561462E-02  0.1290765E+00
         -2   -1    0    0    0  501 -0.00000000000E+00  0.00000000000E+00  0.18169848752E+03  0.18169848752E+03  0.00000000000E+00 0.  1.
          2   -1    0    0  501    0  0.00000000000E+00 -0.00000000000E+00 -0.74257753436E+02  0.74257753436E+02  0.00000000000E+00 0. -1.
         25    2    1    2    0    0  0.99856954272E+01 -0.71678420248E+01  0.10567078973E+03  0.16420755849E+03  0.12508682740E+03 0.  0.
          5    1    3    3  502    0 -0.39563509468E+02 -0.24454059603E+02  0.10110153661E+03  0.11136545881E+03  0.41800000000E+01 0.  1.
         -5    1    3    3    0  502  0.49549204895E+02  0.17286217578E+02  0.45692531252E+01  0.52842099675E+02  0.41800000000E+01 0.  1.
        -11    1    1    2    0    0 -0.41441465316E+02  0.30837931172E+02 -0.46370067200E+01  0.51864003681E+02  0.00000000000E+00 0. -1.
         11    1    1    2    0    0  0.31455769889E+02 -0.23670089147E+02  0.64069510672E+01  0.39884678782E+02  0.00000000000E+00 0.  1.
</event>
<event>
 7    1  0.2618166E-009  0.1103336E+03  0.7561462E-02  0.1259953E+00
          1   -1    0    0  501    0  0.00000000000E+00  0.00000000000E+00  0.15730655422E+04  0.15730655422E+04  0.00000000000E+00 0. -1.
         -1   -1    0    0    0  501 -0.00000000000E+00 -0.00000000000E+00 -0.89584623921E+01  0.89584623921E+01  0.00000000000E+00 0.  1.
         25    2    1    2    0    0  0.12875868898E+02  0.15806460019E+02  0.11674964749E+04  0.11743554561E+04  0.12508831422E+03 0.  0.
          5    1    3    3  502    0  0.51245255076E+02  0.52445557142E+02  0.65667697911E+03  0.66077132196E+03  0.41800000000E+01 0. -1.
         -5    1    3    3    0  502 -0.38369386178E+02 -0.36639097122E+02  0.51081949575E+03  0.51358413417E+03  0.41800000000E+01 0. -1.
        -11    1    1    2    0    0  0.14441513474E+02 -0.48960995775E+02  0.19904435431E+03  0.20548574501E+03  0.00000000000E+00 0.  1.
         11    1    1    2    0    0 -0.27317382372E+02  0.33154535756E+02  0.19756625060E+03  0.20218280342E+03  0.00000000000E+00 0. -1.
</event>
<event>
 7    1  0.2601031E-009  0.1316405E+03  0.7561462E-02  0.1225042E+00
          2   -1    0    0  501    0  0.00000000000E+00  0.00000000000E+00  0.20112794020E+03  0.20112794020E+03  0.00000000000E+00 0. -1.
         -2   -1    0    0    0  501 -0.00000000000E+00 -0.00000000000E+00 -0.18227591075E+03  0.18227591075E+03  0.00000000000E+00 0.  1.
         25    2    1    2    0    0  0.65040992542E+02 -0.78594764588E+02 -0.10781551980E+03  0.19411191708E+03  0.12509109605E+03 0.  0.
          5    1    3    3  502    0  0.87791581535E+02 -0.97027844990E+02 -0.79496509348E+02  0.15316308919E+03  0.41800000000E+01 0. -1.
         -5    1    3    3    0  502 -0.22750588993E+02  0.18433080402E+02 -0.28319010452E+02  0.40948827890E+02  0.41800000000E+01 0. -1.
        -11    1    1    2    0    0 -0.42540185100E+02  0.60252848860E+02  0.16789284360E+02  0.75643593340E+02  0.00000000000E+00 0.  1.
         11    1    1    2    0    0 -0.22500807442E+02  0.18341915728E+02  0.10987826489E+03  0.11364834052E+03  0.00000000000E+00 0. -1.
</event>
<event>
 7    1  0.2601031E-009  0.1088816E+03  0.7561462E-02  0.1262655E+00
         -1   -1    0    0    0  501 -0.00000000000E+00  0.00000000000E+00  0.69580885399E+03  0.69580885399E+03  0.00000000000E+00 0.  1.
          1   -1    0    0  501    0  0.00000000000E+00 -0.00000000000E+00 -0.20907173365E+02  0.20907173365E+02  0.00000000000E+00 0. -1.
         25    2    1    2    0    0 -0.40615450809E+02  0.31857445871E+02  0.40998566295E+03  0.43173879706E+03  0.12508250622E+03 0.  0.
          5    1    3    3  502    0  0.43843567716E+02 -0.21767323703E+00  0.11269695095E+03  0.12099744198E+03  0.41800000000E+01 0. -1.
         -5    1    3    3    0  502 -0.84459018526E+02  0.32075119108E+02  0.29728871200E+03  0.31074135508E+03  0.41800000000E+01 0. -1.
        -11    1    1    2    0    0  0.12642857142E+02  0.20403400386E+02  0.15403542248E+02  0.28520338319E+02  0.00000000000E+00 0. -1.
         11    1    1    2    0    0  0.27972593667E+02 -0.52260846258E+02  0.24951247543E+03  0.25645689198E+03  0.00000000000E+00 0.  1.
</event>
<event>
 7    1  0.2601031E-009  0.1669155E+03  0.7561462E-02  0.1181103E+00
          1   -1    0    0  501    0  0.00000000000E+00  0.00000000000E+00  0.95837550859E+02  0.95837550859E+02  0.00000000000E+00 0. -1.
         -1   -1    0    0    0  501 -0.00000000000E+00 -0.00000000000E+00 -0.36089766101E+03  0.36089766101E+03  0.00000000000E+00 0.  1.
         25    2    1    2    0    0 -0.36763877844E+01  0.14320407244E+03 -0.21860814197E+03  0.28975564410E+03  0.12509153193E+03 0.  0.
          5    1    3    3  502    0 -0.39500975783E+02 -0.24759413955E+01 -0.52693949099E+02  0.66034703341E+02  0.41800000000E+01 0. -1.
         -5    1    3    3    0  502  0.35824587999E+02  0.14568001384E+03 -0.16591419287E+03  0.22372094075E+03  0.41800000000E+01 0. -1.
        -11    1    1    2    0    0  0.64138801578E+01 -0.28314885413E+02 -0.43153395526E+02  0.52010442606E+02  0.00000000000E+00 0.  1.
         11    1    1    2    0    0 -0.27374923735E+01 -0.11488918703E+03 -0.32985726593E+01  0.11496912517E+03  0.00000000000E+00 0. -1.
</event>
<event>
 7    1  0.3390757E-009  0.9277151E+02  0.7561462E-02  0.1296276E+00
          1   -1    0    0  501    0  0.00000000000E+00  0.00000000000E+00  0.61015738449E+03  0.61015738449E+03  0.00000000000E+00 0. -1.
         -1   -1    0    0    0  501 -0.00000000000E+00 -0.00000000000E+00 -0.25167657100E+02  0.25167657100E+02  0.00000000000E+00 0.  1.
         25    2    1    2    0    0  0.54427878047E+01 -0.50135897363E+02  0.41028043665E+03  0.43188206907E+03  0.12509537458E+03 0.  0.
          5    1    3    3  502    0 -0.40700038762E+02  0.10035779211E+02  0.59058934081E+02  0.72544056368E+02  0.41800000000E+01 0. -1.
         -5    1    3    3    0  502  0.46142826566E+02 -0.60171676574E+02  0.35122150257E+03  0.35933801270E+03  0.41800000000E+01 0. -1.
        -11    1    1    2    0    0  0.12509133100E+02  0.47752913851E+02  0.17827728959E+03  0.18498543503E+03  0.00000000000E+00 0. -1.
         11    1    1    2    0    0 -0.17951920905E+02  0.23829835121E+01 -0.35679988406E+01  0.18457537494E+02  0.00000000000E+00 0.  1.
</event>
<event>
 7    1  0.2601031E-009  0.1301997E+03  0.7561462E-02  0.1227160E+00
         -1   -1    0    0    0  501 -0.00000000000E+00  0.00000000000E+00  0.46819351527E+03  0.46819351527E+03  0.00000000000E+00 0.  1.
          1   -1    0    0  501    0  0.00000000000E+00 -0.00000000000E+00 -0.39225908668E+02  0.39225908668E+02  0.00000000000E+00 0. -1.
         25    2    1    2    0    0 -0.45914900967E+02 -0.65823512970E+02  0.25888733799E+03  0.29851332074E+03  0.12508651365E+03 0.  0.
          5    1    3    3  502    0 -0.61226978963E+02 -0.95490182223E+02  0.18070300983E+03  0.21339673853E+03  0.41800000000E+01 0. -1.
         -5    1    3    3    0  502  0.15312077996E+02  0.29666669253E+02  0.78184328159E+02  0.85116582208E+02  0.41800000000E+01 0. -1.
        -11    1    1    2    0    0 -0.19168505028E+02 -0.19651037463E+01  0.66504513334E+01  0.20384349896E+02  0.00000000000E+00 0. -1.
         11    1    1    2    0    0  0.65083405994E+02  0.67788616716E+02  0.16342981728E+03  0.18852175330E+03  0.00000000000E+00 0.  1.
</event>
<event>
 7    1  0.2601031E-009  0.9825746E+02  0.7561462E-02  0.1284004E+00
          2   -1    0    0  501    0  0.00000000000E+00  0.00000000000E+00  0.49233006614E+03  0.49233006614E+03  0.00000000000E+00 0.  1.
         -2   -1    0    0    0  501 -0.00000000000E+00 -0.00000000000E+00 -0.27396465648E+02  0.27396465648E+02  0.00000000000E+00 0. -1.
         25    2    1    2    0    0  0.16750355822E+02 -0.34079597700E+02  0.30440582470E+03  0.33128884897E+03  0.12508957566E+03 0.  0.
          5    1    3    3  502    0  0.45497461470E+02 -0.70429775078E+02  0.20536616272E+03  0.22186280763E+03  0.41800000000E+01 0. -1.
         -5    1    3    3    0  502 -0.28747105648E+02  0.36350177377E+02  0.99039661986E+02  0.10942604135E+03  0.41800000000E+01 0. -1.
        -11    1    1    2    0    0 -0.35647586385E+02  0.13568702217E+02  0.15548654556E+03  0.16009661441E+03  0.00000000000E+00 0.  1.
         11    1    1    2    0    0  0.18897230563E+02  0.20510895483E+02  0.50412302327E+01  0.28341068412E+02  0.00000000000E+00 0. -1.
</event>
<event>
 7    1  0.2770447E-009  0.1902025E+03  0.7561462E-02  0.1158279E+00
          1   -1    0    0  501    0  0.00000000000E+00  0.00000000000E+00  0.12935152517E+04  0.12935152517E+04  0.00000000000E+00 0. -1.
         -1   -1    0    0    0  501 -0.00000000000E+00 -0.00000000000E+00 -0.28894293380E+02  0.28894293380E+02  0.00000000000E+00 0.  1.
         25    2    1    2    0    0  0.68857479190E+02  0.14362834421E+03  0.70119435140E+03  0.72985658317E+03  0.12508660943E+03 0.  0.
          5    1    3    3  502    0 -0.27635674991E+02  0.49661293901E+01  0.17228952088E+03  0.17461255505E+03  0.41800000000E+01 0.  1.
         -5    1    3    3    0  502  0.96493154181E+02  0.13866221482E+03  0.52890483052E+03  0.55524402812E+03  0.41800000000E+01 0.  1.
        -11    1    1    2    0    0  0.20852602410E+02 -0.45659301349E+02  0.13644976717E+03  0.14538962064E+03  0.00000000000E+00 0.  1.
         11    1    1    2    0    0 -0.89710081600E+02 -0.97969042863E+02  0.42697683974E+03  0.44716334127E+03  0.00000000000E+00 0. -1.
</event>
<event>
 7    1  0.2601031E-009  0.2663611E+03  0.7561462E-02  0.1103380E+00
         -1   -1    0    0    0  501 -0.00000000000E+00  0.00000000000E+00  0.22468200603E+03  0.22468200603E+03  0.00000000000E+00 0.  1.
          1   -1    0    0  501    0  0.00000000000E+00 -0.00000000000E+00 -0.31980940052E+03  0.31980940052E+03  0.00000000000E+00 0. -1.
         25    2    1    2    0    0  0.10755542604E+03 -0.21989362585E+03 -0.52521746929E+02  0.27987115663E+03  0.12509178250E+03 0.  0.
          5    1    3    3  502    0  0.12076256027E+03 -0.11381191707E+03 -0.47991274631E+02  0.17279289126E+03  0.41800000000E+01 0. -1.
         -5    1    3    3    0  502 -0.13207134230E+02 -0.10608170879E+03 -0.45304722981E+01  0.10707826536E+03  0.41800000000E+01 0. -1.
        -11    1    1    2    0    0  0.14762283503E+02  0.35755518321E+02 -0.16379075408E+02  0.42007811367E+02  0.00000000000E+00 0. -1.
         11    1    1    2    0    0 -0.12231770955E+03  0.18413810753E+03 -0.26226572145E+02  0.22261243856E+03  0.00000000000E+00 0.  1.
</event>
<event>
 7    1  0.2601031E-009  0.9142523E+02  0.7561462E-02  0.1299437E+00
         -2   -1    0    0    0  501 -0.00000000000E+00  0.00000000000E+00  0.47594822888E+02  0.47594822888E+02  0.00000000000E+00 0.  1.
          2   -1    0    0  501    0  0.00000000000E+00 -0.00000000000E+00 -0.42236644792E+03  0.42236644792E+03  0.00000000000E+00 0. -1.
         25    2    1    2    0    0 -0.53914614139E+02 -0.23965756414E+02 -0.89526046349E+02  0.16475525336E+03  0.12509291521E+03 0.  0.
          5    1    3    3  502    0 -0.64312666803E+02 -0.35344085892E+02 -0.11393398186E+03  0.13558668128E+03  0.41800000000E+01 0.  1.
         -5    1    3    3    0  502  0.10398052664E+02  0.11378329477E+02  0.24407935511E+02  0.29168572074E+02  0.41800000000E+01 0.  1.
        -11    1    1    2    0    0  0.26826706061E+02  0.49403113172E+02 -0.24079025553E+03  0.24726562015E+03  0.00000000000E+00 0.  1.
         11    1    1    2    0    0  0.27087908078E+02 -0.25437356758E+02 -0.44455323149E+02  0.57940397299E+02  0.00000000000E+00 0. -1.
</event>
<event>
 7    1  0.2601031E-009  0.1028653E+03  0.7561462E-02  0.1274383E+00
         -1   -1    0    0    0  501 -0.00000000000E+00  0.00000000000E+00  0.14101265931E+03  0.14101265931E+03  0.00000000000E+00 0.  1.
          1   -1    0    0  501    0  0.00000000000E+00 -0.00000000000E+00 -0.28827592504E+03  0.28827592504E+03  0.00000000000E+00 0. -1.
         25    2    1    2    0    0 -0.13470053008E+02  0.26038540190E+02 -0.25733232783E+03  0.28762251323E+03  0.12508930916E+03 0.  0.
          5    1    3    3  502    0  0.34812620443E+02 -0.29025005283E+02 -0.15614621683E+03  0.16264526708E+03  0.41800000000E+01 0. -1.
         -5    1    3    3    0  502 -0.48282673450E+02  0.55063545472E+02 -0.10118611100E+03  0.12497724615E+03  0.41800000000E+01 0. -1.
        -11    1    1    2    0    0  0.25881633483E+02 -0.51999646464E+02  0.87826525757E+02  0.10529634757E+03  0.00000000000E+00 0.  1.
         11    1    1    2    0    0 -0.12411580475E+02  0.25961106274E+02  0.22242536338E+02  0.36369723557E+02  0.00000000000E+00 0. -1.
</event>
<event>
 7    1  0.2601031E-009  0.2088517E+03  0.7561462E-02  0.1142479E+00
          1   -1    0    0  501    0  0.00000000000E+00  0.00000000000E+00  0.82786905728E+03  0.82786905728E+03  0.00000000000E+00 0. -1.
         -1   -1    0    0    0  501 -0.00000000000E+00 -0.00000000000E+00 -0.67967033550E+02  0.67967033550E+02  0.00000000000E+00 0.  1.
         25    2    1    2    0    0  0.88911325493E+02  0.16394396085E+03  0.57731721761E+03  0.61945602541E+03  0.12509097314E+03 0.  0.
          5    1    3    3  502    0  0.81988788451E+02  0.18437103636E+03  0.50364142955E+03  0.54257442111E+03  0.41800000000E+01 0. -1.
         -5    1    3    3    0  502  0.69225370428E+01 -0.20427075511E+02  0.73675788060E+02  0.76881604297E+02  0.41800000000E+01 0. -1.
        -11    1    1    2    0    0 -0.80258205193E+02 -0.94726371810E+02  0.16109911900E+03  0.20338975185E+03  0.00000000000E+00 0. -1.
         11    1    1    2    0    0 -0.86531203007E+01 -0.69217589042E+02  0.21485687117E+02  0.72990313567E+02  0.00000000000E+00 0.  1.
</event>
<event>
 7    1  0.2601031E-009  0.8739294E+02  0.7561462E-02  0.1309291E+00
         -1   -1    0    0    0  501 -0.00000000000E+00  0.00000000000E+00  0.51506154642E+02  0.51506154642E+02  0.00000000000E+00 0.  1.
          1   -1    0    0  501    0  0.00000000000E+00 -0.00000000000E+00 -0.28657188069E+03  0.28657188069E+03  0.00000000000E+00 0. -1.
         25    2    1    2    0    0 -0.17692102611E+02  0.46869301776E+02 -0.15820316082E+03  0.20780923432E+03  0.12508675322E+03 0.  0.
          5    1    3    3  502    0  0.22693134308E+02  0.55658262970E+02 -0.15481915066E+03  0.16613025731E+03  0.41800000000E+01 0.  1.
         -5    1    3    3    0  502 -0.40385236919E+02 -0.87889611936E+01 -0.33840101563E+01  0.41678977010E+02  0.41800000000E+01 0.  1.
        -11    1    1    2    0    0  0.19176321404E+02  0.60072326267E+01 -0.74669203899E+02  0.77325986300E+02  0.00000000000E+00 0. -1.
         11    1    1    2    0    0 -0.14842187931E+01 -0.52876534403E+02 -0.21933613298E+01  0.52942814713E+02  0.00000000000E+00 0.  1.
</event>
<event>
 7    1  0.2601031E-009  0.2418701E+03  0.7561462E-02  0.1118553E+00
          2   -1    0    0  501    0  0.00000000000E+00  0.00000000000E+00  0.80197898783E+03  0.80197898783E+03  0.00000000000E+00 0.  1.
         -2   -1    0    0    0  501 -0.00000000000E+00 -0.00000000000E+00 -0.13118384048E+03  0.13118384048E+03  0.00000000000E+00 0. -1.
         25    2    1    2    0    0 -0.14097586253E+03 -0.16724792019E+03  0.64758244074E+03  0.69487828302E+03  0.12508696991E+03 0.  0.
          5    1    3    3  502    0 -0.24554831648E+02 -0.11750806618E+03  0.38566557452E+03  0.40393872450E+03  0.41800000000E+01 0.  1.
         -5    1    3    3    0  502 -0.11642103088E+03 -0.49739854005E+02  0.26191686621E+03  0.29093955853E+03  0.41800000000E+01 0.  1.
        -11    1    1    2    0    0  0.13090186746E+02  0.82502857359E+02  0.12867887017E+02  0.84520157227E+02  0.00000000000E+00 0.  1.
         11    1    1    2    0    0  0.12788567578E+03  0.84745062829E+02  0.10344819595E+02  0.15376438807E+03  0.00000000000E+00 0. -1.
</event>
<event>
 7    1  0.2601031E-009  0.1559929E+03  0.7561462E-02  0.1193296E+00
         -2   -1    0    0    0  501 -0.00000000000E+00  0.00000000000E+00  0.72845112617E+02  0.72845112617E+02  0.00000000000E+00 0.  1.
          2   -1    0    0  501    0  0.00000000000E+00 -0.00000000000E+00 -0.50172506861E+03  0.50172506861E+03  0.00000000000E+00 0. -1.
         25    2    1    2    0    0 -0.79852230038E+01  0.13024671501E+03 -0.93989709431E+02  0.20373924000E+03  0.12509053473E+03 0.  0.
          5    1    3    3  502    0 -0.17712686244E+02  0.15119085656E+03 -0.96270169597E+02  0.18016057370E+03  0.41800000000E+01 0. -1.
         -5    1    3    3    0  502  0.97274632399E+01 -0.20944141543E+02  0.22804601659E+01  0.23578666303E+02  0.41800000000E+01 0. -1.
        -11    1    1    2    0    0  0.19383735028E+02 -0.32612858924E+02 -0.24291309318E+02  0.45048811962E+02  0.00000000000E+00 0.  1.
         11    1    1    2    0    0 -0.11398512024E+02 -0.97633856091E+02 -0.31059893725E+03  0.32578212927E+03  0.00000000000E+00 0. -1.
</event>
<event>
 7    1  0.2601031E-009  0.8007394E+02  0.7561462E-02  0.1328842E+00
         -1   -1    0    0    0  501 -0.00000000000E+00  0.00000000000E+00  0.26699212483E+03  0.26699212483E+03  0.00000000000E+00 0.  1.
          1   -1    0    0  501    0  0.00000000000E+00 -0.00000000000E+00 -0.45259333141E+02  0.45259333141E+02  0.00000000000E+00 0. -1.
         25    2    1    2    0    0 -0.89633435241E+01 -0.45925623762E+00  0.11764156430E+03  0.17195243557E+03  0.12509016750E+03 0.  0.
          5    1    3    3  502    0  0.32653198232E+00  0.44885668140E+02 -0.40900993226E+00  0.45082918236E+02  0.41800000000E+01 0. -1.
         -5    1    3    3    0  502 -0.92898755064E+01 -0.45344924378E+02  0.11805057423E+03  0.12686951734E+03  0.41800000000E+01 0. -1.
        -11    1    1    2    0    0 -0.15252533138E+02 -0.27596153970E+02  0.18919547414E+01  0.31587449625E+02  0.00000000000E+00 0. -1.
         11    1    1    2    0    0  0.24215876662E+02  0.28055410207E+02  0.10219927265E+03  0.10871157277E+03  0.00000000000E+00 0.  1.
</event>
<event>
 7    1  0.2601031E-009  0.1400664E+03  0.7561462E-02  0.1213240E+00
         -1   -1    0    0    0  501 -0.00000000000E+00  0.00000000000E+00  0.88568125715E+02  0.88568125715E+02  0.00000000000E+00 0.  1.
          1   -1    0    0  501    0  0.00000000000E+00 -0.00000000000E+00 -0.51222607343E+03  0.51222607343E+03  0.00000000000E+00 0. -1.
         25    2    1    2    0    0 -0.46615997670E+02  0.13062734995E+03 -0.38870715430E+03  0.43125025690E+03  0.12508787503E+03 0.  0.
          5    1    3    3  502    0 -0.48824599730E+02  0.11264173687E+03 -0.39334857716E+03  0.41208321730E+03  0.41800000000E+01 0.  1.
         -5    1    3    3    0  502  0.22086020604E+01  0.17985613085E+02  0.46414228610E+01  0.19167039606E+02  0.41800000000E+01 0.  1.
        -11    1    1    2    0    0  0.58338917927E+01 -0.15802299532E+02  0.27783291543E+02  0.32490894924E+02  0.00000000000E+00 0.  1.
         11    1    1    2    0    0  0.40782105877E+02 -0.11482505042E+03 -0.62734084963E+02  0.13705304732E+03  0.00000000000E+00 0. -1.
</event>
<event>
 7    1  0.2601031E-009  0.1556064E+03  0.7561462E-02  0.1193748E+00
         -2   -1    0    0    0  501 -0.00000000000E+00  0.00000000000E+00  0.73828408129E+02  0.73828408129E+02  0.00000000000E+00 0.  1.
          2   -1    0    0  501    0  0.00000000000E+00 -0.00000000000E+00 -0.64807665067E+03  0.64807665067E+03  0.00000000000E+00 0. -1.
         25    2    1    2    0    0 -0.11388083994E+03  0.59821943192E+02 -0.68257308930E+02  0.19197548223E+03  0.12509202597E+03 0.  0.
          5    1    3    3  502    0 -0.12750662132E+03  0.58276198107E+02 -0.20049287689E+02  0.14168097996E+03  0.41800000000E+01 0. -1.
         -5    1    3    3    0  502  0.13625781377E+02  0.15457450846E+01 -0.48208021241E+02  0.50294502264E+02  0.41800000000E+01 0. -1.
        -11    1    1    2    0    0  0.96487368538E+02 -0.22866317185E+01 -0.28435741844E+03  0.30029016367E+03  0.00000000000E+00 0.  1.
         11    1    1    2    0    0  0.17393471405E+02 -0.57535311473E+02 -0.22163351517E+03  0.22963941291E+03  0.00000000000E+00 0. -1.
</event>
<event>
 7    1  0.2601031E-009  0.9502474E+02  0.7561462E-02  0.1291120E+00
          1   -1    0    0  501    0  0.00000000000E+00  0.00000000000E+00  0.36687612406E+02  0.36687612406E+02  0.00000000000E+00 0. -1.
         -1   -1    0    0    0  501 -0.00000000000E+00 -0.00000000000E+00 -0.34188729491E+03  0.34188729491E+03  0.00000000000E+00 0.  1.
         25    2    1    2    0    0  0.81722748108E+01  0.33934162007E+01 -0.22165038655E+03  0.25466655570E+03  0.12509140412E+03 0.  0.
          5    1    3    3  502    0  0.22775381857E+02 -0.43918686054E+02 -0.33082684982E+02  0.59661591070E+02  0.41800000000E+01 0. -1.
         -5    1    3    3    0  502 -0.14603107046E+02  0.47312102255E+02 -0.18856770157E+03  0.19500496463E+03  0.41800000000E+01 0. -1.
        -11    1    1    2    0    0  0.25514132317E+02 -0.35803078736E+02 -0.48652291796E+02  0.65573446546E+02  0.00000000000E+00 0.  1.
         11    1    1    2    0    0 -0.33686407127E+02  0.32409662535E+02 -0.34897004163E+02  0.58334905077E+02  0.00000000000E+00 0. -1.
</event>
<event>
 7    1  0.2601031E-009  0.1090099E+03  0.7561462E-02  0.1262414E+00
         -1   -1    0    0    0  501 -0.00000000000E+00  0.00000000000E+00  0.87906959101E+02  0.87906959101E+02  0.00000000000E+00 0.  1.
          1   -1    0    0  501    0  0.00000000000E+00 -0.00000000000E+00 -0.25167804125E+03  0.25167804125E+03  0.00000000000E+00 0. -1.
         25    2    1    2    0    0 -0.55359654173E+02  0.38329753537E+02 -0.23681600041E+01  0.14206617710E+03  0.12507329522E+03 0.  0.
          5    1    3    3  502    0  0.18671661273E+02  0.51242211910E+02  0.27339892889E+02  0.61150121498E+02  0.41800000000E+01 0.  1.
         -5    1    3    3    0  502 -0.74031315446E+02 -0.12912458372E+02 -0.29708052893E+02  0.80916055604E+02  0.41800000000E+01 0.  1.
        -11    1    1    2    0    0  0.63912181929E+02 -0.18616804705E+02 -0.47927636425E+02  0.82026890406E+02  0.00000000000E+00 0.  1.
         11    1    1    2    0    0 -0.85525277559E+01 -0.19712948833E+02 -0.11347528572E+03  0.11549193284E+03  0.00000000000E+00 0. -1.
</event>
<event>
 7    1  0.2601031E-009  0.1590232E+03  0.7561462E-02  0.1189804E+00
         -1   -1    0    0    0  501 -0.00000000000E+00  0.00000000000E+00  0.46262400119E+03  0.46262400119E+03  0.00000000000E+00 0.  1.
          1   -1    0    0  501    0  0.00000000000E+00 -0.00000000000E+00 -0.57610128548E+02  0.57610128548E+02  0.00000000000E+00 0. -1.
         25    2    1    2    0    0  0.31913618717E+02 -0.11184369601E+03  0.22919093747E+03  0.28583816043E+03  0.12508987467E+03 0.  0.
          5    1    3    3  502    0  0.75066054094E+02 -0.48515046310E+02  0.15569966873E+03  0.17957862189E+03  0.41800000000E+01 0. -1.
         -5    1    3    3    0  502 -0.43152435377E+02 -0.63328649696E+02  0.73491268733E+02  0.10625953854E+03  0.41800000000E+01 0. -1.
        -11    1    1    2    0    0  0.34306418120E+02  0.24236629051E+02  0.71500328193E+02  0.82925517446E+02  0.00000000000E+00 0.  1.
         11    1    1    2    0    0 -0.66220036837E+02  0.87607066956E+02  0.10432260698E+03  0.15147045186E+03  0.00000000000E+00 0. -1.
</event>
<event>
 7    1  0.2601031E-009  0.2266330E+03  0.7561462E-02  0.1129032E+00
          2   -1    0    0  501    0  0.00000000000E+00  0.00000000000E+00  0.90269660579E+03  0.90269660579E+03  0.00000000000E+00 0. -1.
         -2   -1    0    0    0  501 -0.00000000000E+00 -0.00000000000E+00 -0.57582204333E+02  0.57582204333E+02  0.00000000000E+00 0.  1.
         25    2    1    2    0    0 -0.37240781869E+02 -0.19938383693E+03  0.40883502362E+03  0.47321691466E+03  0.12508949404E+03 0.  0.
          5    1    3    3  502    0  0.45842389231E+02 -0.56312156105E+02  0.13019734848E+03  0.14913552738E+03  0.41800000000E+01 0.  1.
         -5    1    3    3    0  502 -0.83083171100E+02 -0.14307168083E+03  0.27863767513E+03  0.32408138728E+03  0.41800000000E+01 0.  1.
        -11    1    1    2    0    0 -0.90100226813E+01  0.13740896340E+03  0.30606583900E+03  0.33561689698E+03  0.00000000000E+00 0. -1.
         11    1    1    2    0    0  0.46250804551E+02  0.61974873530E+02  0.13021353884E+03  0.15144499849E+03  0.00000000000E+00 0.  1.
</event>
<event>
 7    1  0.2616217E-009  0.1396024E+03  0.7561462E-02  0.1213865E+00
          2   -1    0    0  501    0  0.00000000000E+00  0.00000000000E+00  0.88238394502E+03  0.88238394502E+03  0.00000000000E+00 0. -1.
         -2   -1    0    0    0  501 -0.00000000000E+00 -0.00000000000E+00 -0.28360285314E+02  0.28360285314E+02  0.00000000000E+00 0.  1.
         25    2    1    2    0    0  0.82252653603E+02 -0.47602774950E+02  0.64091481497E+03  0.65988496750E+03  0.12507936312E+03 0.  0.
          5    1    3    3  502    0 -0.25515380961E+02 -0.40967480315E+02  0.22574357902E+03  0.23088309808E+03  0.41800000000E+01 0. -1.
         -5    1    3    3    0  502  0.10776803456E+03 -0.66352946349E+01  0.41517123595E+03  0.42900186942E+03  0.41800000000E+01 0. -1.
        -11    1    1    2    0    0 -0.23170819400E+02  0.58236212868E+02  0.61552277432E+02  0.87846606184E+02  0.00000000000E+00 0.  1.
         11    1    1    2    0    0 -0.59081834203E+02 -0.10633437918E+02  0.15155656730E+03  0.16301265665E+03  0.00000000000E+00 0. -1.
</event>
<event>
 7    1  0.2601031E-009  0.1224749E+03  0.7561462E-02  0.1239069E+00
         -1   -1    0    0    0  501 -0.00000000000E+00  0.00000000000E+00  0.77290992211E+02  0.77290992211E+02  0.00000000000E+00 0.  1.
          1   -1    0    0  501    0  0.00000000000E+00 -0.00000000000E+00 -0.27985197150E+03  0.27985197150E+03  0.00000000000E+00 0. -1.
         25    2    1    2    0    0 -0.42005943913E+02  0.80210925785E+02 -0.58025567588E+02  0.16495915502E+03  0.12508502864E+03 0.  0.
          5    1    3    3  502    0  0.70563562176E+01  0.71696286354E+02 -0.82255457834E+02  0.10942386569E+03  0.41800000000E+01 0. -1.
         -5    1    3    3    0  502 -0.49062300131E+02  0.85146394312E+01  0.24229890245E+02  0.55535289322E+02  0.41800000000E+01 0. -1.
        -11    1    1    2    0    0 -0.37069126504E+01 -0.76892715977E+02 -0.66709002660E+02  0.10186423321E+03  0.00000000000E+00 0. -1.
         11    1    1    2    0    0  0.45712856563E+02 -0.33182098084E+01 -0.77826409042E+02  0.90319575486E+02  0.00000000000E+00 0.  1.
</event>
<event>
 7    1  0.2601031E-009  0.1255190E+03  0.7561462E-02  0.1234260E+00
         -1   -1    0    0    0  501 -0.00000000000E+00  0.00000000000E+00  0.50711117099E+03  0.50711117099E+03  0.00000000000E+00 0.  1.
          1   -1    0    0  501    0  0.00000000000E+00 -0.00000000000E+00 -0.47787191169E+02  0.47787191169E+02  0.00000000000E+00 0. -1.
         25    2    1    2    0    0 -0.36220466923E+02  0.10342383198E+03  0.29604660079E+03  0.33955428290E+03  0.12508041393E+03 0.  0.
          5    1    3    3  502    0 -0.54386285228E+02  0.28054689651E+02  0.22867548793E+03  0.23675912825E+03  0.41800000000E+01 0. -1.
         -5    1    3    3    0  502  0.18165818304E+02  0.75369142331E+02  0.67371112860E+02  0.10279515464E+03  0.41800000000E+01 0. -1.
        -11    1    1    2    0    0  0.96343057582E+01 -0.62632463229E+02  0.23933314462E+02  0.67738090014E+02  0.00000000000E+00 0. -1.
         11    1    1    2    0    0  0.26586161165E+02 -0.40791368754E+02  0.13934406457E+03  0.14760598925E+03  0.00000000000E+00 0.  1.
</event>
<event>
 7    1  0.2601031E-009  0.1246866E+03  0.7561462E-02  0.1235560E+00
         -2   -1    0    0    0  501 -0.00000000000E+00  0.00000000000E+00  0.35980345714E+02  0.35980345714E+02  0.00000000000E+00 0.  1.
          2   -1    0    0  501    0  0.00000000000E+00 -0.00000000000E+00 -0.52670290812E+03  0.52670290812E+03  0.00000000000E+00 0. -1.
         25    2    1    2    0    0  0.64273936013E+02  0.26395978138E+02 -0.17154387018E+03  0.22338886307E+03  0.12508956085E+03 0.  0.
          5    1    3    3  502    0  0.78851522739E+02  0.63768215154E+02 -0.10871878371E+03  0.14873195431E+03  0.41800000000E+01 0.  1.
         -5    1    3    3    0  502 -0.14577586726E+02 -0.37372237016E+02 -0.62825086478E+02  0.74656908758E+02  0.41800000000E+01 0.  1.
        -11    1    1    2    0    0 -0.59544726654E+01 -0.45721349795E+02 -0.79852154152E+02  0.92207722531E+02  0.00000000000E+00 0.  1.
         11    1    1    2    0    0 -0.58319463348E+02  0.19325371656E+02 -0.23932653807E+03  0.24708666824E+03  0.00000000000E+00 0. -1.
</event>
<event>
 7    1  0.2601031E-009  0.9869483E+02  0.7561462E-02  0.1283065E+00
         -2   -1    0    0    0  501 -0.00000000000E+00  0.00000000000E+00  0.25050560888E+03  0.25050560888E+03  0.00000000000E+00 0.  1.
          2   -1    0    0  501    0  0.00000000000E+00 -0.00000000000E+00 -0.59594924874E+02  0.59594924874E+02  0.00000000000E+00 0. -1.
         25    2    1    2    0    0 -0.15519247201E+02 -0.54354238332E+01  0.16606834596E+03  0.20855777150E+03  0.12508899895E+03 0.  0.
          5    1    3    3  502    0 -0.22608425188E+02 -0.55877841583E+02  0.13706518977E+03  0.14979256563E+03  0.41800000000E+01 0. -1.
         -5    1    3    3    0  502  0.70891779877E+01  0.50442417750E+02  0.29003156189E+02  0.58765205878E+02  0.41800000000E+01 0. -1.
        -11    1    1    2    0    0 -0.34591964371E+02  0.86040599484E+01  0.35395768992E+02  0.50234393688E+02  0.00000000000E+00 0.  1.
         11    1    1    2    0    0  0.50111211572E+02 -0.31686361152E+01 -0.10553430945E+02  0.51308368564E+02  0.00000000000E+00 0. -1.
</event>
<event>
 7    1  0.2601031E-009  0.1397664E+03  0.7561462E-02  0.1213644E+00
          2   -1    0    0  501    0  0.00000000000E+00  0.00000000000E+00  0.38367504340E+03  0.38367504340E+03  0.00000000000E+00 0. -1.
         -2   -1    0    0    0  501 -0.00000000000E+00 -0.00000000000E+00 -0.59313964293E+02  0.59313964293E+02  0.00000000000E+00 0.  1.
         25    2    1    2    0    0 -0.63980433611E+02 -0.82537914521E+02  0.18119903475E+03  0.24369343480E+03  0.12508955494E+03 0.  0.
          5    1    3    3  502    0  0.31696841883E+01  0.23153468287E+02  0.42168556370E+00  0.23744056314E+02  0.41800000000E+01 0.  1.
         -5    1    3    3    0  502 -0.67150117799E+02 -0.10569138281E+03  0.18077734918E+03  0.21994937849E+03  0.41800000000E+01 0.  1.
        -11    1    1    2    0    0 -0.18489042336E+02  0.12630035653E+02  0.34766809377E+01  0.22659430651E+02  0.00000000000E+00 0.  1.
         11    1    1    2    0    0  0.82469475947E+02  0.69907878868E+02  0.13968536342E+03  0.17663614224E+03  0.00000000000E+00 0. -1.
</event>
<event>
 7    1  0.2601031E-009  0.1314858E+03  0.7561462E-02  0.1225268E+00
          2   -1    0    0  501    0  0.00000000000E+00  0.00000000000E+00  0.22026766155E+03  0.22026766155E+03  0.00000000000E+00 0. -1.
         -2   -1    0    0    0  501 -0.00000000000E+00 -0.00000000000E+00 -0.10332129208E+03  0.10332129208E+03  0.00000000000E+00 0.  1.
         25    2    1    2    0    0  0.89140203322E+02  0.53663005369E+02  0.49227131479E+02  0.16999500746E+03  0.12509715463E+03 0.  0.
          5    1    3    3  502    0  0.49236439262E+02  0.74788705188E+02  0.75841011647E+02  0.11741766827E+03  0.41800000000E+01 0.  1.
         -5    1    3    3    0  502  0.39903764059E+02 -0.21125699819E+02 -0.26613880168E+02  0.52577339192E+02  0.41800000000E+01 0.  1.
        -11    1    1    2    0    0 -0.76379887323E+02 -0.72452071059E+02  0.75538344319E+02  0.12957326596E+03  0.00000000000E+00 0. -1.
         11    1    1    2    0    0 -0.12760315999E+02  0.18789065690E+02 -0.78191063273E+01  0.24020680208E+02  0.00000000000E+00 0.  1.
</event>
<event>
 7    1  0.2601031E-009  0.8489422E+02  0.7561462E-02  0.1315709E+00
         -1   -1    0    0    0  501 -0.00000000000E+00  0.00000000000E+00  0.34215268771E+03  0.34215268771E+03  0.00000000000E+00 0.  1.
          1   -1    0    0  501    0  0.00000000000E+00 -0.00000000000E+00 -0.51078279880E+02  0.51078279880E+02  0.00000000000E+00 0. -1.
         25    2    1    2    0    0  0.72095724215E+02  0.22942089018E+02  0.16888710466E+03  0.22336886415E+03  0.12508661980E+03 0.  0.
          5    1    3    3  502    0  0.52616113589E+01 -0.70947098818E+01 -0.19159432788E+02  0.21507573716E+02  0.41800000000E+01 0. -1.
         -5    1    3    3    0  502  0.66834112856E+02  0.30036798900E+02  0.18804653745E+03  0.20186129043E+03  0.41800000000E+01 0. -1.
        -11    1    1    2    0    0 -0.49988098305E+02  0.58433949735E+01  0.12368847344E+03  0.13353573941E+03  0.00000000000E+00 0.  1.
         11    1    1    2    0    0 -0.22107625910E+02 -0.28785483992E+02 -0.15011702674E+01  0.36326364038E+02  0.00000000000E+00 0. -1.
</event>
<event>
 7    1  0.2601031E-009  0.1871367E+03  0.7561462E-02  0.1161069E+00
         -1   -1    0    0    0  501 -0.00000000000E+00  0.00000000000E+00  0.12501680181E+03  0.12501680181E+03  0.00000000000E+00 0.  1.
          1   -1    0    0  501    0  0.00000000000E+00 -0.00000000000E+00 -0.30676828351E+03  0.30676828351E+03  0.00000000000E+00 0. -1.
         25    2    1    2    0    0  0.81328060679E+02 -0.13566508262E+03 -0.54922445030E+02  0.20900575224E+03  0.12509061278E+03 0.  0.
          5    1    3    3  502    0  0.70222504485E+02 -0.15940977442E+03 -0.54104771352E+02  0.18244855439E+03  0.41800000000E+01 0.  1.
         -5    1    3    3    0  502  0.11105556194E+02  0.23744691801E+02 -0.81767367709E+00  0.26557197845E+02  0.41800000000E+01 0.  1.
        -11    1    1    2    0    0 -0.48597122167E+01  0.76882939208E+02 -0.92554191690E+02  0.12041960614E+03  0.00000000000E+00 0. -1.
         11    1    1    2    0    0 -0.76468348462E+02  0.58782143412E+02 -0.34274844984E+02  0.10235972694E+03  0.00000000000E+00 0.  1.
</event>
<event>
 7    1  0.3648558E-009  0.7457895E+02  0.7561462E-02  0.1345180E+00
          2   -1    0    0  501    0  0.00000000000E+00  0.00000000000E+00  0.59437362051E+03  0.59437362051E+03  0.00000000000E+00 0. -1.
         -2   -1    0    0    0  501 -0.00000000000E+00 -0.00000000000E+00 -0.26706025476E+02  0.26706025476E+02  0.00000000000E+00 0.  1.
         25    2    1    2    0    0  0.30055685595E+02 -0.51940525426E+02  0.37262147422E+03  0.39761234771E+03  0.12509058153E+03 0.  0.
          5    1    3    3  502    0  0.32875040653E+02 -0.62404781528E+02  0.88469262632E+02  0.11322282405E+03  0.41800000000E+01 0. -1.
         -5    1    3    3    0  502 -0.28193550578E+01  0.10464256102E+02  0.28415221158E+03  0.28438952366E+03  0.41800000000E+01 0. -1.
        -11    1    1    2    0    0 -0.17295480764E+02  0.46605717327E+01 -0.41105914333E+01  0.18378018002E+02  0.00000000000E+00 0.  1.
         11    1    1    2    0    0 -0.12760204831E+02  0.47279953693E+02  0.19915671225E+03  0.20508928027E+03  0.00000000000E+00 0. -1.
</event>
<event>
 7    1  0.2601031E-009  0.8466884E+02  0.7561462E-02  0.1316301E+00
         -1   -1    0    0    0  501 -0.00000000000E+00  0.00000000000E+00  0.62421373573E+02  0.62421373573E+02  0.00000000000E+00 0.  1.
          1   -1    0    0  501    0  0.00000000000E+00 -0.00000000000E+00 -0.25072283241E+03  0.25072283241E+03  0.00000000000E+00 0. -1.
         25    2    1    2    0    0 -0.45709816967E+02 -0.44002745228E+02 -0.10259998317E+03  0.17377202665E+03  0.12507730308E+03 0.  0.
          5    1    3    3  502    0  0.12904163975E+02 -0.23866215053E+01  0.24262252994E+02  0.27898794426E+02  0.41800000000E+01 0. -1.
         -5    1    3    3    0  502 -0.58613980941E+02 -0.41616123723E+02 -0.12686223616E+03  0.14587323223E+03  0.41800000000E+01 0. -1.
        -11    1    1    2    0    0  0.52543119800E+01 -0.12791471569E+02 -0.65258476823E+02  0.66707558316E+02  0.00000000000E+00 0. -1.
         11    1    1    2    0    0  0.40455504987E+02  0.56794216797E+02 -0.20442998841E+02  0.72664621013E+02  0.00000000000E+00 0.  1.
</event>
<event>
 7    1  0.2601031E-009  0.1769754E+03  0.7561462E-02  0.1170763E+00
          1   -1    0    0  501    0  0.00000000000E+00  0.00000000000E+00  0.44898751554E+03  0.44898751554E+03  0.00000000000E+00 0. -1.
         -1   -1    0    0    0  501 -0.00000000000E+00 -0.00000000000E+00 -0.78944586139E+02  0.78944586139E+02  0.00000000000E+00 0.  1.
         25    2    1    2    0    0  0.75342884826E+02  0.13388948599E+03  0.20212981880E+03  0.28303021135E+03  0.12508673845E+03 0.  0.
          5    1    3    3  502    0  0.70264441087E+01 -0.14402079833E+02 -0.67450015290E+01  0.17881785872E+02  0.41800000000E+01 0.  1.
         -5    1    3    3    0  502  0.68316440717E+02  0.14829156582E+03  0.20887482033E+03  0.26514842548E+03  0.41800000000E+01 0.  1.
        -11    1    1    2    0    0 -0.75501139454E+02 -0.50856311754E+02  0.11406277817E+03  0.14593527287E+03  0.00000000000E+00 0. -1.
         11    1    1    2    0    0  0.15825462838E+00 -0.83033174234E+02  0.53850332424E+02  0.98966617453E+02  0.00000000000E+00 0.  1.
</event>
<event>
 7    1  0.2601031E-009  0.2105267E+03  0.7561462E-02  0.1141150E+00
          2   -1    0    0  501    0  0.00000000000E+00  0.00000000000E+00  0.65523617444E+03  0.65523617444E+03  0.00000000000E+00 0. -1.
         -2   -1    0    0    0  501 -0.00000000000E+00 -0.00000000000E+00 -0.84429517635E+02  0.84429517635E+02  0.00000000000E+00 0.  1.
         25    2    1    2    0    0  0.38359767081E+01 -0.18853833644E+03  0.43114529967E+03  0.48692721685E+03  0.12510166287E+03 0.  0.
          5    1    3    3  502    0  0.14556830683E+02  0.78522114776E+01  0.53446193562E+01  0.17877245333E+02  0.41800000000E+01 0.  1.
         -5    1    3    3    0  502 -0.10720853975E+02 -0.19639054792E+03  0.42580068031E+03  0.46904997151E+03  0.41800000000E+01 0.  1.
        -11    1    1    2    0    0  0.41108364740E+02  0.93377964956E+02  0.46241324323E+02  0.11201607950E+03  0.00000000000E+00 0. -1.
         11    1    1    2    0    0 -0.44944341448E+02  0.95160371487E+02  0.93420032814E+02  0.14072239573E+03  0.00000000000E+00 0.  1.
</event>
<event>
 7    1  0.2601031E-009  0.1094036E+03  0.7561462E-02  0.1261678E+00
          1   -1    0    0  501    0  0.00000000000E+00  0.00000000000E+00  0.52049419076E+03  0.52049419076E+03  0.00000000000E+00 0. -1.
         -1   -1    0    0    0  501 -0.00000000000E+00 -0.00000000000E+00 -0.47932773817E+02  0.47932773817E+02  0.00000000000E+00 0.  1.
         25    2    1    2    0    0  0.10593687216E+03 -0.11587518282E+01  0.32656480388E+03  0.36539706577E+03  0.12508589429E+03 0.  0.
          5    1    3    3  502    0  0.38473486959E+02 -0.13446195320E+02  0.27863139467E+03  0.28162729957E+03  0.41800000000E+01 0. -1.
         -5    1    3    3    0  502  0.67463385200E+02  0.12287443491E+02  0.47933409206E+02  0.83769766194E+02  0.41800000000E+01 0. -1.
        -11    1    1    2    0    0 -0.21394691839E+02 -0.10435293394E+02  0.10626808166E+03  0.10890148469E+03  0.00000000000E+00 0. -1.
         11    1    1    2    0    0 -0.84542180319E+02  0.11594045222E+02  0.39728531401E+02  0.94128414121E+02  0.00000000000E+00 0.  1.
</event>
<event>
 7    1  0.2601031E-009  0.9577297E+02  0.7561462E-02  0.1289445E+00
         -1   -1    0    0    0  501 -0.00000000000E+00  0.00000000000E+00  0.82711828857E+02  0.82711828857E+02  0.00000000000E+00 0.  1.
          1   -1    0    0  501    0  0.00000000000E+00 -0.00000000000E+00 -0.26185444084E+03  0.26185444084E+03  0.00000000000E+00 0. -1.
         25    2    1    2    0    0 -0.34859315144E+02 -0.12145758258E+02 -0.20612387571E+03  0.24391630208E+03  0.12508164928E+03 0.  0.
          5    1    3    3  502    0  0.14013036994E+02  0.28793663683E+02 -0.16455289525E+03  0.16769188415E+03  0.41800000000E+01 0.  1.
         -5    1    3    3    0  502 -0.48872352139E+02 -0.40939421941E+02 -0.41570980461E+02  0.76224417931E+02  0.41800000000E+01 0.  1.
        -11    1    1    2    0    0  0.36703222442E+02  0.47461281317E+02  0.25680420915E+02  0.65262422421E+02  0.00000000000E+00 0.  1.
         11    1    1    2    0    0 -0.18439072973E+01 -0.35315523059E+02  0.13008428115E+01  0.35387545197E+02  0.00000000000E+00 0. -1.
</event>
<event>
 7    1  0.2601031E-009  0.1336449E+03  0.7561462E-02  0.1222145E+00
          1   -1    0    0  501    0  0.00000000000E+00  0.00000000000E+00  0.10663322994E+03  0.10663322994E+03  0.00000000000E+00 0. -1.
         -1   -1    0    0    0  501 -0.00000000000E+00 -0.00000000000E+00 -0.20395219661E+03  0.20395219661E+03  0.00000000000E+00 0.  1.
         25    2    1    2    0    0 -0.66788157758E+02  0.66296132422E+02 -0.18380451410E+02  0.15760994044E+03  0.12508883700E+03 0.  0.
          5    1    3    3  502    0 -0.96651734165E+02  0.17317290726E+02 -0.18949088888E+02  0.10008989282E+03  0.41800000000E+01 0.  1.
         -5    1    3    3    0  502  0.29863576406E+02  0.48978841696E+02  0.56863747819E+00  0.57520047621E+02  0.41800000000E+01 0.  1.
        -11    1    1    2    0    0  0.86895744251E+01 -0.50559324043E+02  0.29028232133E+01  0.51382685157E+02  0.00000000000E+00 0. -1.
         11    1    1    2    0    0  0.58098583333E+02 -0.15736808380E+02 -0.81841338471E+02  0.10159280096E+03  0.00000000000E+00 0.  1.
</event>
<event>
 7    1  0.2601031E-009  0.1024407E+03  0.7561462E-02  0.1275246E+00
          2   -1    0    0  501    0  0.00000000000E+00  0.00000000000E+00  0.76569316037E+02  0.76569316037E+02  0.00000000000E+00 0. -1.
         -2   -1    0    0    0  501 -0.00000000000E+00 -0.00000000000E+00 -0.29167091155E+03  0.29167091155E+03  0.00000000000E+00 0.  1.
         25    2    1    2    0    0 -0.56810993820E+02 -0.12506090947E+02 -0.12382030241E+02  0.13851414565E+03  0.12509581345E+03 0.  0.
          5    1    3    3  502    0 -0.75741267005E+02 -0.46536487722E+01  0.37263047304E+02  0.84642796910E+02  0.41800000000E+01 0.  1.
         -5    1    3    3    0  502  0.18930273185E+02 -0.78524421744E+01 -0.49645077545E+02  0.53871348743E+02  0.41800000000E+01 0.  1.
        -11    1    1    2    0    0  0.41441404552E+02 -0.37353513768E+02 -0.10975053563E+03  0.12311724117E+03  0.00000000000E+00 0.  1.
         11    1    1    2    0    0  0.15369589268E+02  0.49859604714E+02 -0.92969029640E+02  0.10660884076E+03  0.00000000000E+00 0. -1.
</event>
<event>
 7    1  0.2601031E-009  0.2214967E+03  0.7561462E-02  0.1132772E+00
         -1   -1    0    0    0  501 -0.00000000000E+00  0.00000000000E+00  0.29139433719E+03  0.29139433719E+03  0.00000000000E+00 0.  1.
          1   -1    0    0  501    0  0.00000000000E+00 -0.00000000000E+00 -0.23194419992E+03  0.23194419992E+03  0.00000000000E+00 0. -1.
         25    2    1    2    0    0 -0.83992701523E+01  0.19440217944E+03 -0.10340098652E+03  0.25338099989E+03  0.12508961581E+03 0.  0.
          5    1    3    3  502    0 -0.53109780604E+02  0.33370814625E+02 -0.40416061715E+02  0.74734132156E+02  0.41800000000E+01 0.  1.
         -5    1    3    3    0  502  0.44710510452E+02  0.16103136482E+03 -0.62984924806E+02  0.17864686774E+03  0.41800000000E+01 0.  1.
        -11    1    1    2    0    0 -0.39266133298E+02 -0.88773998521E+02  0.94202510550E+02  0.13526553527E+03  0.00000000000E+00 0.  1.
         11    1    1    2    0    0  0.47665403450E+02 -0.10562818092E+03  0.68648613239E+02  0.13469200195E+03  0.00000000000E+00 0. -1.
</event>
<event>
 7    1  0.2601031E-009  0.8685179E+02  0.7561462E-02  0.1310660E+00
         -1   -1    0    0    0  501 -0.00000000000E+00  0.00000000000E+00  0.11974450381E+02  0.11974450381E+02  0.00000000000E+00 0.  1.
          1   -1    0    0  501    0  0.00000000000E+00 -0.00000000000E+00 -0.10881687276E+04  0.10881687276E+04  0.00000000000E+00 0. -1.
         25    2    1    2    0    0 -0.24764089333E+02 -0.25642044009E+02 -0.60607910850E+03  0.61987819534E+03  0.12508523795E+03 0.  0.
          5    1    3    3  502    0 -0.14519970336E+02 -0.48314809022E+02 -0.90609897915E+02  0.10379198577E+03  0.41800000000E+01 0.  1.
         -5    1    3    3    0  502 -0.10244118998E+02  0.22672765014E+02 -0.51546921058E+03  0.51608620957E+03  0.41800000000E+01 0.  1.
        -11    1    1    2    0    0 -0.30267994029E+02 -0.10473024204E+02 -0.17381563383E+03  0.17674193125E+03  0.00000000000E+00 0.  1.
         11    1    1    2    0    0  0.55032083362E+02  0.36115068213E+02 -0.29629953491E+03  0.30352305141E+03  0.00000000000E+00 0. -1.
</event>
<event>
 7    1  0.2601031E-009  0.1077279E+03  0.7561462E-02  0.1264836E+00
         -1   -1    0    0    0  501 -0.00000000000E+00  0.00000000000E+00  0.14351048069E+02  0.14351048069E+02  0.00000000000E+00 0.  1.
          1   -1    0    0  501    0  0.00000000000E+00 -0.00000000000E+00 -0.10916443953E+04  0.10916443953E+04  0.00000000000E+00 0. -1.
         25    2    1    2    0    0 -0.58462847298E+01  0.35693568889E+02 -0.81930823352E+03  0.82959101300E+03  0.12508819858E+03 0.  0.
          5    1    3    3  502    0 -0.47655617066E+02  0.63736482924E+02 -0.49837706688E+03  0.50470840125E+03  0.41800000000E+01 0.  1.
         -5    1    3    3    0  502  0.41809332336E+02 -0.28042914036E+02 -0.32093116664E+03  0.32488261175E+03  0.41800000000E+01 0.  1.
        -11    1    1    2    0    0  0.36563045943E+02 -0.40042479497E+02 -0.86171624830E+02  0.10181259951E+03  0.00000000000E+00 0.  1.
         11    1    1    2    0    0 -0.30716761214E+02  0.43489106081E+01 -0.17181348886E+03  0.17459183085E+03  0.00000000000E+00 0. -1.
</event>
<event>
 7    1  0.2601031E-009  0.1160339E+03  0.7561462E-02  0.1249787E+00
          1   -1    0    0  501    0  0.00000000000E+00  0.00000000000E+00  0.44417762031E+02  0.44417762031E+02  0.00000000000E+00 0. -1.
         -1   -1    0    0    0  501 -0.00000000000E+00 -0.00000000000E+00 -0.40408835331E+03  0.40408835331E+03  0.00000000000E+00 0.  1.
         25    2    1    2    0    0  0.76968699607E+02  0.13523240025E+02 -0.21620229849E+03  0.26172156221E+03  0.12509070114E+03 0.  0.
          5    1    3    3  502    0  0.74466924668E+02  0.45543426166E+02 -0.69983155348E+02  0.11195821081E+03  0.41800000000E+01 0. -1.
         -5    1    3    3    0  502  0.25017749390E+01 -0.32020186141E+02 -0.14621914315E+03  0.14976335139E+03  0.41800000000E+01 0. -1.
        -11    1    1    2    0    0 -0.84782998534E+02  0.11971300696E+02 -0.13291453720E+03  0.15810674584E+03  0.00000000000E+00 0. -1.
         11    1    1    2    0    0  0.78142989276E+01 -0.25494540721E+02 -0.10553755589E+02  0.28677807296E+02  0.00000000000E+00 0.  1.
</event>
<event>
 7    1  0.2601031E-009  0.8480771E+02  0.7561462E-02  0.1315936E+00
         -1   -1    0    0    0  501 -0.00000000000E+00  0.00000000000E+00  0.21402300041E+03  0.21402300041E+03  0.00000000000E+00 0.  1.
          1   -1    0    0  501    0  0.00000000000E+00 -0.00000000000E+00 -0.87056861676E+02  0.87056861676E+02  0.00000000000E+00 0. -1.
         25    2    1    2    0    0 -0.43266951735E+02  0.68910995803E+02  0.56760705969E+02  0.15965401870E+03  0.12508746336E+03 0.  0.
          5    1    3    3  502    0 -0.17752430052E+01  0.32421330284E+02 -0.37829348495E+02  0.50028253544E+02  0.41800000000E+01 0. -1.
         -5    1    3    3    0  502 -0.41491708730E+02  0.36489665519E+02  0.94590054464E+02  0.10962576516E+03  0.41800000000E+01 0. -1.
        -11    1    1    2    0    0  0.51183626913E+01 -0.10795499745E+02 -0.22544858789E+02  0.25514919345E+02  0.00000000000E+00 0. -1.
         11    1    1    2    0    0  0.38148589044E+02 -0.58115496058E+02  0.92750291554E+02  0.11591092404E+03  0.00000000000E+00 0.  1.
</event>
<event>
 7    1  0.2601031E-009  0.1202718E+03  0.7561462E-02  0.1242649E+00
          2   -1    0    0  501    0  0.00000000000E+00  0.00000000000E+00  0.48158038718E+02  0.48158038718E+02  0.00000000000E+00 0. -1.
         -2   -1    0    0    0  501 -0.00000000000E+00 -0.00000000000E+00 -0.45440221024E+03  0.45440221024E+03  0.00000000000E+00 0.  1.
         25    2    1    2    0    0  0.51990565815E+02  0.84863746356E+02 -0.24205810877E+03  0.29008154319E+03  0.12510115628E+03 0.  0.
          5    1    3    3  502    0 -0.70343993136E+01  0.12633603697E+02 -0.17372265825E+03  0.17437352180E+03  0.41800000000E+01 0.  1.
         -5    1    3    3    0  502  0.59024965129E+02  0.72230142660E+02 -0.68335450513E+02  0.11570802139E+03  0.41800000000E+01 0.  1.
        -11    1    1    2    0    0 -0.14617477949E+02 -0.92772714877E+02 -0.13476195408E+03  0.16425964676E+03  0.00000000000E+00 0.  1.
         11    1    1    2    0    0 -0.37373087866E+02  0.79089685205E+01 -0.29424108680E+02  0.48219059005E+02  0.00000000000E+00 0. -1.
</event>
<event>
 7    1  0.2601031E-009  0.1148513E+03  0.7561462E-02  0.1251841E+00
         -1   -1    0    0    0  501 -0.00000000000E+00  0.00000000000E+00  0.42837503944E+02  0.42837503944E+02  0.00000000000E+00 0.  1.
          1   -1    0    0  501    0  0.00000000000E+00 -0.00000000000E+00 -0.43913922157E+03  0.43913922157E+03  0.00000000000E+00 0. -1.
         25    2    1    2    0    0 -0.16441805276E+02  0.80740543058E+02 -0.19695804836E+03  0.24744842963E+03  0.12509550056E+03 0.  0.
          5    1    3    3  502    0  0.40942852767E+02  0.22855240008E+02 -0.17359081782E+02  0.50174588278E+02  0.41800000000E+01 0. -1.
         -5    1    3    3    0  502 -0.57384658043E+02  0.57885303051E+02 -0.17959896657E+03  0.19727384135E+03  0.41800000000E+01 0. -1.
        -11    1    1    2    0    0 -0.89590317411E+01 -0.74256658661E+02 -0.19380112483E+03  0.20773346286E+03  0.00000000000E+00 0. -1.
         11    1    1    2    0    0  0.25400837017E+02 -0.64838843979E+01 -0.55425444403E+01  0.26794833026E+02  0.00000000000E+00 0.  1.
</event>
<event>
 7    1  0.2601031E-009  0.1217749E+03  0.7561462E-02  0.1240197E+00
          1   -1    0    0  501    0  0.00000000000E+00  0.00000000000E+00  0.88547428768E+03  0.88547428768E+03  0.00000000000E+00 0. -1.
         -1   -1    0    0    0  501 -0.00000000000E+00 -0.00000000000E+00 -0.24707903109E+02  0.24707903109E+02  0.00000000000E+00 0.  1.
         25    2    1    2    0    0 -0.97866416670E+02  0.13816771799E+02  0.52605926430E+03  0.54968584783E+03  0.12508974004E+03 0.  0.
          5    1    3    3  502    0 -0.57247927297E+02 -0.17107213738E+02  0.46979784825E+03  0.47360054113E+03  0.41800000000E+01 0. -1.
         -5    1    3    3    0  502 -0.40618489373E+02  0.30923985537E+02  0.56261416048E+02  0.76085306704E+02  0.41800000000E+01 0. -1.
        -11    1    1    2    0    0  0.32183992985E+01 -0.35243402219E+02  0.67533523552E+02  0.76244555854E+02  0.00000000000E+00 0.  1.
         11    1    1    2    0    0  0.94648017371E+02  0.21426630420E+02  0.26717359672E+03  0.28425178710E+03  0.00000000000E+00 0. -1.
</event>
<event>
 7    1  0.3593779E-009  0.1242462E+03  0.7561462E-02  0.1236252E+00
         -2   -1    0    0    0  501 -0.00000000000E+00  0.00000000000E+00  0.14783827914E+03  0.14783827914E+03  0.00000000000E+00 0.  1.
          2   -1    0    0  501    0  0.00000000000E+00 -0.00000000000E+00 -0.12911381292E+03  0.12911381292E+03  0.00000000000E+00 0. -1.
         25    2    1    2    0    0 -0.33108225947E+02 -0.78428302723E+02  0.14858507441E+02  0.15203370565E+03  0.12508524740E+03 0.  0.
          5    1    3    3  502    0 -0.77307147216E+02 -0.33531454890E+02 -0.83071080721E+01  0.84777555533E+02  0.41800000000E+01 0. -1.
         -5    1    3    3    0  502  0.44198921268E+02 -0.44896847833E+02  0.23165615513E+02  0.67256150118E+02  0.41800000000E+01 0. -1.
        -11    1    1    2    0    0 -0.82088993802E+01  0.50379202084E+02  0.38678994212E+02  0.64043068516E+02  0.00000000000E+00 0.  1.
         11    1    1    2    0    0  0.41317125328E+02  0.28049100639E+02 -0.34813035434E+02  0.60875317889E+02  0.00000000000E+00 0. -1.
</event>
<event>
 7    1  0.2601031E-009  0.1158239E+03  0.7561462E-02  0.1250150E+00
         -4   -1    0    0    0  501 -0.00000000000E+00  0.00000000000E+00  0.55712110657E+03  0.55712110657E+03  0.00000000000E+00 0.  1.
          4   -1    0    0  501    0  0.00000000000E+00 -0.00000000000E+00 -0.41005607181E+02  0.41005607181E+02  0.00000000000E+00 0. -1.
         25    2    1    2    0    0 -0.56275974808E+02 -0.86057205589E+02  0.23531296185E+03  0.28564528208E+03  0.12509280230E+03 0.  0.
          5    1    3    3  502    0  0.10568651746E+02 -0.49937054987E+02  0.19065647471E+03  0.19741522132E+03  0.41800000000E+01 0. -1.
         -5    1    3    3    0  502 -0.66844626554E+02 -0.36120150602E+02  0.44656487141E+02  0.88230060764E+02  0.41800000000E+01 0. -1.
        -11    1    1    2    0    0  0.36636028102E+02  0.39849753712E+02  0.42154550235E+02  0.68609092193E+02  0.00000000000E+00 0. -1.
         11    1    1    2    0    0  0.19639946705E+02  0.46207451877E+02  0.23864798730E+03  0.24387233947E+03  0.00000000000E+00 0.  1.
</event>
<event>
 7    1  0.2601031E-009  0.1749412E+03  0.7561462E-02  0.1172791E+00
         -1   -1    0    0    0  501 -0.00000000000E+00  0.00000000000E+00  0.97670087088E+02  0.97670087088E+02  0.00000000000E+00 0.  1.
          1   -1    0    0  501    0  0.00000000000E+00 -0.00000000000E+00 -0.63262462335E+03  0.63262462335E+03  0.00000000000E+00 0. -1.
         25    2    1    2    0    0  0.10602775246E+03 -0.13491925288E+03 -0.48742613204E+03  0.53167303183E+03  0.12508752732E+03 0.  0.
          5    1    3    3  502    0  0.91726424398E+02 -0.12975636227E+03 -0.49049390488E+03  0.51560856627E+03  0.41800000000E+01 0. -1.
         -5    1    3    3    0  502  0.14301328058E+02 -0.51628906105E+01  0.30677728400E+01  0.16064465564E+02  0.41800000000E+01 0. -1.
        -11    1    1    2    0    0 -0.21647375760E+02  0.54283789564E+02  0.22372169185E+02  0.62576773973E+02  0.00000000000E+00 0.  1.
         11    1    1    2    0    0 -0.84380376695E+02  0.80635463314E+02 -0.69900573411E+02  0.13604490464E+03  0.00000000000E+00 0. -1.
</event>
<event>
 7    1  0.2601031E-009  0.1248497E+03  0.7561462E-02  0.1235304E+00
         -2   -1    0    0    0  501 -0.00000000000E+00  0.00000000000E+00  0.17632218154E+02  0.17632218154E+02  0.00000000000E+00 0.  1.
          2   -1    0    0  501    0  0.00000000000E+00 -0.00000000000E+00 -0.18122048493E+04  0.18122048493E+04  0.00000000000E+00 0. -1.
         25    2    1    2    0    0  0.69675469702E+02 -0.14661488563E+02 -0.15719925115E+04  0.15785679126E+04  0.12508624319E+03 0.  0.
          5    1    3    3  502    0  0.92330926850E+01 -0.64607565832E+02 -0.70350344630E+03  0.70653659418E+03  0.41800000000E+01 0. -1.
         -5    1    3    3    0  502  0.60442377017E+02  0.49946077269E+02 -0.86848906518E+03  0.87203131842E+03  0.41800000000E+01 0. -1.
        -11    1    1    2    0    0  0.16211629658E+00  0.33458544752E+02 -0.12744975026E+03  0.13176850664E+03  0.00000000000E+00 0. -1.
         11    1    1    2    0    0 -0.69837585999E+02 -0.18797056190E+02 -0.95130369379E+02  0.11950064819E+03  0.00000000000E+00 0.  1.
</event>
<event>
 7    1  0.2601031E-009  0.1117208E+03  0.7561462E-02  0.1257416E+00
          2   -1    0    0  501    0  0.00000000000E+00  0.00000000000E+00  0.18549231920E+03  0.18549231920E+03  0.00000000000E+00 0. -1.
         -2   -1    0    0    0  501 -0.00000000000E+00 -0.00000000000E+00 -0.79131332714E+02  0.79131332714E+02  0.00000000000E+00 0.  1.
         25    2    1    2    0    0 -0.19381998542E+02 -0.39861207475E+02  0.95509027957E+02  0.16351114795E+03  0.12509733552E+03 0.  0.
          5    1    3    3  502    0 -0.64701976978E+02 -0.49124261873E+02  0.38553175027E+02  0.90018657144E+02  0.41800000000E+01 0.  1.
         -5    1    3    3    0  502  0.45319978436E+02  0.92630543978E+01  0.56955852930E+02  0.73492490809E+02  0.41800000000E+01 0.  1.
        -11    1    1    2    0    0  0.46000338358E+02 -0.19998363240E+01  0.20789506372E+02  0.50519640236E+02  0.00000000000E+00 0. -1.
         11    1    1    2    0    0 -0.26618339816E+02  0.41861043799E+02 -0.99375478451E+01  0.50592863723E+02  0.00000000000E+00 0.  1.
</event>
<event>
 7    1  0.2601031E-009  0.9148641E+02  0.7561462E-02  0.1299292E+00
         -2   -1    0    0    0  501 -0.00000000000E+00  0.00000000000E+00  0.80832762472E+02  0.80832762472E+02  0.00000000000E+00 0.  1.
          2   -1    0    0  501    0  0.00000000000E+00 -0.00000000000E+00 -0.16997775228E+03  0.16997775228E+03  0.00000000000E+00 0. -1.
         25    2    1    2    0    0  0.82328901973E+01  0.13964880220E+02 -0.54288184514E+01  0.12625086803E+03  0.12508801400E+03 0.  0.
          5    1    3    3  502    0 -0.56790907585E+02  0.18120655330E+02 -0.10852365338E+02  0.60735587322E+02  0.41800000000E+01 0. -1.
         -5    1    3    3    0  502  0.65023797782E+02 -0.41557751100E+01  0.54235468864E+01  0.65515280703E+02  0.41800000000E+01 0. -1.
        -11    1    1    2    0    0  0.22241077312E+02 -0.15975575654E+02 -0.89395646984E+02  0.93495808661E+02  0.00000000000E+00 0. -1.
         11    1    1    2    0    0 -0.30473967510E+02  0.20106954336E+01  0.56794756294E+01  0.31063838065E+02  0.00000000000E+00 0.  1.
</event>
<event>
 7    1  0.2601031E-009  0.1230530E+03  0.7561462E-02  0.1238144E+00
         -1   -1    0    0    0  501 -0.00000000000E+00  0.00000000000E+00  0.14147828570E+03  0.14147828570E+03  0.00000000000E+00 0.  1.
          1   -1    0    0  501    0  0.00000000000E+00 -0.00000000000E+00 -0.15619175758E+03  0.15619175758E+03  0.00000000000E+00 0. -1.
         25    2    1    2    0    0 -0.25864383458E+02  0.89854146007E+02  0.35627911748E+02  0.16018702111E+03  0.12509116576E+03 0.  0.
          5    1    3    3  502    0 -0.44837263475E+02 -0.14664128538E+01 -0.22340943505E+02  0.50290364080E+02  0.41800000000E+01 0. -1.
         -5    1    3    3    0  502  0.18972880018E+02  0.91320558861E+02  0.57968855253E+02  0.10989665703E+03  0.41800000000E+01 0. -1.
        -11    1    1    2    0    0  0.25233442369E+02 -0.89411544124E+01 -0.49830075547E+02  0.56565955176E+02  0.00000000000E+00 0. -1.
         11    1    1    2    0    0  0.63094108868E+00 -0.80912991594E+02 -0.51130807659E+00  0.80917066997E+02  0.00000000000E+00 0.  1.
</event>
<event>
 7    1  0.2601031E-009  0.1177634E+03  0.7561462E-02  0.1246833E+00
         -2   -1    0    0    0  501 -0.00000000000E+00  0.00000000000E+00  0.26272530736E+03  0.26272530736E+03  0.00000000000E+00 0.  1.
          2   -1    0    0  501    0  0.00000000000E+00 -0.00000000000E+00 -0.57314112730E+02  0.57314112730E+02  0.00000000000E+00 0. -1.
         25    2    1    2    0    0 -0.59356071671E+02 -0.13570014328E+02  0.11710517542E+03  0.18184641713E+03  0.12508880357E+03 0.  0.
          5    1    3    3  502    0 -0.53685863514E+02 -0.60952182339E+02  0.38945687157E+02  0.90175270564E+02  0.41800000000E+01 0.  1.
         -5    1    3    3    0  502 -0.56702081570E+01  0.47382168010E+02  0.78159488266E+02  0.91671146561E+02  0.41800000000E+01 0.  1.
        -11    1    1    2    0    0  0.14174544799E+02  0.47640659235E+02  0.40562424318E+02  0.64154971741E+02  0.00000000000E+00 0.  1.
         11    1    1    2    0    0  0.45181526872E+02 -0.34070644906E+02  0.47743594893E+02  0.74038031228E+02  0.00000000000E+00 0. -1.
</event>
<event>
 7    1  0.2601031E-009  0.1168385E+03  0.7561462E-02  0.1248405E+00
         -2   -1    0    0    0  501 -0.00000000000E+00  0.00000000000E+00  0.27287203506E+02  0.27287203506E+02  0.00000000000E+00 0.  1.
          2   -1    0    0  501    0  0.00000000000E+00 -0.00000000000E+00 -0.76300131605E+03  0.76300131605E+03  0.00000000000E+00 0. -1.
         25    2    1    2    0    0 -0.74255251817E+02 -0.37841490263E+02 -0.52418587368E+03  0.54531104021E+03  0.12508988611E+03 0.  0.
          5    1    3    3  502    0  0.33821327057E+02  0.15235453352E+01 -0.14964708240E+03  0.15348591148E+03  0.41800000000E+01 0.  1.
         -5    1    3    3    0  502 -0.10807657887E+03 -0.39365035598E+02 -0.37453879128E+03  0.39182512873E+03  0.41800000000E+01 0.  1.
        -11    1    1    2    0    0  0.39323581984E+02  0.27672180192E+02 -0.23606594997E+02  0.53566453905E+02  0.00000000000E+00 0.  1.
         11    1    1    2    0    0  0.34931669833E+02  0.10169310071E+02 -0.18792164387E+03  0.19141102544E+03  0.00000000000E+00 0. -1.
</event>
<event>
 7    1  0.2601031E-009  0.1735575E+03  0.7561462E-02  0.1174188E+00
         -1   -1    0    0    0  501 -0.00000000000E+00  0.00000000000E+00  0.42091883058E+02  0.42091883058E+02  0.00000000000E+00 0.  1.
          1   -1    0    0  501    0  0.00000000000E+00 -0.00000000000E+00 -0.80406262205E+03  0.80406262205E+03  0.00000000000E+00 0. -1.
         25    2    1    2    0    0 -0.14828283875E+03 -0.22109934341E+02 -0.44111589091E+03  0.48239814890E+03  0.12509234744E+03 0.  0.
          5    1    3    3  502    0 -0.77886125409E+02 -0.71792045411E+02 -0.20073565633E+03  0.22700797880E+03  0.41800000000E+01 0.  1.
         -5    1    3    3    0  502 -0.70396713341E+02  0.49682111070E+02 -0.24038023458E+03  0.25539017010E+03  0.41800000000E+01 0.  1.
        -11    1    1    2    0    0  0.15112444991E+02 -0.96583139695E+01 -0.36990492992E+01  0.18312618274E+02  0.00000000000E+00 0.  1.
         11    1    1    2    0    0  0.13317039376E+03  0.31768248310E+02 -0.31715579879E+03  0.34544373793E+03  0.00000000000E+00 0. -1.
</event>
<event>
 7    1  0.2601031E-009  0.7406562E+02  0.7561462E-02  0.1346789E+00
         -1   -1    0    0    0  501 -0.00000000000E+00  0.00000000000E+00  0.56793497303E+02  0.56793497303E+02  0.00000000000E+00 0.  1.
          1   -1    0    0  501    0  0.00000000000E+00 -0.00000000000E+00 -0.25752160143E+03  0.25752160143E+03  0.00000000000E+00 0. -1.
         25    2    1    2    0    0 -0.43083775469E+02 -0.44041696771E+01 -0.15303358220E+03  0.20234263725E+03  0.12509059576E+03 0.  0.
          5    1    3    3  502    0  0.71971282338E+01 -0.69250549808E+01  0.19642393127E+02  0.22428799546E+02  0.41800000000E+01 0.  1.
         -5    1    3    3    0  502 -0.50280903703E+02  0.25208853037E+01 -0.17267597533E+03  0.17991383770E+03  0.41800000000E+01 0.  1.
        -11    1    1    2    0    0  0.43507025451E+02  0.35215134943E+02 -0.94452424310E+00  0.55980881725E+02  0.00000000000E+00 0.  1.
         11    1    1    2    0    0 -0.42324998143E+00 -0.30810965266E+02 -0.46749997680E+02  0.55991579762E+02  0.00000000000E+00 0. -1.
</event>
<event>
 7    1  0.2601031E-009  0.1166206E+03  0.7561462E-02  0.1248778E+00
         -2   -1    0    0    0  501 -0.00000000000E+00  0.00000000000E+00  0.41882282964E+03  0.41882282964E+03  0.00000000000E+00 0.  1.
          2   -1    0    0  501    0  0.00000000000E+00 -0.00000000000E+00 -0.53457356772E+02  0.53457356772E+02  0.00000000000E+00 0. -1.
         25    2    1    2    0    0  0.58473682307E+02 -0.81651474189E+02  0.15604201781E+03  0.22379196572E+03  0.12509035871E+03 0.  0.
          5    1    3    3  502    0  0.13899944522E+01 -0.62478522073E+02  0.15069522609E+03  0.16319320259E+03  0.41800000000E+01 0. -1.
         -5    1    3    3    0  502  0.57083687854E+02 -0.19172952116E+02  0.53467917200E+01  0.60598763136E+02  0.41800000000E+01 0. -1.
        -11    1    1    2    0    0 -0.22981236442E+02  0.68735790859E+02  0.58887883331E+02  0.93383772554E+02  0.00000000000E+00 0. -1.
         11    1    1    2    0    0 -0.35492445865E+02  0.12915683331E+02  0.15043557173E+03  0.15510444813E+03  0.00000000000E+00 0.  1.
</event>
<event>
 7    1  0.2601031E-009  0.1080872E+03  0.7561462E-02  0.1264154E+00
          2   -1    0    0  501    0  0.00000000000E+00  0.00000000000E+00  0.11193622655E+03  0.11193622655E+03  0.00000000000E+00 0. -1.
         -2   -1    0    0    0  501 -0.00000000000E+00 -0.00000000000E+00 -0.17835216246E+03  0.17835216246E+03  0.00000000000E+00 0.  1.
         25    2    1    2    0    0  0.69741967456E+02 -0.55855655512E+02 -0.48198838592E+02  0.16110804329E+03  0.12509547272E+03 0.  0.
          5    1    3    3  502    0  0.51232697509E+02 -0.62615422108E+02 -0.86078704940E+02  0.11820531386E+03  0.41800000000E+01 0.  1.
         -5    1    3    3    0  502  0.18509269947E+02  0.67597665959E+01  0.37879866348E+02  0.42902729435E+02  0.41800000000E+01 0.  1.
        -11    1    1    2    0    0 -0.70998931122E+02  0.13042098718E+02  0.16496301873E+02  0.74047771979E+02  0.00000000000E+00 0.  1.
         11    1    1    2    0    0  0.12569636663E+01  0.42813556794E+02 -0.34713399194E+02  0.55132573735E+02  0.00000000000E+00 0. -1.
</event>
<event>
 7    1  0.2601031E-009  0.1505610E+03  0.7561462E-02  0.1199785E+00
          1   -1    0    0  501    0  0.00000000000E+00  0.00000000000E+00  0.46964361311E+02  0.46964361311E+02  0.00000000000E+00 0. -1.
         -1   -1    0    0    0  501 -0.00000000000E+00 -0.00000000000E+00 -0.61246253187E+03  0.61246253187E+03  0.00000000000E+00 0.  1.
         25    2    1    2    0    0 -0.11099176215E+03 -0.59098914071E+02 -0.22897370730E+03  0.28963401960E+03  0.12508818394E+03 0.  0.
          5    1    3    3  502    0 -0.57547957797E+02 -0.94009102051E+02 -0.11789023436E+03  0.16144676668E+03  0.41800000000E+01 0. -1.
         -5    1    3    3    0  502 -0.53443804355E+02  0.34910187980E+02 -0.11108347294E+03  0.12818725292E+03  0.41800000000E+01 0. -1.
        -11    1    1    2    0    0  0.37189561350E+02  0.28924645049E+02 -0.24007355196E+03  0.24465283345E+03  0.00000000000E+00 0.  1.
         11    1    1    2    0    0  0.73802200802E+02  0.30174269022E+02 -0.96450911296E+02  0.12514004013E+03  0.00000000000E+00 0. -1.
</event>
<event>
 7    1  0.2601031E-009  0.1346983E+03  0.7561462E-02  0.1220646E+00
         -1   -1    0    0    0  501 -0.00000000000E+00  0.00000000000E+00  0.14066991393E+03  0.14066991393E+03  0.00000000000E+00 0.  1.
          1   -1    0    0  501    0  0.00000000000E+00 -0.00000000000E+00 -0.20926389020E+03  0.20926389020E+03  0.00000000000E+00 0. -1.
         25    2    1    2    0    0  0.11047813957E+02  0.91701824672E+02 -0.13393574288E+03  0.20522690758E+03  0.12509205225E+03 0.  0.
          5    1    3    3  502    0 -0.39164926984E+02  0.96964055459E+02 -0.85593229997E+02  0.13520204502E+03  0.41800000000E+01 0.  1.
         -5    1    3    3    0  502  0.50212740941E+02 -0.52622307870E+01 -0.48342512878E+02  0.70024862563E+02  0.41800000000E+01 0.  1.
        -11    1    1    2    0    0  0.28152025428E+02 -0.31590449606E+02  0.59080855314E+02  0.72670767897E+02  0.00000000000E+00 0.  1.
         11    1    1    2    0    0 -0.39199839385E+02 -0.60111375066E+02  0.62609112886E+01  0.72036128646E+02  0.00000000000E+00 0. -1.
</event>
<event>
 7    1  0.2601031E-009  0.1340654E+03  0.7561462E-02  0.1221545E+00
          2   -1    0    0  501    0  0.00000000000E+00  0.00000000000E+00  0.96051966778E+03  0.96051966778E+03  0.00000000000E+00 0. -1.
         -2   -1    0    0    0  501 -0.00000000000E+00 -0.00000000000E+00 -0.23763098588E+02  0.23763098588E+02  0.00000000000E+00 0.  1.
         25    2    1    2    0    0 -0.56108135752E+02  0.79599008410E+02  0.62197824761E+03  0.64186329984E+03  0.12508968841E+03 0.  0.
          5    1    3    3  502    0  0.34401750085E+02 -0.30077283464E+01  0.17182699018E+03  0.17531261732E+03  0.41800000000E+01 0. -1.
         -5    1    3    3    0  502 -0.90509885837E+02  0.82606736756E+02  0.45015125743E+03  0.46655068252E+03  0.41800000000E+01 0. -1.
        -11    1    1    2    0    0 -0.10087867241E+02 -0.59604907890E+01 -0.72840502090E+00  0.11739807912E+02  0.00000000000E+00 0.  1.
         11    1    1    2    0    0  0.66196002994E+02 -0.73638517621E+02  0.31550672660E+03  0.33067965862E+03  0.00000000000E+00 0. -1.
</event>
<event>
 7    1  0.2601031E-009  0.1428519E+03  0.7561462E-02  0.1209542E+00
          2   -1    0    0  501    0  0.00000000000E+00  0.00000000000E+00  0.57202539935E+03  0.57202539935E+03  0.00000000000E+00 0. -1.
         -2   -1    0    0    0  501 -0.00000000000E+00 -0.00000000000E+00 -0.87006088169E+02  0.87006088169E+02  0.00000000000E+00 0.  1.
         25    2    1    2    0    0  0.39010094697E+02  0.12011172477E+03  0.47414582423E+03  0.50636704293E+03  0.12507879763E+03 0.  0.
          5    1    3    3  502    0  0.34226803813E+02  0.36596576792E+02  0.36670822013E+03  0.37013939893E+03  0.41800000000E+01 0.  1.
         -5    1    3    3    0  502  0.47832908835E+01  0.83515147983E+02  0.10743760410E+03  0.13622764399E+03  0.41800000000E+01 0.  1.
        -11    1    1    2    0    0 -0.51015363422E+02 -0.12766589269E+03  0.13830239920E+02  0.13817533426E+03  0.00000000000E+00 0. -1.
         11    1    1    2    0    0  0.12005268726E+02  0.75541679142E+01 -0.29567529668E+01  0.14489110330E+02  0.00000000000E+00 0.  1.
</event>
<event>
 7    1  0.2754290E-009  0.1036028E+03  0.7561462E-02  0.1272897E+00
          1   -1    0    0  501    0  0.00000000000E+00  0.00000000000E+00  0.15304532470E+03  0.15304532470E+03  0.00000000000E+00 0. -1.
         -1   -1    0    0    0  501 -0.00000000000E+00 -0.00000000000E+00 -0.11226733318E+03  0.11226733318E+03  0.00000000000E+00 0.  1.
         25    2    1    2    0    0 -0.94004904721E+01  0.46759769190E+02  0.79733891735E+02  0.15581899622E+03  0.12508885185E+03 0.  0.
          5    1    3    3  502    0 -0.24990081425E+02 -0.37159430972E+02  0.11393632199E+02  0.46396279317E+02  0.41800000000E+01 0.  1.
         -5    1    3    3    0  502  0.15589590953E+02  0.83919200162E+02  0.68340259536E+02  0.10942271691E+03  0.41800000000E+01 0.  1.
        -11    1    1    2    0    0  0.33648301081E+02 -0.15065998876E+02 -0.55224109386E+02  0.66399508622E+02  0.00000000000E+00 0.  1.
         11    1    1    2    0    0 -0.24247810608E+02 -0.31693770314E+02  0.16268209176E+02  0.43094153035E+02  0.00000000000E+00 0. -1.
</event>
<event>
 7    1  0.2601031E-009  0.1128530E+03  0.7561462E-02  0.1255376E+00
         -2   -1    0    0    0  501 -0.00000000000E+00  0.00000000000E+00  0.22094113926E+02  0.22094113926E+02  0.00000000000E+00 0.  1.
          2   -1    0    0  501    0  0.00000000000E+00 -0.00000000000E+00 -0.61306283178E+03  0.61306283178E+03  0.00000000000E+00 0. -1.
         25    2    1    2    0    0 -0.30252815998E+02 -0.29696011541E+02 -0.31170136224E+03  0.33852976340E+03  0.12509026942E+03 0.  0.
          5    1    3    3  502    0  0.44344611235E+02  0.90780463595E+01 -0.14200090286E+03  0.14909924307E+03  0.41800000000E+01 0. -1.
         -5    1    3    3    0  502 -0.74597427233E+02 -0.38774057901E+02 -0.16970045939E+03  0.18943052033E+03  0.41800000000E+01 0. -1.
        -11    1    1    2    0    0  0.12461837933E+02 -0.30688309600E+02 -0.13883001954E+03  0.14272646593E+03  0.00000000000E+00 0.  1.
         11    1    1    2    0    0  0.17790978065E+02  0.60384321141E+02 -0.14043733607E+03  0.15390071638E+03  0.00000000000E+00 0. -1.
</event>
<event>
 7    1  0.2601031E-009  0.8136260E+02  0.7561462E-02  0.1325228E+00
          2   -1    0    0  501    0  0.00000000000E+00  0.00000000000E+00  0.63937113867E+03  0.63937113867E+03  0.00000000000E+00 0. -1.
         -2   -1    0    0    0  501 -0.00000000000E+00 -0.00000000000E+00 -0.56431505199E+02  0.56431505199E+02  0.00000000000E+00 0.  1.
         25    2    1    2    0    0  0.37499459258E+02 -0.24996122965E+02  0.59190371227E+03  0.60665134801E+03  0.12507932619E+03 0.  0.
          5    1    3    3  502    0  0.35852905914E+02  0.13458789326E+02  0.54258702532E+03  0.54395286774E+03  0.41800000000E+01 0.  1.
         -5    1    3    3    0  502  0.16465533441E+01 -0.38454912291E+02  0.49316686944E+02  0.62698480272E+02  0.41800000000E+01 0.  1.
        -11    1    1    2    0    0 -0.42617039895E+02  0.46678840422E+02  0.40738683114E+01  0.63338160974E+02  0.00000000000E+00 0.  1.
         11    1    1    2    0    0  0.51175806369E+01 -0.21682717457E+02 -0.13037947106E+02  0.25813134886E+02  0.00000000000E+00 0. -1.
</event>
<event>
 7    1  0.2601031E-009  0.1080517E+03  0.7561462E-02  0.1264221E+00
          1   -1    0    0  501    0  0.00000000000E+00  0.00000000000E+00  0.42473815412E+03  0.42473815412E+03  0.00000000000E+00 0. -1.
         -1   -1    0    0    0  501 -0.00000000000E+00 -0.00000000000E+00 -0.43462702533E+02  0.43462702533E+02  0.00000000000E+00 0.  1.
         25    2    1    2    0    0 -0.67473784204E+02 -0.43567423923E+02  0.24537332099E+03  0.28689101216E+03  0.12509018436E+03 0.  0.
          5    1    3    3  502    0 -0.16895366604E+02 -0.50357058838E+02  0.21863813751E+02  0.57591540518E+02  0.41800000000E+01 0.  1.
         -5    1    3    3    0  502 -0.50578417600E+02  0.67896349146E+01  0.22350950724E+03  0.22929947164E+03  0.41800000000E+01 0.  1.
        -11    1    1    2    0    0  0.63651281142E+02 -0.41157999019E+01  0.10936424212E+03  0.12660554038E+03  0.00000000000E+00 0. -1.
         11    1    1    2    0    0  0.38225030617E+01  0.47683223825E+02  0.26537888478E+02  0.54704304117E+02  0.00000000000E+00 0.  1.
</event>
<event>
 7    1  0.2601031E-009  0.2015256E+03  0.7561462E-02  0.1148458E+00
          1   -1    0    0  501    0  0.00000000000E+00  0.00000000000E+00  0.63837898584E+03  0.63837898584E+03  0.00000000000E+00 0. -1.
         -1   -1    0    0    0  501 -0.00000000000E+00 -0.00000000000E+00 -0.87074468361E+02  0.87074468361E+02  0.00000000000E+00 0.  1.
         25    2    1    2    0    0  0.72269054110E+02 -0.17461169778E+03  0.14768209073E+03  0.27050119302E+03  0.12509530095E+03 0.  0.
          5    1    3    3  502    0  0.72574181669E+02 -0.18629317019E+03  0.15760181756E+03  0.25461335865E+03  0.41800000000E+01 0. -1.
         -5    1    3    3    0  502 -0.30512755967E+00  0.11681472411E+02 -0.99197268317E+01  0.15887834369E+02  0.41800000000E+01 0. -1.
        -11    1    1    2    0    0 -0.29392807178E+02  0.41756733600E+02  0.21081455750E+03  0.21691090237E+03  0.00000000000E+00 0. -1.
         11    1    1    2    0    0 -0.42876246932E+02  0.13285496418E+03  0.19280786925E+03  0.23804135881E+03  0.00000000000E+00 0.  1.
</event>
<event>
 7    1  0.2601031E-009  0.1301757E+03  0.7561462E-02  0.1227195E+00
         -1   -1    0    0    0  501 -0.00000000000E+00  0.00000000000E+00  0.25893378048E+02  0.25893378048E+02  0.00000000000E+00 0.  1.
          1   -1    0    0  501    0  0.00000000000E+00 -0.00000000000E+00 -0.68233243181E+03  0.68233243181E+03  0.00000000000E+00 0. -1.
         25    2    1    2    0    0 -0.19226376619E+02  0.71582121137E+02 -0.42536908934E+03  0.44953338764E+03  0.12509097017E+03 0.  0.
          5    1    3    3  502    0 -0.40924154332E+02 -0.22881215011E+02 -0.16862152296E+03  0.17506863458E+03  0.41800000000E+01 0. -1.
         -5    1    3    3    0  502  0.21697777713E+02  0.94463336147E+02 -0.25674756638E+03  0.27446475307E+03  0.41800000000E+01 0. -1.
        -11    1    1    2    0    0  0.36514076496E+02 -0.86207281713E+02 -0.18312263310E+03  0.20566689563E+03  0.00000000000E+00 0.  1.
         11    1    1    2    0    0 -0.17287699877E+02  0.14625160576E+02 -0.47947331324E+02  0.53025526589E+02  0.00000000000E+00 0. -1.
</event>
<event>
 7    1  0.2601031E-009  0.2182800E+03  0.7561462E-02  0.1135172E+00
         -1   -1    0    0    0  501 -0.00000000000E+00  0.00000000000E+00  0.43508718803E+03  0.43508718803E+03  0.00000000000E+00 0.  1.
          1   -1    0    0  501    0  0.00000000000E+00 -0.00000000000E+00 -0.12480496455E+03  0.12480496455E+03  0.00000000000E+00 0. -1.
         25    2    1    2    0    0 -0.19120169126E+03  0.87307012738E+02  0.14668465772E+03  0.28520141745E+03  0.12507141357E+03 0.  0.
          5    1    3    3  502    0 -0.74838834706E+02 -0.45670029106E+01 -0.20906017161E+01  0.75123576268E+02  0.41800000000E+01 0. -1.
         -5    1    3    3    0  502 -0.11636285655E+03  0.91874015648E+02  0.14877525944E+03  0.21007784118E+03  0.41800000000E+01 0. -1.
        -11    1    1    2    0    0  0.39164279779E+02 -0.34518887358E+02  0.73784957389E+02  0.90385918881E+02  0.00000000000E+00 0.  1.
         11    1    1    2    0    0  0.15203741148E+03 -0.52788125380E+02  0.89812608372E+02  0.18430481625E+03  0.00000000000E+00 0. -1.
</event>
<event>
 7    1  0.2601031E-009  0.1055536E+03  0.7561462E-02  0.1269033E+00
          1   -1    0    0  501    0  0.00000000000E+00  0.00000000000E+00  0.18900313331E+03  0.18900313331E+03  0.00000000000E+00 0. -1.
         -1   -1    0    0    0  501 -0.00000000000E+00 -0.00000000000E+00 -0.85645011033E+02  0.85645011033E+02  0.00000000000E+00 0.  1.
         25    2    1    2    0    0 -0.47316449578E+02 -0.37597793865E+02  0.33481242664E+02  0.14290257722E+03  0.12509081686E+03 0.  0.
          5    1    3    3  502    0  0.97369617511E+01  0.19774560303E+02 -0.31757236660E+02  0.38882337116E+02  0.41800000000E+01 0. -1.
         -5    1    3    3    0  502 -0.57053411329E+02 -0.57372354168E+02  0.65238479324E+02  0.10402024010E+03  0.41800000000E+01 0. -1.
        -11    1    1    2    0    0  0.50989532723E+02 -0.16375771653E+02  0.52319465145E+02  0.74869384782E+02  0.00000000000E+00 0. -1.
         11    1    1    2    0    0 -0.36730831459E+01  0.53973565518E+02  0.17557414465E+02  0.56876182337E+02  0.00000000000E+00 0.  1.
</event>
<event>
 7    1  0.2601031E-009  0.9768301E+02  0.7561462E-02  0.1285245E+00
         -2   -1    0    0    0  501 -0.00000000000E+00  0.00000000000E+00  0.40418476963E+03  0.40418476963E+03  0.00000000000E+00 0.  1.
          2   -1    0    0  501    0  0.00000000000E+00 -0.00000000000E+00 -0.33810319861E+02  0.33810319861E+02  0.00000000000E+00 0. -1.
         25    2    1    2    0    0  0.52213454957E+01 -0.51631753478E+01  0.28801941145E+03  0.31409625975E+03  0.12508940079E+03 0.  0.
          5    1    3    3  502    0  0.46599216752E+02  0.23470649633E+02  0.23547955877E+03  0.24122697485E+03  0.41800000000E+01 0. -1.
         -5    1    3    3    0  502 -0.41377871256E+02 -0.28633824980E+02  0.52539852685E+02  0.72869284906E+02  0.41800000000E+01 0. -1.
        -11    1    1    2    0    0 -0.21232408043E+02  0.44911869239E+02  0.42478739222E+02  0.65363096895E+02  0.00000000000E+00 0. -1.
         11    1    1    2    0    0  0.16011062547E+02 -0.39748693891E+02  0.39876299091E+02  0.58535732841E+02  0.00000000000E+00 0.  1.
</event>
<event>
 7    1  0.2601031E-009  0.1027540E+03  0.7561462E-02  0.1274609E+00
         -1   -1    0    0    0  501 -0.00000000000E+00  0.00000000000E+00  0.13687654585E+03  0.13687654585E+03  0.00000000000E+00 0.  1.
          1   -1    0    0  501    0  0.00000000000E+00 -0.00000000000E+00 -0.20589197676E+03  0.20589197676E+03  0.00000000000E+00 0. -1.
         25    2    1    2    0    0 -0.39248991441E+02  0.53228480204E+02 -0.14840831163E+03  0.20505032368E+03  0.12508738484E+03 0.  0.
          5    1    3    3  502    0 -0.80380588754E+00 -0.34453585506E+02 -0.80296323387E+02  0.87479526791E+02  0.41800000000E+01 0. -1.
         -5    1    3    3    0  502 -0.38445185553E+02  0.87682065709E+02 -0.68111988246E+02  0.11757079689E+03  0.41800000000E+01 0. -1.
        -11    1    1    2    0    0  0.29376385763E+02 -0.10640824892E+02  0.87805831501E+02  0.93199051714E+02  0.00000000000E+00 0.  1.
         11    1    1    2    0    0  0.98726056783E+01 -0.42587655312E+02 -0.84129507730E+01  0.44519147213E+02  0.00000000000E+00 0. -1.
</event>
<event>
 7    1  0.2601031E-009  0.1428021E+03  0.7561462E-02  0.1209608E+00
         -1   -1    0    0    0  501 -0.00000000000E+00  0.00000000000E+00  0.42728170120E+02  0.42728170120E+02  0.00000000000E+00 0.  1.
          1   -1    0    0  501    0  0.00000000000E+00 -0.00000000000E+00 -0.67772476416E+03  0.67772476416E+03  0.00000000000E+00 0. -1.
         25    2    1    2    0    0  0.10543222706E+03  0.10533809522E+02 -0.18249596005E+03  0.24531351681E+03  0.12508809076E+03 0.  0.
          5    1    3    3  502    0 -0.13498763827E+02  0.32059331226E+02 -0.13595205289E+02  0.37580837542E+02  0.41800000000E+01 0.  1.
         -5    1    3    3    0  502  0.11893099089E+03 -0.21525521704E+02 -0.16890075476E+03  0.20773267927E+03  0.41800000000E+01 0.  1.
        -11    1    1    2    0    0  0.96811435022E+01 -0.10820620099E+02 -0.93211554354E+01  0.17253819794E+02  0.00000000000E+00 0.  1.
         11    1    1    2    0    0 -0.11511337056E+03  0.28681057680E+00 -0.44317947856E+03  0.45788559767E+03  0.00000000000E+00 0. -1.
</event>
<event>
 7    1  0.2601031E-009  0.9982504E+02  0.7561462E-02  0.1280664E+00
         -2   -1    0    0    0  501 -0.00000000000E+00  0.00000000000E+00  0.53208847130E+02  0.53208847130E+02  0.00000000000E+00 0.  1.
          2   -1    0    0  501    0  0.00000000000E+00 -0.00000000000E+00 -0.31348723079E+03  0.31348723079E+03  0.00000000000E+00 0. -1.
         25    2    1    2    0    0  0.15616719238E+02 -0.49321012203E+02 -0.80379968664E+02  0.15742762952E+03  0.12508427162E+03 0.  0.
          5    1    3    3  502    0 -0.34028227392E+02 -0.35484980665E+02 -0.92032329154E+02  0.10442473903E+03  0.41800000000E+01 0.  1.
         -5    1    3    3    0  502  0.49644946630E+02 -0.13836031538E+02  0.11652360490E+02  0.53002890484E+02  0.41800000000E+01 0.  1.
        -11    1    1    2    0    0 -0.28125335720E+02  0.69435702882E+02 -0.16519697923E+03  0.18139016867E+03  0.00000000000E+00 0. -1.
         11    1    1    2    0    0  0.12508616482E+02 -0.20114690679E+02 -0.14701435774E+02  0.27878279739E+02  0.00000000000E+00 0.  1.
</event>
<event>
 7    1  0.2601031E-009  0.9229990E+02  0.7561462E-02  0.1297376E+00
          2   -1    0    0  501    0  0.00000000000E+00  0.00000000000E+00  0.10654413022E+03  0.10654413022E+03  0.00000000000E+00 0. -1.
         -2   -1    0    0    0  501 -0.00000000000E+00 -0.00000000000E+00 -0.10215506257E+03  0.10215506257E+03  0.00000000000E+00 0.  1.
         25    2    1    2    0    0  0.23928064369E+02  0.16245544161E+02  0.37926099941E+02  0.13386363278E+03  0.12507842801E+03 0.  0.
          5    1    3    3  502    0  0.21285417671E+02 -0.51235262443E+02  0.35815301179E+02  0.66168945296E+02  0.41800000000E+01 0. -1.
         -5    1    3    3    0  502  0.26426466974E+01  0.67480806604E+02  0.21107987623E+01  0.67694687479E+02  0.41800000000E+01 0. -1.
        -11    1    1    2    0    0 -0.13430452515E+02 -0.36277667263E+02 -0.35006467217E+02  0.52171821358E+02  0.00000000000E+00 0.  1.
         11    1    1    2    0    0 -0.10497611853E+02  0.20032123102E+02  0.14694349280E+01  0.22663738650E+02  0.00000000000E+00 0. -1.
</event>
<event>
 7    1  0.2601031E-009  0.1065779E+03  0.7561462E-02  0.1267042E+00
          2   -1    0    0  501    0  0.00000000000E+00  0.00000000000E+00  0.10585979124E+04  0.10585979124E+04  0.00000000000E+00 0. -1.
         -2   -1    0    0    0  501 -0.00000000000E+00 -0.00000000000E+00 -0.14391757598E+02  0.14391757598E+02  0.00000000000E+00 0.  1.
         25    2    1    2    0    0  0.37812660486E+02 -0.43090685366E+02  0.66622028510E+03  0.68028204724E+03  0.12509033161E+03 0.  0.
          5    1    3    3  502    0 -0.40689806475E+02 -0.21652759128E+01  0.33172397098E+03  0.33424334563E+03  0.41800000000E+01 0. -1.
         -5    1    3    3    0  502  0.78502466961E+02 -0.40925409454E+02  0.33449631411E+03  0.34603870161E+03  0.41800000000E+01 0. -1.
        -11    1    1    2    0    0 -0.43783204194E+02  0.54967088532E+02  0.37118043713E+03  0.37777409480E+03  0.00000000000E+00 0. -1.
         11    1    1    2    0    0  0.59705437085E+01 -0.11876403166E+02  0.68054325416E+01  0.14933527929E+02  0.00000000000E+00 0.  1.
</event>
<event>
 7    1  0.3672044E-009  0.1184672E+03  0.7561462E-02  0.1245647E+00
         -2   -1    0    0    0  501 -0.00000000000E+00  0.00000000000E+00  0.27552680996E+02  0.27552680996E+02  0.00000000000E+00 0.  1.
          2   -1    0    0  501    0  0.00000000000E+00 -0.00000000000E+00 -0.62675911723E+03  0.62675911723E+03  0.00000000000E+00 0. -1.
         25    2    1    2    0    0 -0.97708045449E+01  0.63255026052E+02 -0.42485966617E+03  0.44749258538E+03  0.12508881279E+03 0.  0.
          5    1    3    3  502    0  0.49937133793E+02 -0.73917236380E+00 -0.11422149251E+03  0.12473285637E+03  0.41800000000E+01 0. -1.
         -5    1    3    3    0  502 -0.59707938338E+02  0.63994198416E+02 -0.31063817366E+03  0.32275972901E+03  0.41800000000E+01 0. -1.
        -11    1    1    2    0    0  0.39558553253E+02 -0.55953124075E+02 -0.15765111673E+03  0.17189969702E+03  0.00000000000E+00 0. -1.
         11    1    1    2    0    0 -0.29787748709E+02 -0.73019019771E+01 -0.16695653332E+02  0.34919515830E+02  0.00000000000E+00 0.  1.
</event>
<event>
 7    1  0.2601031E-009  0.1389200E+03  0.7561462E-02  0.1214790E+00
          1   -1    0    0  501    0  0.00000000000E+00  0.00000000000E+00  0.32193516620E+03  0.32193516620E+03  0.00000000000E+00 0. -1.
         -1   -1    0    0    0  501 -0.00000000000E+00 -0.00000000000E+00 -0.85759322462E+02  0.85759322462E+02  0.00000000000E+00 0.  1.
         25    2    1    2    0    0 -0.95670600396E+02  0.66497341443E+02  0.18417396662E+03  0.25128132841E+03  0.12508995093E+03 0.  0.
          5    1    3    3  502    0 -0.10356292273E+03  0.64602094812E+02  0.19922311827E+03  0.23367933770E+03  0.41800000000E+01 0.  1.
         -5    1    3    3    0  502  0.78923223326E+01  0.18952466308E+01 -0.15049151641E+02  0.17601990703E+02  0.41800000000E+01 0.  1.
        -11    1    1    2    0    0  0.47479281655E+02  0.16784292378E+02  0.96028394479E+01  0.51266062679E+02  0.00000000000E+00 0.  1.
         11    1    1    2    0    0  0.48191318741E+02 -0.83281633820E+02  0.42399037662E+02  0.10514709757E+03  0.00000000000E+00 0. -1.
</event>
<event>
 7    1  0.2961234E-009  0.1263562E+03  0.7561462E-02  0.1232965E+00
         -2   -1    0    0    0  501 -0.00000000000E+00  0.00000000000E+00  0.33425585768E+02  0.33425585768E+02  0.00000000000E+00 0.  1.
          2   -1    0    0  501    0  0.00000000000E+00 -0.00000000000E+00 -0.53168301539E+03  0.53168301539E+03  0.00000000000E+00 0. -1.
         25    2    1    2    0    0  0.61905914490E+02  0.46171389410E+02 -0.28368348022E+03  0.31950853667E+03  0.12508096821E+03 0.  0.
          5    1    3    3  502    0 -0.22650401201E+02  0.45010670962E+02 -0.17250050548E+03  0.17975788708E+03  0.41800000000E+01 0.  1.
         -5    1    3    3    0  502  0.84556315692E+02  0.11607184470E+01 -0.11118297473E+03  0.13975064959E+03  0.41800000000E+01 0.  1.
        -11    1    1    2    0    0 -0.12681910134E+02 -0.63913474869E+02 -0.14088927547E+03  0.15522741722E+03  0.00000000000E+00 0. -1.
         11    1    1    2    0    0 -0.49224004356E+02  0.17742085459E+02 -0.73684673936E+02  0.90372647269E+02  0.00000000000E+00 0.  1.
</event>
<event>
 7    1  0.2601031E-009  0.3371476E+03  0.7561462E-02  0.1068017E+00
          1   -1    0    0  501    0  0.00000000000E+00  0.00000000000E+00  0.94716914573E+03  0.94716914573E+03  0.00000000000E+00 0. -1.
         -1   -1    0    0    0  501 -0.00000000000E+00 -0.00000000000E+00 -0.12490938546E+03  0.12490938546E+03  0.00000000000E+00 0.  1.
         25    2    1    2    0    0 -0.57156720814E+02 -0.31448100525E+03  0.31340499061E+03  0.46479553082E+03  0.12508798477E+03 0.  0.
          5    1    3    3  502    0 -0.30267000877E+02 -0.32195607620E+01  0.25511509200E+02  0.39934526607E+02  0.41800000000E+01 0. -1.
         -5    1    3    3    0  502 -0.26889719937E+02 -0.31126144448E+03  0.28789348141E+03  0.42486100421E+03  0.41800000000E+01 0. -1.
        -11    1    1    2    0    0 -0.15889161778E+02  0.15379105211E+03  0.22416467598E+03  0.27231223830E+03  0.00000000000E+00 0. -1.
         11    1    1    2    0    0  0.73045882593E+02  0.16068995314E+03  0.28469009368E+03  0.33497076207E+03  0.00000000000E+00 0.  1.
</event>
<event>
 7    1  0.2601031E-009  0.7623159E+02  0.7561462E-02  0.1340099E+00
         -1   -1    0    0    0  501 -0.00000000000E+00  0.00000000000E+00  0.16153471818E+02  0.16153471818E+02  0.00000000000E+00 0.  1.
          1   -1    0    0  501    0  0.00000000000E+00 -0.00000000000E+00 -0.92319174907E+03  0.92319174907E+03  0.00000000000E+00 0. -1.
         25    2    1    2    0    0  0.51991323614E+02 -0.11506951441E+02 -0.56709186765E+03  0.58316080439E+03  0.12509128572E+03 0.  0.
          5    1    3    3  502    0  0.19317851841E+02 -0.24210812116E+02 -0.25275268718E+02  0.40195204090E+02  0.41800000000E+01 0. -1.
         -5    1    3    3    0  502  0.32673471773E+02  0.12703860675E+02 -0.54181659893E+03  0.54296560030E+03  0.41800000000E+01 0. -1.
        -11    1    1    2    0    0  0.44786765292E+01  0.26983066231E+02 -0.29358891454E+02  0.40125913249E+02  0.00000000000E+00 0.  1.
         11    1    1    2    0    0 -0.56470000144E+02 -0.15476114790E+02 -0.31058751815E+03  0.31605850325E+03  0.00000000000E+00 0. -1.
</event>
<event>
 7    1  0.2601031E-009  0.1442469E+03  0.7561462E-02  0.1207726E+00
          1   -1    0    0  501    0  0.00000000000E+00  0.00000000000E+00  0.65699532884E+02  0.65699532884E+02  0.00000000000E+00 0. -1.
         -1   -1    0    0    0  501 -0.00000000000E+00 -0.00000000000E+00 -0.38148799793E+03  0.38148799793E+03  0.00000000000E+00 0.  1.
         25    2    1    2    0    0 -0.47408934274E+02  0.98271507276E+02 -0.11698676581E+03  0.20307182217E+03  0.12508942958E+03 0.  0.
          5    1    3    3  502    0 -0.83933706139E+02  0.33894926964E+02 -0.76578966278E+02  0.11864039606E+03  0.41800000000E+01 0.  1.
         -5    1    3    3    0  502  0.36524771865E+02  0.64376580312E+02 -0.40407799527E+02  0.84431426111E+02  0.41800000000E+01 0.  1.
        -11    1    1    2    0    0  0.34276612843E+02 -0.11754696547E+02 -0.12337823368E+03  0.12858945379E+03  0.00000000000E+00 0.  1.
         11    1    1    2    0    0  0.13132321432E+02 -0.86516810730E+02 -0.75423465555E+02  0.11552625486E+03  0.00000000000E+00 0. -1.
</event>
<event>
 7    1  0.2601031E-009  0.1971324E+03  0.7561462E-02  0.1152181E+00
          1   -1    0    0  501    0  0.00000000000E+00  0.00000000000E+00  0.13346026892E+03  0.13346026892E+03  0.00000000000E+00 0. -1.
         -1   -1    0    0    0  501 -0.00000000000E+00 -0.00000000000E+00 -0.36199242966E+03  0.36199242966E+03  0.00000000000E+00 0.  1.
         25    2    1    2    0    0  0.18444291544E+03  0.23502063733E+02 -0.66228598559E+02  0.23367588543E+03  0.12508659444E+03 0.  0.
          5    1    3    3  502    0  0.54711645150E+02  0.35690737649E+02  0.29636466631E+02  0.71853917244E+02  0.41800000000E+01 0. -1.
         -5    1    3    3    0  502  0.12973127029E+03 -0.12188673916E+02 -0.95865065190E+02  0.16182196818E+03  0.41800000000E+01 0. -1.
        -11    1    1    2    0    0 -0.54599608354E+02  0.24712348386E+02 -0.19961348000E+02  0.63168606199E+02  0.00000000000E+00 0.  1.
         11    1    1    2    0    0 -0.12984330708E+03 -0.48214412119E+02 -0.14234221418E+03  0.19860820695E+03  0.00000000000E+00 0. -1.
</event>
<event>
 7    1  0.2601031E-009  0.2273333E+03  0.7561462E-02  0.1128531E+00
          1   -1    0    0  501    0  0.00000000000E+00  0.00000000000E+00  0.72071110313E+03  0.72071110313E+03  0.00000000000E+00 0. -1.
         -1   -1    0    0    0  501 -0.00000000000E+00 -0.00000000000E+00 -0.91446099688E+02  0.91446099688E+02  0.00000000000E+00 0.  1.
         25    2    1    2    0    0  0.13963970260E+03 -0.16758796533E+03  0.44834110758E+03  0.51404541694E+03  0.12509184332E+03 0.  0.
          5    1    3    3  502    0  0.16159055271E+02 -0.64539334765E+02  0.24958755697E+03  0.25833672173E+03  0.41800000000E+01 0.  1.
         -5    1    3    3    0  502  0.12348064733E+03 -0.10304863057E+03  0.19875355061E+03  0.25570869522E+03  0.41800000000E+01 0.  1.
        -11    1    1    2    0    0 -0.42203909602E+02  0.12594156242E+02  0.52002997374E+01  0.44348910635E+02  0.00000000000E+00 0.  1.
         11    1    1    2    0    0 -0.97435793001E+02  0.15499380909E+03  0.17572359612E+03  0.25376287524E+03  0.00000000000E+00 0. -1.
</event>
<event>
 7    1  0.2601031E-009  0.1004317E+03  0.7561462E-02  0.1279391E+00
         -1   -1    0    0    0  501 -0.00000000000E+00  0.00000000000E+00  0.12420570119E+03  0.12420570119E+03  0.00000000000E+00 0.  1.
          1   -1    0    0  501    0  0.00000000000E+00 -0.00000000000E+00 -0.15732396878E+03  0.15732396878E+03  0.00000000000E+00 0. -1.
         25    2    1    2    0    0 -0.31657163944E+02  0.42247002125E+02  0.52731024616E+02  0.14565256987E+03  0.12508846843E+03 0.  0.
          5    1    3    3  502    0  0.30159668761E+02  0.46345083706E+02  0.61652559615E+02  0.82921546721E+02  0.41800000000E+01 0. -1.
         -5    1    3    3    0  502 -0.61816832705E+02 -0.40980815810E+01 -0.89215349988E+01  0.62731023147E+02  0.41800000000E+01 0. -1.
        -11    1    1    2    0    0  0.51661840411E+02 -0.28033162896E+02 -0.93264597531E+02  0.11024105011E+03  0.00000000000E+00 0. -1.
         11    1    1    2    0    0 -0.20004676467E+02 -0.14213839229E+02  0.74153053292E+01  0.25636049994E+02  0.00000000000E+00 0.  1.
</event>
<event>
 7    1  0.2601031E-009  0.1043033E+03  0.7561462E-02  0.1271498E+00
          1   -1    0    0  501    0  0.00000000000E+00  0.00000000000E+00  0.59445086583E+03  0.59445086583E+03  0.00000000000E+00 0.  1.
         -1   -1    0    0    0  501 -0.00000000000E+00 -0.00000000000E+00 -0.35382517000E+02  0.35382517000E+02  0.00000000000E+00 0. -1.
         25    2    1    2    0    0 -0.16002609386E+02 -0.62103929797E+02  0.46173523236E+03  0.48266033102E+03  0.12509431937E+03 0.  0.
          5    1    3    3  502    0 -0.38554406889E+02 -0.68291568718E+02  0.44878341614E+03  0.45560312515E+03  0.41800000000E+01 0.  1.
         -5    1    3    3    0  502  0.22551797503E+02  0.61876389212E+01  0.12951816219E+02  0.27057205869E+02  0.41800000000E+01 0.  1.
        -11    1    1    2    0    0  0.15806032635E+02  0.83467935385E+02  0.91856623529E+02  0.12511740962E+03  0.00000000000E+00 0.  1.
         11    1    1    2    0    0  0.19657675145E+00 -0.21364005588E+02  0.54764929432E+01  0.22055642184E+02  0.00000000000E+00 0. -1.
</event>
<event>
 7    1  0.2601031E-009  0.9104860E+02  0.7561462E-02  0.1300332E+00
          1   -1    0    0  501    0  0.00000000000E+00  0.00000000000E+00  0.98930788828E+02  0.98930788828E+02  0.00000000000E+00 0. -1.
         -1   -1    0    0    0  501 -0.00000000000E+00 -0.00000000000E+00 -0.12714124396E+03  0.12714124396E+03  0.00000000000E+00 0.  1.
         25    2    1    2    0    0 -0.33841474813E+02 -0.64493078448E+01  0.40146667642E+02  0.13582013641E+03  0.12509402680E+03 0.  0.
          5    1    3    3  502    0 -0.78888571291E+02  0.99656821785E+01  0.13351209084E+02  0.80736910305E+02  0.41800000000E+01 0.  1.
         -5    1    3    3    0  502  0.45047096478E+02 -0.16414990023E+02  0.26795458559E+02  0.55083226103E+02  0.41800000000E+01 0.  1.
        -11    1    1    2    0    0  0.12769907796E+02  0.23826446186E+02 -0.16578949858E+02  0.31711695971E+02  0.00000000000E+00 0.  1.
         11    1    1    2    0    0  0.21071567017E+02 -0.17377138341E+02 -0.51778172915E+02  0.58540200409E+02  0.00000000000E+00 0. -1.
</event>
<event>
 7    1  0.2601031E-009  0.1053107E+03  0.7561462E-02  0.1269509E+00
         -2   -1    0    0    0  501 -0.00000000000E+00  0.00000000000E+00  0.83429446518E+02  0.83429446518E+02  0.00000000000E+00 0.  1.
          2   -1    0    0  501    0  0.00000000000E+00 -0.00000000000E+00 -0.38869144944E+03  0.38869144944E+03  0.00000000000E+00 0. -1.
         25    2    1    2    0    0  0.70510791282E+01  0.13729406587E+02 -0.32836862636E+03  0.35172704467E+03  0.12509094632E+03 0.  0.
          5    1    3    3  502    0 -0.28752156398E+02  0.59581578730E+02 -0.14810763453E+03  0.16226519907E+03  0.41800000000E+01 0. -1.
         -5    1    3    3    0  502  0.35803235526E+02 -0.45852172143E+02 -0.18026099183E+03  0.18946184561E+03  0.41800000000E+01 0. -1.
        -11    1    1    2    0    0  0.11492520413E+02  0.33421465562E+02 -0.30463230260E+02  0.46659198274E+02  0.00000000000E+00 0. -1.
         11    1    1    2    0    0 -0.18543599541E+02 -0.47150872149E+02  0.53569853704E+02  0.73734653008E+02  0.00000000000E+00 0.  1.
</event>
<event>
 7    1  0.2601031E-009  0.1024226E+03  0.7561462E-02  0.1275283E+00
          2   -1    0    0  501    0  0.00000000000E+00  0.00000000000E+00  0.27738721161E+02  0.27738721161E+02  0.00000000000E+00 0.  1.
         -2   -1    0    0    0  501 -0.00000000000E+00 -0.00000000000E+00 -0.50319096066E+03  0.50319096066E+03  0.00000000000E+00 0. -1.
         25    2    1    2    0    0  0.18348033722E+02  0.21195208089E+02 -0.35711250554E+03  0.37942349732E+03  0.12508781521E+03 0.  0.
          5    1    3    3  502    0 -0.52094893733E+01 -0.49472412719E+02 -0.18932790736E+03  0.19579884398E+03  0.41800000000E+01 0.  1.
         -5    1    3    3    0  502  0.23557523095E+02  0.70667620808E+02 -0.16778459818E+03  0.18362465333E+03  0.41800000000E+01 0.  1.
        -11    1    1    2    0    0  0.22760594338E+02  0.13551860813E+02 -0.63313733411E+01  0.27235709546E+02  0.00000000000E+00 0.  1.
         11    1    1    2    0    0 -0.41108628060E+02 -0.34747068902E+02 -0.11200836061E+03  0.12427047496E+03  0.00000000000E+00 0. -1.
</event>
<event>
 7    1  0.2601031E-009  0.1347687E+03  0.7561462E-02  0.1220547E+00
          2   -1    0    0  501    0  0.00000000000E+00  0.00000000000E+00  0.36855157528E+03  0.36855157528E+03  0.00000000000E+00 0. -1.
         -2   -1    0    0    0  501 -0.00000000000E+00 -0.00000000000E+00 -0.60574052522E+02  0.60574052522E+02  0.00000000000E+00 0.  1.
         25    2    1    2    0    0 -0.43958674822E+02 -0.92042712866E+02  0.17254568326E+03  0.23627025222E+03  0.12508954069E+03 0.  0.
          5    1    3    3  502    0 -0.73618059812E+02 -0.10425821074E+03  0.12446589034E+03  0.17832168543E+03  0.41800000000E+01 0.  1.
         -5    1    3    3    0  502  0.29659384989E+02  0.12215497873E+02  0.48079792919E+02  0.57948566793E+02  0.41800000000E+01 0.  1.
        -11    1    1    2    0    0  0.20386029264E+02  0.80879582261E+02  0.37395037326E+02  0.91408346623E+02  0.00000000000E+00 0.  1.
         11    1    1    2    0    0  0.23572645558E+02  0.11163130605E+02  0.98036802173E+02  0.10144702895E+03  0.00000000000E+00 0. -1.
</event>
<event>
 7    1  0.2601031E-009  0.1875966E+03  0.7561462E-02  0.1160647E+00
          1   -1    0    0  501    0  0.00000000000E+00  0.00000000000E+00  0.39201979888E+03  0.39201979888E+03  0.00000000000E+00 0. -1.
         -1   -1    0    0    0  501 -0.00000000000E+00 -0.00000000000E+00 -0.11464753231E+03  0.11464753231E+03  0.00000000000E+00 0.  1.
         25    2    1    2    0    0  0.11373416348E+03 -0.13298373662E+03  0.87797984211E+02  0.23232824284E+03  0.12509113575E+03 0.  0.
          5    1    3    3  502    0 -0.16288267534E+02 -0.26559571267E+02 -0.15497823047E+02  0.35048158359E+02  0.41800000000E+01 0. -1.
         -5    1    3    3    0  502  0.13002243101E+03 -0.10642416535E+03  0.10329580726E+03  0.19728008449E+03  0.41800000000E+01 0. -1.
        -11    1    1    2    0    0 -0.72474885036E+02  0.95906578763E+02  0.62067785670E+02  0.13528891613E+03  0.00000000000E+00 0.  1.
         11    1    1    2    0    0 -0.41259278445E+02  0.37077157855E+02  0.12750649669E+03  0.13905017221E+03  0.00000000000E+00 0. -1.
</event>
<event>
 7    1  0.2601031E-009  0.7245809E+02  0.7561462E-02  0.1351928E+00
         -1   -1    0    0    0  501 -0.00000000000E+00  0.00000000000E+00  0.11000657139E+03  0.11000657139E+03  0.00000000000E+00 0.  1.
          1   -1    0    0  501    0  0.00000000000E+00 -0.00000000000E+00 -0.12322651677E+03  0.12322651677E+03  0.00000000000E+00 0. -1.
         25    2    1    2    0    0 -0.36800769387E+02  0.42101825406E+01 -0.28458771916E+02  0.13352574367E+03  0.12508876952E+03 0.  0.
          5    1    3    3  502    0 -0.33230643693E+02  0.17827133470E+02 -0.75363835979E+02  0.84375722465E+02  0.41800000000E+01 0. -1.
         -5    1    3    3    0  502 -0.35701256945E+01 -0.13616950930E+02  0.46905064063E+02  0.49150021209E+02  0.41800000000E+01 0. -1.
        -11    1    1    2    0    0  0.45156559132E+02  0.31860066042E+02  0.26105555121E+02  0.61120198372E+02  0.00000000000E+00 0.  1.
         11    1    1    2    0    0 -0.83557897451E+01 -0.36070248582E+02 -0.10866728579E+02  0.38587146112E+02  0.00000000000E+00 0. -1.
</event>
<event>
 7    1  0.2601031E-009  0.1491379E+03  0.7561462E-02  0.1201536E+00
         -2   -1    0    0    0  501 -0.00000000000E+00  0.00000000000E+00  0.38150300965E+02  0.38150300965E+02  0.00000000000E+00 0.  1.
          2   -1    0    0  501    0  0.00000000000E+00 -0.00000000000E+00 -0.96725411133E+03  0.96725411133E+03  0.00000000000E+00 0. -1.
         25    2    1    2    0    0  0.63784994889E+02 -0.11661697343E+03 -0.71289991460E+03  0.73589576764E+03  0.12509295957E+03 0.  0.
          5    1    3    3  502    0  0.70147787382E+02 -0.10684209104E+03 -0.71208782791E+03  0.72347943409E+03  0.41800000000E+01 0. -1.
         -5    1    3    3    0  502 -0.63627924924E+01 -0.97748823890E+01 -0.81208668420E+00  0.12416333549E+02  0.41800000000E+01 0. -1.
        -11    1    1    2    0    0 -0.57306242903E+01  0.96342553293E+02 -0.15606570932E+03  0.18349722956E+03  0.00000000000E+00 0.  1.
         11    1    1    2    0    0 -0.58054370599E+02  0.20274420133E+02 -0.60138186446E+02  0.86011415094E+02  0.00000000000E+00 0. -1.
</event>
<event>
 7    1  0.2601031E-009  0.8098018E+02  0.7561462E-02  0.1326293E+00
          1   -1    0    0  501    0  0.00000000000E+00  0.00000000000E+00  0.25822657810E+03  0.25822657810E+03  0.00000000000E+00 0. -1.
         -1   -1    0    0    0  501 -0.00000000000E+00 -0.00000000000E+00 -0.60151907566E+02  0.60151907566E+02  0.00000000000E+00 0.  1.
         25    2    1    2    0    0 -0.11388506674E+02 -0.51491648205E+02  0.70249650099E+02  0.15284975660E+03  0.12508775654E+03 0.  0.
          5    1    3    3  502    0  0.20676392896E+02 -0.21506069801E+02  0.96796927365E+02  0.10137623888E+03  0.41800000000E+01 0.  1.
         -5    1    3    3    0  502 -0.32064899570E+02 -0.29985578404E+02 -0.26547277267E+02  0.51473517724E+02  0.41800000000E+01 0.  1.
        -11    1    1    2    0    0  0.19505566566E+02 -0.12542178910E+02  0.98595218310E+00  0.23210891422E+02  0.00000000000E+00 0.  1.
         11    1    1    2    0    0 -0.81170598928E+01  0.64033827115E+02  0.12683906825E+03  0.14231783764E+03  0.00000000000E+00 0. -1.
</event>
<event>
 7    1  0.2601031E-009  0.1212648E+03  0.7561462E-02  0.1241025E+00
         -3   -1    0    0    0  501 -0.00000000000E+00  0.00000000000E+00  0.19316271035E+03  0.19316271035E+03  0.00000000000E+00 0.  1.
          3   -1    0    0  501    0  0.00000000000E+00 -0.00000000000E+00 -0.84221701086E+02  0.84221701086E+02  0.00000000000E+00 0. -1.
         25    2    1    2    0    0 -0.36901916833E+02 -0.48757156899E+02  0.34469580235E+02  0.14343682797E+03  0.12508780852E+03 0.  0.
          5    1    3    3  502    0 -0.45359912369E+02  0.33411850639E+02  0.12464941001E+02  0.57850847595E+02  0.41800000000E+01 0.  1.
         -5    1    3    3    0  502  0.84579955363E+01 -0.82169007539E+02  0.22004639233E+02  0.85585980372E+02  0.41800000000E+01 0.  1.
        -11    1    1    2    0    0  0.11178366803E+02 -0.23828265175E+02  0.43709280507E+02  0.51021988476E+02  0.00000000000E+00 0. -1.
         11    1    1    2    0    0  0.25723550030E+02  0.72585422074E+02  0.30762148526E+02  0.82925594997E+02  0.00000000000E+00 0.  1.
</event>
<event>
 7    1  0.2601031E-009  0.2211787E+03  0.7561462E-02  0.1133007E+00
         -2   -1    0    0    0  501 -0.00000000000E+00  0.00000000000E+00  0.47277215646E+02  0.47277215646E+02  0.00000000000E+00 0.  1.
          2   -1    0    0  501    0  0.00000000000E+00 -0.00000000000E+00 -0.10424927361E+04  0.10424927361E+04  0.00000000000E+00 0. -1.
         25    2    1    2    0    0 -0.96495378635E+02 -0.16603382362E+03 -0.48374680817E+03  0.53529453257E+03  0.12510265187E+03 0.  0.
          5    1    3    3  502    0 -0.53284948102E+02  0.40994140335E+01 -0.11419671799E+03  0.12615250171E+03  0.41800000000E+01 0. -1.
         -5    1    3    3    0  502 -0.43210430533E+02 -0.17013323765E+03 -0.36955009018E+03  0.40914203086E+03  0.41800000000E+01 0. -1.
        -11    1    1    2    0    0  0.11159304300E+03  0.11624381367E+03 -0.40783383128E+03  0.43851347231E+03  0.00000000000E+00 0. -1.
         11    1    1    2    0    0 -0.15097664367E+02  0.49790009945E+02 -0.10363488104E+03  0.11596194689E+03  0.00000000000E+00 0.  1.
</event>
<event>
 7    1  0.2601031E-009  0.7545525E+02  0.7561462E-02  0.1342467E+00
          2   -1    0    0  501    0  0.00000000000E+00  0.00000000000E+00  0.36837174381E+02  0.36837174381E+02  0.00000000000E+00 0. -1.
         -2   -1    0    0    0  501 -0.00000000000E+00 -0.00000000000E+00 -0.36453742245E+03  0.36453742245E+03  0.00000000000E+00 0.  1.
         25    2    1    2    0    0 -0.26025355206E+02 -0.28472439694E+02 -0.14676791850E+03  0.19666400345E+03  0.12509160410E+03 0.  0.
          5    1    3    3  502    0 -0.57872063090E+02 -0.27763247504E+01 -0.16989299801E+02  0.60522659997E+02  0.41800000000E+01 0.  1.
         -5    1    3    3    0  502  0.31846707884E+02 -0.25696114944E+02 -0.12977861870E+03  0.13614134345E+03  0.41800000000E+01 0.  1.
        -11    1    1    2    0    0  0.32508387977E+02  0.13181522433E+02 -0.18443114400E+03  0.18773756869E+03  0.00000000000E+00 0.  1.
         11    1    1    2    0    0 -0.64830327705E+01  0.15290917261E+02  0.34988144282E+01  0.16973024686E+02  0.00000000000E+00 0. -1.
</event>
<event>
 7    1  0.2601031E-009  0.1717768E+03  0.7561462E-02  0.1176008E+00
          1   -1    0    0  501    0  0.00000000000E+00  0.00000000000E+00  0.10819497785E+03  0.10819497785E+03  0.00000000000E+00 0. -1.
         -1   -1    0    0    0  501 -0.00000000000E+00 -0.00000000000E+00 -0.38614609432E+03  0.38614609432E+03  0.00000000000E+00 0.  1.
         25    2    1    2    0    0  0.14397241977E+03  0.49997622254E+02 -0.24429358836E+03  0.31393461692E+03  0.12509103286E+03 0.  0.
          5    1    3    3  502    0  0.22706970052E+02 -0.19709988871E+02 -0.12928814739E+03  0.13280432073E+03  0.41800000000E+01 0.  1.
         -5    1    3    3    0  502  0.12126544972E+03  0.69707611125E+02 -0.11500544097E+03  0.18113029618E+03  0.41800000000E+01 0.  1.
        -11    1    1    2    0    0 -0.66777427893E+02  0.19314718026E+02 -0.32297841367E+02  0.76651378105E+02  0.00000000000E+00 0.  1.
         11    1    1    2    0    0 -0.77194991875E+02 -0.69312340279E+02 -0.13596867552E+01  0.10375507715E+03  0.00000000000E+00 0. -1.
</event>
<event>
 7    1  0.2601031E-009  0.1378073E+03  0.7561462E-02  0.1216310E+00
          1   -1    0    0  501    0  0.00000000000E+00  0.00000000000E+00  0.23643421822E+03  0.23643421822E+03  0.00000000000E+00 0. -1.
         -1   -1    0    0    0  501 -0.00000000000E+00 -0.00000000000E+00 -0.13949081627E+03  0.13949081627E+03  0.00000000000E+00 0.  1.
         25    2    1    2    0    0  0.40634824634E+02 -0.80031002977E+02  0.16953269802E+03  0.22900270216E+03  0.12507898099E+03 0.  0.
          5    1    3    3  502    0  0.85408435329E+02 -0.52672206176E+02  0.99292124277E+02  0.14122804421E+03  0.41800000000E+01 0. -1.
         -5    1    3    3    0  502 -0.44773610695E+02 -0.27358796801E+02  0.70240573745E+02  0.87774657943E+02  0.41800000000E+01 0. -1.
        -11    1    1    2    0    0 -0.63526348836E+02  0.76412804718E+02 -0.73702773629E+02  0.12371989558E+03  0.00000000000E+00 0.  1.
         11    1    1    2    0    0  0.22891524202E+02  0.36181982586E+01  0.11134775595E+01  0.23202436751E+02  0.00000000000E+00 0. -1.
</event>
<event>
 7    1  0.2601031E-009  0.1108375E+03  0.7561462E-02  0.1259027E+00
         -2   -1    0    0    0  501 -0.00000000000E+00  0.00000000000E+00  0.38486891547E+02  0.38486891547E+02  0.00000000000E+00 0.  1.
          2   -1    0    0  501    0  0.00000000000E+00 -0.00000000000E+00 -0.50291792863E+03  0.50291792863E+03  0.00000000000E+00 0. -1.
         25    2    1    2    0    0  0.69196761170E+02 -0.38273509426E+02 -0.32364956631E+03  0.35587960008E+03  0.12509274442E+03 0.  0.
          5    1    3    3  502    0  0.10506131547E+02 -0.70397517046E+02 -0.10299389555E+03  0.12526533490E+03  0.41800000000E+01 0.  1.
         -5    1    3    3    0  502  0.58690629623E+02  0.32124007620E+02 -0.22065567075E+03  0.23061426519E+03  0.41800000000E+01 0.  1.
        -11    1    1    2    0    0 -0.25263641299E+02  0.28955477378E+02 -0.13485774131E+03  0.14022582370E+03  0.00000000000E+00 0. -1.
         11    1    1    2    0    0 -0.43933119870E+02  0.93180320482E+01 -0.59237294721E+01  0.45299396394E+02  0.00000000000E+00 0.  1.
</event>
<event>
 7    1  0.2601031E-009  0.1048738E+03  0.7561462E-02  0.1270369E+00
         -2   -1    0    0    0  501 -0.00000000000E+00  0.00000000000E+00  0.14699278295E+03  0.14699278295E+03  0.00000000000E+00 0.  1.
          2   -1    0    0  501    0  0.00000000000E+00 -0.00000000000E+00 -0.18645011748E+03  0.18645011748E+03  0.00000000000E+00 0. -1.
         25    2    1    2    0    0  0.42158722880E+01 -0.70850126071E+02 -0.12463137607E+03  0.19030979197E+03  0.12508926043E+03 0.  0.
          5    1    3    3  502    0 -0.74604493662E+01  0.19524697425E+02 -0.90396359955E+02  0.92875434898E+02  0.41800000000E+01 0.  1.
         -5    1    3    3    0  502  0.11676321654E+02 -0.90374823496E+02 -0.34235016116E+02  0.97434357071E+02  0.41800000000E+01 0.  1.
        -11    1    1    2    0    0 -0.31893252498E+02  0.59070527289E+02  0.17954157858E+02  0.69489988728E+02  0.00000000000E+00 0. -1.
         11    1    1    2    0    0  0.27677380210E+02  0.11779598783E+02  0.67219883675E+02  0.73643119733E+02  0.00000000000E+00 0.  1.
</event>
<event>
 7    1  0.2601031E-009  0.1460814E+03  0.7561462E-02  0.1205373E+00
         -2   -1    0    0    0  501 -0.00000000000E+00  0.00000000000E+00  0.32401351873E+03  0.32401351873E+03  0.00000000000E+00 0.  1.
          2   -1    0    0  501    0  0.00000000000E+00 -0.00000000000E+00 -0.73650239589E+02  0.73650239589E+02  0.00000000000E+00 0. -1.
         25    2    1    2    0    0 -0.10621367671E+03 -0.10556075746E+02  0.10959534196E+03  0.19761299023E+03  0.12508788540E+03 0.  0.
          5    1    3    3  502    0  0.15675255908E+02 -0.34650542926E+02  0.13817508937E+02  0.40678860924E+02  0.41800000000E+01 0. -1.
         -5    1    3    3    0  502 -0.12188893262E+03  0.24094467180E+02  0.95777833026E+02  0.15693412931E+03  0.41800000000E+01 0. -1.
        -11    1    1    2    0    0  0.10164515050E+03 -0.15773461648E+02  0.13946692540E+03  0.17329616843E+03  0.00000000000E+00 0.  1.
         11    1    1    2    0    0  0.45685262054E+01  0.26329537394E+02  0.13010117806E+01  0.26754599655E+02  0.00000000000E+00 0. -1.
</event>
<event>
 7    1  0.2601031E-009  0.9699513E+02  0.7561462E-02  0.1286745E+00
          1   -1    0    0  501    0  0.00000000000E+00  0.00000000000E+00  0.23053820358E+03  0.23053820358E+03  0.00000000000E+00 0. -1.
         -1   -1    0    0    0  501 -0.00000000000E+00 -0.00000000000E+00 -0.62543739720E+02  0.62543739720E+02  0.00000000000E+00 0.  1.
         25    2    1    2    0    0  0.40070687311E+02  0.15658213794E+02  0.13236154897E+03  0.18713234390E+03  0.12509234529E+03 0.  0.
          5    1    3    3  502    0 -0.21259574515E+02  0.49460453144E+02  0.26536383158E+02  0.60166086501E+02  0.41800000000E+01 0. -1.
         -5    1    3    3    0  502  0.61330261826E+02 -0.33802239350E+02  0.10582516581E+03  0.12696625740E+03  0.41800000000E+01 0. -1.
        -11    1    1    2    0    0 -0.33190014918E+02 -0.35642918834E+02 -0.15099778023E+02  0.50990176011E+02  0.00000000000E+00 0.  1.
         11    1    1    2    0    0 -0.68806723931E+01  0.19984705040E+02  0.50732692918E+02  0.54959423386E+02  0.00000000000E+00 0. -1.
</event>
<event>
 7    1  0.2601031E-009  0.1137831E+03  0.7561462E-02  0.1253720E+00
          2   -1    0    0  501    0  0.00000000000E+00  0.00000000000E+00  0.34494643519E+03  0.34494643519E+03  0.00000000000E+00 0.  1.
         -2   -1    0    0    0  501 -0.00000000000E+00 -0.00000000000E+00 -0.73277206618E+02  0.73277206618E+02  0.00000000000E+00 0. -1.
         25    2    1    2    0    0  0.40351525182E+02  0.31374286423E+02  0.97581630844E+01  0.13548335504E+03  0.12509167164E+03 0.  0.
          5    1    3    3  502    0 -0.43174200349E+02  0.15323199415E+02  0.19110625653E+02  0.49814660783E+02  0.41800000000E+01 0. -1.
         -5    1    3    3    0  502  0.83525725531E+02  0.16051087007E+02 -0.93524625686E+01  0.85668694257E+02  0.41800000000E+01 0. -1.
        -11    1    1    2    0    0  0.24651489116E+02 -0.10385109871E+01  0.24667706260E+02  0.34889398860E+02  0.00000000000E+00 0. -1.
         11    1    1    2    0    0 -0.65003014298E+02 -0.30335775435E+02  0.23724335922E+03  0.24785088790E+03  0.00000000000E+00 0.  1.
</event>
<event>
 7    1  0.2601031E-009  0.1298777E+03  0.7561462E-02  0.1227637E+00
          2   -1    0    0  501    0  0.00000000000E+00  0.00000000000E+00  0.43464686442E+03  0.43464686442E+03  0.00000000000E+00 0. -1.
         -2   -1    0    0    0  501 -0.00000000000E+00 -0.00000000000E+00 -0.61879558458E+02  0.61879558458E+02  0.00000000000E+00 0.  1.
         25    2    1    2    0    0 -0.42166790583E+02  0.11044370368E+03  0.25575459167E+03  0.30827450233E+03  0.12508760018E+03 0.  0.
          5    1    3    3  502    0  0.85894454823E+01  0.48039599687E+02  0.10447836676E+02  0.50082046714E+02  0.41800000000E+01 0. -1.
         -5    1    3    3    0  502 -0.50756236065E+02  0.62404103995E+02  0.24530675499E+03  0.25819245562E+03  0.41800000000E+01 0. -1.
        -11    1    1    2    0    0  0.94186506189E+01 -0.92319033948E+02  0.36972138685E+02  0.99892212147E+02  0.00000000000E+00 0.  1.
         11    1    1    2    0    0  0.32748139964E+02 -0.18124669734E+02  0.80040575615E+02  0.88359708401E+02  0.00000000000E+00 0. -1.
</event>
<event>
 7    1  0.2601031E-009  0.9772970E+02  0.7561462E-02  0.1285144E+00
         -2   -1    0    0    0  501 -0.00000000000E+00  0.00000000000E+00  0.87828194489E+02  0.87828194489E+02  0.00000000000E+00 0.  1.
          2   -1    0    0  501    0  0.00000000000E+00 -0.00000000000E+00 -0.18818758055E+03  0.18818758055E+03  0.00000000000E+00 0. -1.
         25    2    1    2    0    0 -0.65899981118E+02  0.15363457428E+02 -0.63280909290E+02  0.15566701957E+03  0.12509558012E+03 0.  0.
          5    1    3    3  502    0  0.18952079864E-01 -0.28494765558E+02 -0.70398712443E+02  0.76061837586E+02  0.41800000000E+01 0. -1.
         -5    1    3    3    0  502 -0.65918933198E+02  0.43858222986E+02  0.71178031527E+01  0.79605181987E+02  0.41800000000E+01 0. -1.
        -11    1    1    2    0    0  0.35279206475E+02 -0.36033903416E+02  0.18411872964E+02  0.53684836509E+02  0.00000000000E+00 0.  1.
         11    1    1    2    0    0  0.30620774642E+02  0.20670445988E+02 -0.55490349733E+02  0.66663918956E+02  0.00000000000E+00 0. -1.
</event>
<event>
 7    1  0.2601031E-009  0.8762910E+02  0.7561462E-02  0.1308697E+00
          2   -1    0    0  501    0  0.00000000000E+00  0.00000000000E+00  0.31693270851E+02  0.31693270851E+02  0.00000000000E+00 0. -1.
         -2   -1    0    0    0  501 -0.00000000000E+00 -0.00000000000E+00 -0.84959475880E+03  0.84959475880E+03  0.00000000000E+00 0.  1.
         25    2    1    2    0    0  0.32303839211E+02 -0.14554382266E+02 -0.75439339520E+03  0.76551388960E+03  0.12508697923E+03 0.  0.
          5    1    3    3  502    0  0.36648084775E+02 -0.46618336974E+02 -0.69672293986E+03  0.69925437345E+03  0.41800000000E+01 0. -1.
         -5    1    3    3    0  502 -0.43442455635E+01  0.32063954708E+02 -0.57670455340E+02  0.66259516148E+02  0.41800000000E+01 0. -1.
        -11    1    1    2    0    0  0.14506082029E+01 -0.28466868934E+02 -0.52873146421E+02  0.60066933528E+02  0.00000000000E+00 0.  1.
         11    1    1    2    0    0 -0.33754447414E+02  0.43021251200E+02 -0.10634946322E+02  0.55707206521E+02  0.00000000000E+00 0. -1.
</event>
<event>
 7    1  0.2601031E-009  0.2741163E+03  0.7561462E-02  0.1098947E+00
          2   -1    0    0  501    0  0.00000000000E+00  0.00000000000E+00  0.28026567892E+04  0.28026567892E+04  0.00000000000E+00 0. -1.
         -2   -1    0    0    0  501 -0.00000000000E+00 -0.00000000000E+00 -0.29923262165E+02  0.29923262165E+02  0.00000000000E+00 0.  1.
         25    2    1    2    0    0  0.19290694759E+03 -0.18731250552E+03  0.14621111050E+04  0.14918829753E+04  0.12508742324E+03 0.  0.
          5    1    3    3  502    0  0.10330567361E+03 -0.72154658308E+02  0.98233792036E+03  0.99039568815E+03  0.41800000000E+01 0. -1.
         -5    1    3    3    0  502  0.89601273982E+02 -0.11515784721E+03  0.47977318465E+03  0.50148728716E+03  0.41800000000E+01 0. -1.
        -11    1    1    2    0    0 -0.16907995946E+03  0.12739102212E+03  0.11086140555E+04  0.11286459273E+04  0.00000000000E+00 0. -1.
         11    1    1    2    0    0 -0.23826988129E+02  0.59921483395E+02  0.20200836653E+03  0.21205114874E+03  0.00000000000E+00 0.  1.
</event>
<event>
 7    1  0.2601031E-009  0.1817505E+03  0.7561462E-02  0.1166120E+00
         -1   -1    0    0    0  501 -0.00000000000E+00  0.00000000000E+00  0.14307346640E+03  0.14307346640E+03  0.00000000000E+00 0.  1.
          1   -1    0    0  501    0  0.00000000000E+00 -0.00000000000E+00 -0.30760763698E+03  0.30760763698E+03  0.00000000000E+00 0. -1.
         25    2    1    2    0    0 -0.10818098453E+02 -0.17741597177E+03 -0.64688334350E+02  0.22677141279E+03  0.12508890745E+03 0.  0.
          5    1    3    3  502    0  0.20637199991E+02 -0.95185645515E+02  0.25395554527E+02  0.10074029842E+03  0.41800000000E+01 0.  1.
         -5    1    3    3    0  502 -0.31455298444E+02 -0.82230326251E+02 -0.90083888876E+02  0.12603111438E+03  0.41800000000E+01 0.  1.
        -11    1    1    2    0    0  0.97783031600E+01  0.10593823026E+03 -0.68434853896E+01  0.10660842901E+03  0.00000000000E+00 0.  1.
         11    1    1    2    0    0  0.10397952934E+01  0.71477741502E+02 -0.93002350847E+02  0.11730126158E+03  0.00000000000E+00 0. -1.
</event>
<event>
 7    1  0.2601031E-009  0.1312853E+03  0.7561462E-02  0.1225561E+00
         -2   -1    0    0    0  501 -0.00000000000E+00  0.00000000000E+00  0.28972829756E+02  0.28972829756E+02  0.00000000000E+00 0.  1.
          2   -1    0    0  501    0  0.00000000000E+00 -0.00000000000E+00 -0.87428653812E+03  0.87428653812E+03  0.00000000000E+00 0. -1.
         25    2    1    2    0    0  0.86900290832E+02  0.59739689337E+02 -0.59230843985E+03  0.61448974192E+03  0.12509142245E+03 0.  0.
          5    1    3    3  502    0  0.23341260140E+02  0.54710970075E+02 -0.49172974185E+03  0.49533192517E+03  0.41800000000E+01 0. -1.
         -5    1    3    3    0  502  0.63559030692E+02  0.50287192623E+01 -0.10057869801E+03  0.11915781675E+03  0.41800000000E+01 0. -1.
        -11    1    1    2    0    0 -0.97881776504E+02 -0.22789400293E+02 -0.17671851469E+03  0.20329690694E+03  0.00000000000E+00 0.  1.
         11    1    1    2    0    0  0.10981485672E+02 -0.36950289044E+02 -0.76286753812E+02  0.85472719011E+02  0.00000000000E+00 0. -1.
</event>
<event>
 7    1  0.2601031E-009  0.1736976E+03  0.7561462E-02  0.1174046E+00
         -2   -1    0    0    0  501 -0.00000000000E+00  0.00000000000E+00  0.30835332648E+03  0.30835332648E+03  0.00000000000E+00 0.  1.
          2   -1    0    0  501    0  0.00000000000E+00 -0.00000000000E+00 -0.10339213360E+03  0.10339213360E+03  0.00000000000E+00 0. -1.
         25    2    1    2    0    0  0.12935178943E+03  0.54545673898E+02  0.86878509758E+02  0.20712821877E+03  0.12508839907E+03 0.  0.
          5    1    3    3  502    0  0.30179139536E+02 -0.36210643250E+02  0.58146658641E+00  0.47326542776E+02  0.41800000000E+01 0.  1.
         -5    1    3    3    0  502  0.99172649891E+02  0.90756317148E+02  0.86297043172E+02  0.15980167599E+03  0.41800000000E+01 0.  1.
        -11    1    1    2    0    0 -0.89570257608E+01 -0.43794937955E+02  0.44675519685E+02  0.63199105690E+02  0.00000000000E+00 0.  1.
         11    1    1    2    0    0 -0.12039476367E+03 -0.10750735944E+02  0.73407163438E+02  0.14141813563E+03  0.00000000000E+00 0. -1.
</event>
<event>
 7    1  0.2601031E-009  0.1734240E+03  0.7561462E-02  0.1174323E+00
          2   -1    0    0  501    0  0.00000000000E+00  0.00000000000E+00  0.21671154859E+03  0.21671154859E+03  0.00000000000E+00 0. -1.
         -2   -1    0    0    0  501 -0.00000000000E+00 -0.00000000000E+00 -0.18985578239E+03  0.18985578239E+03  0.00000000000E+00 0.  1.
         25    2    1    2    0    0  0.12609478296E+03 -0.10231742199E+03  0.68971197237E+02  0.21627151414E+03  0.12509033794E+03 0.  0.
          5    1    3    3  502    0  0.26433940542E+01 -0.46990350055E+02 -0.23082658754E+02  0.52586709971E+02  0.41800000000E+01 0. -1.
         -5    1    3    3    0  502  0.12345138891E+03 -0.55327071933E+02  0.92053855991E+02  0.16368480416E+03  0.41800000000E+01 0. -1.
        -11    1    1    2    0    0 -0.85659673536E+02  0.83601855530E+02  0.11888426435E+02  0.12028376699E+03  0.00000000000E+00 0. -1.
         11    1    1    2    0    0 -0.40435109425E+02  0.18715566457E+02 -0.54003857479E+02  0.70012049853E+02  0.00000000000E+00 0.  1.
</event>
<event>
 7    1  0.2601031E-009  0.1246621E+03  0.7561462E-02  0.1235598E+00
         -2   -1    0    0    0  501 -0.00000000000E+00  0.00000000000E+00  0.35999046936E+03  0.35999046936E+03  0.00000000000E+00 0.  1.
          2   -1    0    0  501    0  0.00000000000E+00 -0.00000000000E+00 -0.53415492551E+02  0.53415492551E+02  0.00000000000E+00 0. -1.
         25    2    1    2    0    0 -0.63264452679E+02  0.48808260086E+02  0.11697444272E+03  0.18898381706E+03  0.12508887095E+03 0.  0.
          5    1    3    3  502    0 -0.81495442195E+02 -0.13303675828E+02  0.75689440571E+02  0.11209308053E+03  0.41800000000E+01 0. -1.
         -5    1    3    3    0  502  0.18230989515E+02  0.62111935914E+02  0.41285002148E+02  0.76890736530E+02  0.41800000000E+01 0. -1.
        -11    1    1    2    0    0  0.43415108188E+01 -0.42270298894E+02  0.14251236495E+03  0.14871247779E+03  0.00000000000E+00 0.  1.
         11    1    1    2    0    0  0.58922941861E+02 -0.65379611913E+01  0.47088169133E+02  0.75709667060E+02  0.00000000000E+00 0. -1.
</event>
<event>
 7    1  0.2601031E-009  0.1365175E+03  0.7561462E-02  0.1218093E+00
         -2   -1    0    0    0  501 -0.00000000000E+00  0.00000000000E+00  0.22330060725E+02  0.22330060725E+02  0.00000000000E+00 0.  1.
          2   -1    0    0  501    0  0.00000000000E+00 -0.00000000000E+00 -0.10762460153E+04  0.10762460153E+04  0.00000000000E+00 0. -1.
         25    2    1    2    0    0 -0.86919596101E+02 -0.70442582565E+02 -0.60784371353E+03  0.63058579201E+03  0.12508911774E+03 0.  0.
          5    1    3    3  502    0 -0.52992154427E+02  0.62289159121E+01 -0.43664824808E+03  0.43991605197E+03  0.41800000000E+01 0. -1.
         -5    1    3    3    0  502 -0.33927441674E+02 -0.76671498477E+02 -0.17119546545E+03  0.19066974004E+03  0.41800000000E+01 0. -1.
        -11    1    1    2    0    0  0.78846694864E+02  0.15903615372E+02 -0.19503445117E+03  0.21096957936E+03  0.00000000000E+00 0.  1.
         11    1    1    2    0    0  0.80729012376E+01  0.54538967193E+02 -0.25103778988E+03  0.25702070466E+03  0.00000000000E+00 0. -1.
</event>
<event>
 7    1  0.2601031E-009  0.8359444E+02  0.7561462E-02  0.1319150E+00
          2   -1    0    0  501    0  0.00000000000E+00  0.00000000000E+00  0.79573094831E+02  0.79573094831E+02  0.00000000000E+00 0. -1.
         -2   -1    0    0    0  501 -0.00000000000E+00 -0.00000000000E+00 -0.20434067910E+03  0.20434067910E+03  0.00000000000E+00 0.  1.
         25    2    1    2    0    0  0.39053369597E+02  0.54736959142E+02 -0.59108812867E+02  0.15382877574E+03  0.12509252621E+03 0.  0.
          5    1    3    3  502    0  0.38497330947E+01  0.29143082454E+01  0.37811804554E+02  0.38347341513E+02  0.41800000000E+01 0. -1.
         -5    1    3    3    0  502  0.35203636503E+02  0.51822650896E+02 -0.96920617421E+02  0.11548143422E+03  0.41800000000E+01 0. -1.
        -11    1    1    2    0    0 -0.60122423310E+02 -0.38214831328E+02 -0.15023354343E+02  0.72806457775E+02  0.00000000000E+00 0. -1.
         11    1    1    2    0    0  0.21069053712E+02 -0.16522127813E+02 -0.50635417057E+02  0.57278540417E+02  0.00000000000E+00 0.  1.
</event>
<event>
 7    1  0.2601031E-009  0.1686691E+03  0.7561462E-02  0.1179243E+00
         -1   -1    0    0    0  501 -0.00000000000E+00  0.00000000000E+00  0.34502091815E+02  0.34502091815E+02  0.00000000000E+00 0.  1.
          1   -1    0    0  501    0  0.00000000000E+00 -0.00000000000E+00 -0.91648299905E+03  0.91648299905E+03  0.00000000000E+00 0. -1.
         25    2    1    2    0    0  0.35552007164E+02  0.13059552016E+03 -0.57424855633E+03  0.60309992364E+03  0.12509587663E+03 0.  0.
          5    1    3    3  502    0  0.42054934786E+01 -0.21180041136E+02 -0.14609681024E+03  0.14774312397E+03  0.41800000000E+01 0. -1.
         -5    1    3    3    0  502  0.31346513686E+02  0.15177556130E+03 -0.42815174610E+03  0.45535679968E+03  0.41800000000E+01 0. -1.
        -11    1    1    2    0    0  0.24817224326E+02 -0.72086504357E+02 -0.17332044343E+03  0.18934712790E+03  0.00000000000E+00 0.  1.
         11    1    1    2    0    0 -0.60369231491E+02 -0.58509015805E+02 -0.13441190747E+03  0.15853803932E+03  0.00000000000E+00 0. -1.
</event>
<event>
 7    1  0.2601031E-009  0.1508437E+03  0.7561462E-02  0.1199440E+00
         -2   -1    0    0    0  501 -0.00000000000E+00  0.00000000000E+00  0.72355485574E+02  0.72355485574E+02  0.00000000000E+00 0.  1.
          2   -1    0    0  501    0  0.00000000000E+00 -0.00000000000E+00 -0.37722133998E+03  0.37722133998E+03  0.00000000000E+00 0. -1.
         25    2    1    2    0    0 -0.63384821439E+01 -0.12476886747E+03 -0.15604771780E+03  0.23580869403E+03  0.12508958111E+03 0.  0.
          5    1    3    3  502    0 -0.51507532851E+02 -0.11943539817E+03 -0.12598470923E+03  0.18112829607E+03  0.41800000000E+01 0. -1.
         -5    1    3    3    0  502  0.45169050707E+02 -0.53334692965E+01 -0.30063008576E+02  0.54680397961E+02  0.41800000000E+01 0. -1.
        -11    1    1    2    0    0  0.67039544582E+01  0.19735267556E+02  0.10190558654E+02  0.23200674054E+02  0.00000000000E+00 0. -1.
         11    1    1    2    0    0 -0.36547231429E+00  0.10503359991E+03 -0.15900869526E+03  0.19056745748E+03  0.00000000000E+00 0.  1.
</event>
<event>
 7    1  0.2601031E-009  0.1500576E+03  0.7561462E-02  0.1200402E+00
          2   -1    0    0  501    0  0.00000000000E+00  0.00000000000E+00  0.28579431902E+03  0.28579431902E+03  0.00000000000E+00 0. -1.
         -2   -1    0    0    0  501 -0.00000000000E+00 -0.00000000000E+00 -0.10303548373E+03  0.10303548373E+03  0.00000000000E+00 0.  1.
         25    2    1    2    0    0  0.12344120102E+03  0.17880064297E+02  0.14915313758E+03  0.23119647819E+03  0.12509087205E+03 0.  0.
          5    1    3    3  502    0  0.39781616122E+02 -0.29800500025E+02  0.12085529031E+03  0.13074448508E+03  0.41800000000E+01 0.  1.
         -5    1    3    3    0  502  0.83659584903E+02  0.47680564322E+02  0.28297847267E+02  0.10045199311E+03  0.41800000000E+01 0.  1.
        -11    1    1    2    0    0 -0.11129245184E+03  0.20877238870E+02  0.27875304600E+02  0.11661432822E+03  0.00000000000E+00 0. -1.
         11    1    1    2    0    0 -0.12148749184E+02 -0.38757303167E+02  0.57303931188E+01  0.41018996341E+02  0.00000000000E+00 0.  1.
</event>
<event>
 7    1  0.2601031E-009  0.1992188E+03  0.7561462E-02  0.1150400E+00
         -1   -1    0    0    0  501 -0.00000000000E+00  0.00000000000E+00  0.73133645395E+02  0.73133645395E+02  0.00000000000E+00 0.  1.
          1   -1    0    0  501    0  0.00000000000E+00 -0.00000000000E+00 -0.79253160753E+03  0.79253160753E+03  0.00000000000E+00 0. -1.
         25    2    1    2    0    0 -0.18517760903E+03  0.18900710846E+02 -0.56310567751E+03  0.60612188776E+03  0.12509098699E+03 0.  0.
          5    1    3    3  502    0 -0.12492000224E+03 -0.35701021162E+02 -0.43775915562E+03  0.45665098336E+03  0.41800000000E+01 0.  1.
         -5    1    3    3    0  502 -0.60257606793E+02  0.54601732008E+02 -0.12534652188E+03  0.14947090440E+03  0.41800000000E+01 0.  1.
        -11    1    1    2    0    0  0.39144419100E+02 -0.11526100292E+02  0.58330646204E+01  0.41220882784E+02  0.00000000000E+00 0.  1.
         11    1    1    2    0    0  0.14603318993E+03 -0.73746105541E+01 -0.16212534925E+03  0.21832248238E+03  0.00000000000E+00 0. -1.
</event>
<event>
 7    1  0.2601031E-009  0.2513680E+03  0.7561462E-02  0.1112443E+00
         -1   -1    0    0    0  501 -0.00000000000E+00  0.00000000000E+00  0.59468889264E+02  0.59468889264E+02  0.00000000000E+00 0.  1.
          1   -1    0    0  501    0  0.00000000000E+00 -0.00000000000E+00 -0.11773359577E+04  0.11773359577E+04  0.00000000000E+00 0. -1.
         25    2    1    2    0    0  0.23469504825E+02 -0.23817363442E+03 -0.50588170568E+03  0.57344610738E+03  0.12508653063E+03 0.  0.
          5    1    3    3  502    0 -0.28947895756E+02 -0.18037554135E+03 -0.41589844817E+03  0.45427118352E+03  0.41800000000E+01 0.  1.
         -5    1    3    3    0  502  0.52417400581E+02 -0.57798093075E+02 -0.89983257507E+02  0.11917492387E+03  0.41800000000E+01 0.  1.
        -11    1    1    2    0    0 -0.32783251382E+02  0.18637569728E+03 -0.36849149009E+03  0.41424222428E+03  0.00000000000E+00 0.  1.
         11    1    1    2    0    0  0.93137465570E+01  0.51797937141E+02 -0.24349387270E+03  0.24911651533E+03  0.00000000000E+00 0. -1.
</event>
<event>
 7    1  0.2601031E-009  0.1252228E+03  0.7561462E-02  0.1234722E+00
         -1   -1    0    0    0  501 -0.00000000000E+00  0.00000000000E+00  0.23553628694E+03  0.23553628694E+03  0.00000000000E+00 0.  1.
          1   -1    0    0  501    0  0.00000000000E+00 -0.00000000000E+00 -0.70455169813E+02  0.70455169813E+02  0.00000000000E+00 0. -1.
         25    2    1    2    0    0 -0.56397731011E+02 -0.39293256782E+02  0.10969644951E+03  0.18000272869E+03  0.12507200809E+03 0.  0.
          5    1    3    3  502    0 -0.93169349466E+02 -0.40234969817E+02  0.59785223450E+02  0.11786062031E+03  0.41800000000E+01 0. -1.
         -5    1    3    3    0  502  0.36771618455E+02  0.94171303515E+00  0.49911226062E+02  0.62142108382E+02  0.41800000000E+01 0. -1.
        -11    1    1    2    0    0 -0.14205457183E+02 -0.16567784845E+02  0.35711148803E+01  0.22114234555E+02  0.00000000000E+00 0.  1.
         11    1    1    2    0    0  0.70603188194E+02  0.55861041627E+02  0.51813552735E+02  0.10387449351E+03  0.00000000000E+00 0. -1.
</event>
<event>
 7    1  0.2601031E-009  0.1556893E+03  0.7561462E-02  0.1193651E+00
          2   -1    0    0  501    0  0.00000000000E+00  0.00000000000E+00  0.18866867282E+03  0.18866867282E+03  0.00000000000E+00 0. -1.
         -2   -1    0    0    0  501 -0.00000000000E+00 -0.00000000000E+00 -0.14479375967E+03  0.14479375967E+03  0.00000000000E+00 0.  1.
         25    2    1    2    0    0  0.11052283718E+03  0.56126430608E+02  0.16766776396E+02  0.17690117330E+03  0.12508967413E+03 0.  0.
          5    1    3    3  502    0  0.13599216580E+03  0.57613968638E+02  0.33865552967E+01  0.14779100005E+03  0.41800000000E+01 0.  1.
         -5    1    3    3    0  502 -0.25469328621E+02 -0.14875380301E+01  0.13380221099E+02  0.29110173247E+02  0.41800000000E+01 0.  1.
        -11    1    1    2    0    0 -0.89629089791E+01  0.12368518384E+02  0.30396177083E+02  0.34018253419E+02  0.00000000000E+00 0. -1.
         11    1    1    2    0    0 -0.10155992820E+03 -0.68494948992E+02 -0.32880403333E+01  0.12254300577E+03  0.00000000000E+00 0.  1.
</event>
<event>
 7    1  0.2601031E-009  0.2612337E+03  0.7561462E-02  0.1106404E+00
         -1   -1    0    0    0  501 -0.00000000000E+00  0.00000000000E+00  0.66595111816E+03  0.66595111816E+03  0.00000000000E+00 0.  1.
          1   -1    0    0  501    0  0.00000000000E+00 -0.00000000000E+00 -0.10640844354E+03  0.10640844354E+03  0.00000000000E+00 0. -1.
         25    2    1    2    0    0 -0.19595913998E+03  0.14019142036E+03  0.32445678630E+03  0.42305215523E+03  0.12508917216E+03 0.  0.
          5    1    3    3  502    0 -0.10045200213E+03  0.13506969287E+03  0.25160760481E+03  0.30275119465E+03  0.41800000000E+01 0. -1.
         -5    1    3    3    0  502 -0.95507137857E+02  0.51217274824E+01  0.72849181483E+02  0.12030096058E+03  0.41800000000E+01 0. -1.
        -11    1    1    2    0    0  0.10247625166E+03 -0.17270044271E+02  0.96008376705E+02  0.14148231331E+03  0.00000000000E+00 0. -1.
         11    1    1    2    0    0  0.93482888323E+02 -0.12292137609E+03  0.13907751162E+03  0.20782509316E+03  0.00000000000E+00 0.  1.
</event>
<event>
 7    1  0.2601031E-009  0.9569806E+02  0.7561462E-02  0.1289612E+00
         -1   -1    0    0    0  501 -0.00000000000E+00  0.00000000000E+00  0.24971505292E+03  0.24971505292E+03  0.00000000000E+00 0.  1.
          1   -1    0    0  501    0  0.00000000000E+00 -0.00000000000E+00 -0.49008652353E+02  0.49008652353E+02  0.00000000000E+00 0. -1.
         25    2    1    2    0    0 -0.10796282784E+02  0.43700125106E+01  0.13753007584E+03  0.18627355393E+03  0.12509060077E+03 0.  0.
          5    1    3    3  502    0 -0.33706180881E+02 -0.52901864313E+02  0.57960936665E+02  0.85508224496E+02  0.41800000000E+01 0. -1.
         -5    1    3    3    0  502  0.22909898097E+02  0.57271876824E+02  0.79569139177E+02  0.10076532943E+03  0.41800000000E+01 0. -1.
        -11    1    1    2    0    0 -0.98726340244E+01  0.27218927984E+02  0.68460996901E+02  0.74332005487E+02  0.00000000000E+00 0.  1.
         11    1    1    2    0    0  0.20668916809E+02 -0.31588940494E+02 -0.52846721765E+01  0.38118145858E+02  0.00000000000E+00 0. -1.
</event>
<event>
 7    1  0.2601031E-009  0.1645720E+03  0.7561462E-02  0.1183630E+00
         -1   -1    0    0    0  501 -0.00000000000E+00  0.00000000000E+00  0.27348419459E+02  0.27348419459E+02  0.00000000000E+00 0.  1.
          1   -1    0    0  501    0  0.00000000000E+00 -0.00000000000E+00 -0.11523266467E+04  0.11523266467E+04  0.00000000000E+00 0. -1.
         25    2    1    2    0    0 -0.97449102257E+02 -0.80952661608E+02 -0.79536303701E+03  0.81504555630E+03  0.12508891736E+03 0.  0.
          5    1    3    3  502    0  0.29705434430E+02 -0.24688425722E+02 -0.16400106487E+03  0.16854006313E+03  0.41800000000E+01 0.  1.
         -5    1    3    3    0  502 -0.12715453669E+03 -0.56264235886E+02 -0.63136197214E+03  0.64650549317E+03  0.41800000000E+01 0.  1.
        -11    1    1    2    0    0  0.11222300248E+03  0.66142483007E+02 -0.30864952574E+03  0.33501247750E+03  0.00000000000E+00 0. -1.
         11    1    1    2    0    0 -0.14773900219E+02  0.14810178600E+02 -0.20965664473E+02  0.29617032340E+02  0.00000000000E+00 0.  1.
</event>
<event>
 7    1  0.2601031E-009  0.1219998E+03  0.7561462E-02  0.1239834E+00
         -1   -1    0    0    0  501 -0.00000000000E+00  0.00000000000E+00  0.93887459670E+02  0.93887459670E+02  0.00000000000E+00 0.  1.
          1   -1    0    0  501    0  0.00000000000E+00 -0.00000000000E+00 -0.26297834006E+03  0.26297834006E+03  0.00000000000E+00 0. -1.
         25    2    1    2    0    0 -0.58304551024E+02 -0.73329053393E+02 -0.16181619078E+03  0.22496269106E+03  0.12508861670E+03 0.  0.
          5    1    3    3  502    0 -0.25707788937E+02 -0.92195908028E+02 -0.16065320442E+03  0.18705052890E+03  0.41800000000E+01 0. -1.
         -5    1    3    3    0  502 -0.32596762087E+02  0.18866854636E+02 -0.11629863545E+01  0.37912162160E+02  0.41800000000E+01 0. -1.
        -11    1    1    2    0    0  0.62014451711E+02  0.33856509718E+02 -0.39379678386E+02  0.80887666186E+02  0.00000000000E+00 0. -1.
         11    1    1    2    0    0 -0.37099006871E+01  0.39472543675E+02  0.32104988778E+02  0.51015442482E+02  0.00000000000E+00 0.  1.
</event>
<event>
 7    1  0.2601031E-009  0.1351158E+03  0.7561462E-02  0.1220056E+00
         -2   -1    0    0    0  501 -0.00000000000E+00  0.00000000000E+00  0.60318005423E+02  0.60318005423E+02  0.00000000000E+00 0.  1.
          2   -1    0    0  501    0  0.00000000000E+00 -0.00000000000E+00 -0.36460470347E+03  0.36460470347E+03  0.00000000000E+00 0. -1.
         25    2    1    2    0    0 -0.49475401924E+02  0.82607167250E+02 -0.11756408737E+03  0.19682655043E+03  0.12509043464E+03 0.  0.
          5    1    3    3  502    0 -0.43936633071E+02 -0.18933944349E+02 -0.10605363498E+02  0.49181989683E+02  0.41800000000E+01 0. -1.
         -5    1    3    3    0  502 -0.55387688532E+01  0.10154111160E+03 -0.10695872387E+03  0.14764456074E+03  0.41800000000E+01 0. -1.
        -11    1    1    2    0    0 -0.14351812413E+02 -0.42951263639E+02 -0.11751395092E+03  0.12593773949E+03  0.00000000000E+00 0. -1.
         11    1    1    2    0    0  0.63827214337E+02 -0.39655903612E+02 -0.69208659760E+02  0.10215841897E+03  0.00000000000E+00 0.  1.
</event>
<event>
 7    1  0.2601031E-009  0.1062640E+03  0.7561462E-02  0.1267649E+00
         -1   -1    0    0    0  501 -0.00000000000E+00  0.00000000000E+00  0.35505855136E+02  0.35505855136E+02  0.00000000000E+00 0.  1.
          1   -1    0    0  501    0  0.00000000000E+00 -0.00000000000E+00 -0.37723591881E+03  0.37723591881E+03  0.00000000000E+00 0. -1.
         25    2    1    2    0    0 -0.29844465329E+02 -0.33940406949E+02 -0.19663111754E+03  0.23738740168E+03  0.12508532591E+03 0.  0.
          5    1    3    3  502    0 -0.63453100415E+02  0.22256249815E+02 -0.97898186163E+02  0.11884091830E+03  0.41800000000E+01 0. -1.
         -5    1    3    3    0  502  0.33608635086E+02 -0.56196656764E+02 -0.98732931377E+02  0.11854648338E+03  0.41800000000E+01 0. -1.
        -11    1    1    2    0    0  0.46693736412E+02  0.62249203115E+01 -0.30179070417E+02  0.55944892030E+02  0.00000000000E+00 0.  1.
         11    1    1    2    0    0 -0.16849271083E+02  0.27715486637E+02 -0.11491987572E+03  0.11940948024E+03  0.00000000000E+00 0. -1.
</event>
<event>
 7    1  0.2601031E-009  0.8668142E+02  0.7561462E-02  0.1311093E+00
          2   -1    0    0  501    0  0.00000000000E+00  0.00000000000E+00  0.24696790285E+03  0.24696790285E+03  0.00000000000E+00 0. -1.
         -2   -1    0    0    0  501 -0.00000000000E+00 -0.00000000000E+00 -0.70940959659E+02  0.70940959659E+02  0.00000000000E+00 0.  1.
         25    2    1    2    0    0 -0.30015711495E+02 -0.15981349865E+01  0.14016128879E+03  0.19025490658E+03  0.12509294795E+03 0.  0.
          5    1    3    3  502    0 -0.17208902546E+02  0.57474808992E+02  0.36985014679E+02  0.70603567235E+02  0.41800000000E+01 0. -1.
         -5    1    3    3    0  502 -0.12806808949E+02 -0.59072943978E+02  0.10317627412E+03  0.11965133934E+03  0.41800000000E+01 0. -1.
        -11    1    1    2    0    0  0.28354749276E+02 -0.17592907813E+02 -0.38433547915E+02  0.50898328235E+02  0.00000000000E+00 0.  1.
         11    1    1    2    0    0  0.16609622190E+01  0.19191042799E+02  0.74299202316E+02  0.76755627702E+02  0.00000000000E+00 0. -1.
</event>
<event>
 7    1  0.2601031E-009  0.8999050E+02  0.7561462E-02  0.1302875E+00
          4   -1    0    0  501    0  0.00000000000E+00  0.00000000000E+00  0.17197332239E+02  0.17197332239E+02  0.00000000000E+00 0.  1.
         -4   -1    0    0    0  501 -0.00000000000E+00 -0.00000000000E+00 -0.75504664549E+03  0.75504664549E+03  0.00000000000E+00 0. -1.
         25    2    1    2    0    0  0.14207313254E+02 -0.17034739130E+02 -0.34183079714E+03  0.36467478204E+03  0.12508945877E+03 0.  0.
          5    1    3    3  502    0 -0.31488390912E+02  0.12275853737E+02 -0.22686357972E+02  0.40918926981E+02  0.41800000000E+01 0.  1.
         -5    1    3    3    0  502  0.45695704166E+02 -0.29310592867E+02 -0.31914443917E+03  0.32375585506E+03  0.41800000000E+01 0.  1.
        -11    1    1    2    0    0  0.34196640965E+02 -0.10522867432E+02 -0.96578427434E+02  0.10299288149E+03  0.00000000000E+00 0.  1.
         11    1    1    2    0    0 -0.48403954219E+02  0.27557606562E+02 -0.29944008868E+03  0.30457631420E+03  0.00000000000E+00 0. -1.
</event>
<event>
 7    1  0.2601031E-009  0.6923648E+02  0.7561462E-02  0.1362709E+00
         -2   -1    0    0    0  501 -0.00000000000E+00  0.00000000000E+00  0.16099876825E+03  0.16099876825E+03  0.00000000000E+00 0. -1.
          2   -1    0    0  501    0  0.00000000000E+00 -0.00000000000E+00 -0.96299647763E+02  0.96299647763E+02  0.00000000000E+00 0.  1.
         25    2    1    2    0    0  0.32612241131E+01 -0.52084317111E+01  0.99560524602E+02  0.15999457828E+03  0.12509278027E+03 0.  0.
          5    1    3    3  502    0  0.11620385173E+02 -0.52069559476E+02  0.98617311362E+02  0.11220124276E+03  0.41800000000E+01 0. -1.
         -5    1    3    3    0  502 -0.83591610596E+01  0.46861127765E+02  0.94321323979E+00  0.47793335521E+02  0.41800000000E+01 0. -1.
        -11    1    1    2    0    0 -0.17680702763E+02  0.11865335980E+02 -0.62168599071E+02  0.65713987541E+02  0.00000000000E+00 0.  1.
         11    1    1    2    0    0  0.14419478650E+02 -0.66569042693E+01  0.27307194953E+02  0.31589850193E+02  0.00000000000E+00 0. -1.
</event>
<event>
 7    1  0.2662371E-009  0.1495775E+03  0.7561462E-02  0.1200993E+00
         -1   -1    0    0    0  501 -0.00000000000E+00  0.00000000000E+00  0.15510097573E+03  0.15510097573E+03  0.00000000000E+00 0.  1.
          1   -1    0    0  501    0  0.00000000000E+00 -0.00000000000E+00 -0.17667307890E+03  0.17667307890E+03  0.00000000000E+00 0. -1.
         25    2    1    2    0    0 -0.27622056186E+01 -0.12420520560E+03 -0.65711031585E+00  0.17630047640E+03  0.12508742265E+03 0.  0.
          5    1    3    3  502    0 -0.40209208493E+02 -0.73620410061E+02  0.47909848860E+02  0.96693180954E+02  0.41800000000E+01 0.  1.
         -5    1    3    3    0  502  0.37447002874E+02 -0.50584795544E+02 -0.48566959176E+02  0.79607295445E+02  0.41800000000E+01 0.  1.
        -11    1    1    2    0    0  0.44625262245E+02  0.76991173745E+02 -0.24410227557E+02  0.92276292050E+02  0.00000000000E+00 0.  1.
         11    1    1    2    0    0 -0.41863056627E+02  0.47214031859E+02  0.34952347073E+01  0.63197286178E+02  0.00000000000E+00 0. -1.
</event>
<event>
 7    1  0.2601031E-009  0.1010802E+03  0.7561462E-02  0.1278041E+00
         -2   -1    0    0    0  501 -0.00000000000E+00  0.00000000000E+00  0.30247839459E+02  0.30247839459E+02  0.00000000000E+00 0.  1.
          2   -1    0    0  501    0  0.00000000000E+00 -0.00000000000E+00 -0.39244355855E+03  0.39244355855E+03  0.00000000000E+00 0. -1.
         25    2    1    2    0    0  0.11068302414E+01  0.74285006129E+01 -0.18357468653E+03  0.22227086299E+03  0.12509301862E+03 0.  0.
          5    1    3    3  502    0 -0.54900211163E+01  0.59598572991E+02 -0.14499365559E+03  0.15691641978E+03  0.41800000000E+01 0. -1.
         -5    1    3    3    0  502  0.65968513577E+01 -0.52170072378E+02 -0.38581030937E+02  0.65354443215E+02  0.41800000000E+01 0. -1.
        -11    1    1    2    0    0 -0.34427812403E+02 -0.32784844427E+02 -0.76765252951E+02  0.90294099207E+02  0.00000000000E+00 0.  1.
         11    1    1    2    0    0  0.33320982162E+02  0.25356343814E+02 -0.10185577962E+03  0.11012643581E+03  0.00000000000E+00 0. -1.
</event>
<event>
 7    1  0.2601031E-009  0.1356206E+03  0.7561462E-02  0.1219346E+00
          2   -1    0    0  501    0  0.00000000000E+00  0.00000000000E+00  0.82692255062E+03  0.82692255062E+03  0.00000000000E+00 0. -1.
         -2   -1    0    0    0  501 -0.00000000000E+00 -0.00000000000E+00 -0.25090895993E+02  0.25090895993E+02  0.00000000000E+00 0.  1.
         25    2    1    2    0    0  0.70776473979E+01  0.93251454398E+02  0.42317096240E+03  0.45107375475E+03  0.12509173418E+03 0.  0.
          5    1    3    3  502    0  0.42572665395E+02 -0.11999736357E+02  0.10364063867E+03  0.11276204989E+03  0.41800000000E+01 0. -1.
         -5    1    3    3    0  502 -0.35495017997E+02  0.10525119076E+03  0.31953032373E+03  0.33831170486E+03  0.41800000000E+01 0. -1.
        -11    1    1    2    0    0 -0.27489961345E+02 -0.91071918517E+02  0.36261081733E+03  0.37488184427E+03  0.00000000000E+00 0. -1.
         11    1    1    2    0    0  0.20412313947E+02 -0.21795358807E+01  0.16049874895E+02  0.26057847599E+02  0.00000000000E+00 0.  1.
</event>
<event>
 7    1  0.2601031E-009  0.1543299E+03  0.7561462E-02  0.1195251E+00
         -2   -1    0    0    0  501 -0.00000000000E+00  0.00000000000E+00  0.54913330459E+02  0.54913330459E+02  0.00000000000E+00 0.  1.
          2   -1    0    0  501    0  0.00000000000E+00 -0.00000000000E+00 -0.49570616940E+03  0.49570616940E+03  0.00000000000E+00 0. -1.
         25    2    1    2    0    0 -0.11939997187E+03 -0.36676906531E+02 -0.19644317892E+03  0.26427075750E+03  0.12509021532E+03 0.  0.
          5    1    3    3  502    0  0.14870680954E+02  0.12268973193E+02 -0.72229544812E+02  0.74874858257E+02  0.41800000000E+01 0. -1.
         -5    1    3    3    0  502 -0.13427065282E+03 -0.48945879724E+02 -0.12421363411E+03  0.18939589925E+03  0.41800000000E+01 0. -1.
        -11    1    1    2    0    0  0.58012928877E+01  0.31725929374E+02 -0.31782915008E+02  0.45280716427E+02  0.00000000000E+00 0.  1.
         11    1    1    2    0    0  0.11359867898E+03  0.49509771573E+01 -0.21256674501E+03  0.24106802593E+03  0.00000000000E+00 0. -1.
</event>
<event>
 7    1  0.2601031E-009  0.1392908E+03  0.7561462E-02  0.1214286E+00
         -1   -1    0    0    0  501 -0.00000000000E+00  0.00000000000E+00  0.46647024991E+02  0.46647024991E+02  0.00000000000E+00 0.  1.
          1   -1    0    0  501    0  0.00000000000E+00 -0.00000000000E+00 -0.53218535783E+03  0.53218535783E+03  0.00000000000E+00 0. -1.
         25    2    1    2    0    0 -0.51494224644E+02  0.96450930040E+02 -0.32508498966E+03  0.36507738733E+03  0.12508721419E+03 0.  0.
          5    1    3    3  502    0 -0.58255660487E+01  0.10704528640E+03 -0.15434957254E+03  0.18797311910E+03  0.41800000000E+01 0. -1.
         -5    1    3    3    0  502 -0.45668658595E+02 -0.10594356358E+02 -0.17073541712E+03  0.17710426823E+03  0.41800000000E+01 0. -1.
        -11    1    1    2    0    0  0.63953430507E+02 -0.68982393545E+02 -0.15749479064E+03  0.18344814246E+03  0.00000000000E+00 0. -1.
         11    1    1    2    0    0 -0.12459205863E+02 -0.27468536495E+02 -0.29585525365E+01  0.30306853037E+02  0.00000000000E+00 0.  1.
</event>
<event>
 7    1  0.2601031E-009  0.1020515E+03  0.7561462E-02  0.1276040E+00
         -2   -1    0    0    0  501 -0.00000000000E+00  0.00000000000E+00  0.48712613481E+02  0.48712613481E+02  0.00000000000E+00 0.  1.
          2   -1    0    0  501    0  0.00000000000E+00 -0.00000000000E+00 -0.54499101476E+03  0.54499101476E+03  0.00000000000E+00 0. -1.
         25    2    1    2    0    0 -0.62669042568E+02  0.43602236467E+02 -0.43694999129E+03  0.46087059584E+03  0.12509135581E+03 0.  0.
          5    1    3    3  502    0 -0.89723738521E+02  0.28891439874E+02 -0.19172725295E+03  0.21368639750E+03  0.41800000000E+01 0. -1.
         -5    1    3    3    0  502  0.27054695952E+02  0.14710796593E+02 -0.24522273834E+03  0.24718419834E+03  0.41800000000E+01 0. -1.
        -11    1    1    2    0    0  0.22341838586E+02 -0.51009456408E+01  0.23605448799E+02  0.32899766122E+02  0.00000000000E+00 0.  1.
         11    1    1    2    0    0  0.40327203982E+02 -0.38501290826E+02 -0.82933858785E+02  0.99933266280E+02  0.00000000000E+00 0. -1.
</event>
<event>
 7    1  0.2601031E-009  0.6030515E+02  0.7561462E-02  0.1396556E+00
         -3   -1    0    0    0  501 -0.00000000000E+00  0.00000000000E+00  0.14373447477E+03  0.14373447477E+03  0.00000000000E+00 0.  1.
          3   -1    0    0  501    0  0.00000000000E+00 -0.00000000000E+00 -0.91579299995E+02  0.91579299995E+02  0.00000000000E+00 0. -1.
         25    2    1    2    0    0 -0.26971802631E+02  0.53501911405E+01  0.90554403570E+00  0.12807796576E+03  0.12508813941E+03 0.  0.
          5    1    3    3  502    0 -0.30771817539E+01 -0.94311926901E+01 -0.59955413120E+02  0.60914205285E+02  0.41800000000E+01 0. -1.
         -5    1    3    3    0  502 -0.23894620877E+02  0.14781383831E+02  0.60860957156E+02  0.67163760472E+02  0.41800000000E+01 0. -1.
        -11    1    1    2    0    0  0.51944697712E+02  0.88768607055E+01  0.57317532750E+02  0.77861093216E+02  0.00000000000E+00 0.  1.
         11    1    1    2    0    0 -0.24972895081E+02 -0.14227051846E+02 -0.60679020114E+01  0.29374715790E+02  0.00000000000E+00 0. -1.
</event>
<event>
 7    1  0.2601031E-009  0.1465739E+03  0.7561462E-02  0.1204747E+00
          2   -1    0    0  501    0  0.00000000000E+00  0.00000000000E+00  0.18386106529E+03  0.18386106529E+03  0.00000000000E+00 0. -1.
         -2   -1    0    0    0  501 -0.00000000000E+00 -0.00000000000E+00 -0.15795987650E+03  0.15795987650E+03  0.00000000000E+00 0.  1.
         25    2    1    2    0    0  0.12578726734E+03  0.45838727613E+01 -0.24204181837E+02  0.17910270767E+03  0.12509392056E+03 0.  0.
          5    1    3    3  502    0  0.12086687955E+03 -0.34414732413E+02  0.10932168256E+02  0.12621474193E+03  0.41800000000E+01 0.  1.
         -5    1    3    3    0  502  0.49203877927E+01  0.38998605175E+02 -0.35136350093E+02  0.52887965734E+02  0.41800000000E+01 0.  1.
        -11    1    1    2    0    0 -0.79039932881E+02  0.80630028249E+01 -0.15727382470E+02  0.80991811708E+02  0.00000000000E+00 0.  1.
         11    1    1    2    0    0 -0.46747334460E+02 -0.12646875586E+02  0.65832753093E+02  0.81726422417E+02  0.00000000000E+00 0. -1.
</event>
<event>
 7    1  0.2601031E-009  0.1488304E+03  0.7561462E-02  0.1201918E+00
         -2   -1    0    0    0  501 -0.00000000000E+00  0.00000000000E+00  0.23283286707E+02  0.23283286707E+02  0.00000000000E+00 0. -1.
          2   -1    0    0  501    0  0.00000000000E+00 -0.00000000000E+00 -0.13664913907E+04  0.13664913907E+04  0.00000000000E+00 0.  1.
         25    2    1    2    0    0 -0.11494832209E+03  0.41908338121E+02 -0.98038863267E+03  0.99588127743E+03  0.12509285396E+03 0.  0.
          5    1    3    3  502    0 -0.12813476384E+03 -0.13060634080E+01 -0.77567604579E+03  0.78620037136E+03  0.41800000000E+01 0.  1.
         -5    1    3    3    0  502  0.13186441750E+02  0.43214401529E+02 -0.20471258688E+03  0.20968090608E+03  0.41800000000E+01 0.  1.
        -11    1    1    2    0    0  0.60535280836E+02 -0.32979637053E+02 -0.79357088589E+02  0.10511766833E+03  0.00000000000E+00 0. -1.
         11    1    1    2    0    0  0.54413041258E+02 -0.89287010681E+01 -0.28346238273E+03  0.28877573164E+03  0.00000000000E+00 0.  1.
</event>
<event>
 7    1  0.2601031E-009  0.1157105E+03  0.7561462E-02  0.1250346E+00
         -2   -1    0    0    0  501 -0.00000000000E+00  0.00000000000E+00  0.25894621229E+02  0.25894621229E+02  0.00000000000E+00 0. -1.
          2   -1    0    0  501    0  0.00000000000E+00 -0.00000000000E+00 -0.70756532005E+03  0.70756532005E+03  0.00000000000E+00 0.  1.
         25    2    1    2    0    0 -0.68193945715E+02 -0.79415535126E+01 -0.25939370527E+03  0.29605115963E+03  0.12509081613E+03 0.  0.
          5    1    3    3  502    0 -0.45789449957E+02  0.52726049597E+02 -0.18273727250E+03  0.19567087978E+03  0.41800000000E+01 0. -1.
         -5    1    3    3    0  502 -0.22404495758E+02 -0.60667603110E+02 -0.76656432776E+02  0.10038027985E+03  0.41800000000E+01 0. -1.
        -11    1    1    2    0    0  0.55064793756E+02  0.35923123965E+02 -0.37635019085E+03  0.38204982463E+03  0.00000000000E+00 0.  1.
         11    1    1    2    0    0  0.13129151959E+02 -0.27981570452E+02 -0.45926802697E+02  0.55358957018E+02  0.00000000000E+00 0. -1.
</event>
<event>
 7    1  0.2601031E-009  0.1291286E+03  0.7561462E-02  0.1228755E+00
          1   -1    0    0  501    0  0.00000000000E+00  0.00000000000E+00  0.73850119469E+03  0.73850119469E+03  0.00000000000E+00 0. -1.
         -1   -1    0    0    0  501 -0.00000000000E+00 -0.00000000000E+00 -0.27952087973E+02  0.27952087973E+02  0.00000000000E+00 0.  1.
         25    2    1    2    0    0  0.50463647998E+02 -0.69143736524E+02  0.28603660572E+03  0.32371433741E+03  0.12508635563E+03 0.  0.
          5    1    3    3  502    0 -0.32717195913E+02  0.90553335257E+01  0.96816804858E+02  0.10268096258E+03  0.41800000000E+01 0. -1.
         -5    1    3    3    0  502  0.83180843911E+02 -0.78199070049E+02  0.18921980086E+03  0.22103337483E+03  0.41800000000E+01 0. -1.
        -11    1    1    2    0    0  0.18528749711E+01 -0.12612313618E+02  0.79628912857E+01  0.15030343911E+02  0.00000000000E+00 0.  1.
         11    1    1    2    0    0 -0.52316522969E+02  0.81756050142E+02  0.41654960971E+03  0.42770860134E+03  0.00000000000E+00 0. -1.
</event>
<event>
 7    1  0.2601031E-009  0.1064063E+03  0.7561462E-02  0.1267373E+00
         -2   -1    0    0    0  501 -0.00000000000E+00  0.00000000000E+00  0.92592572018E+01  0.92592572018E+01  0.00000000000E+00 0.  1.
          2   -1    0    0  501    0  0.00000000000E+00 -0.00000000000E+00 -0.20228652540E+04  0.20228652540E+04  0.00000000000E+00 0. -1.
         25    2    1    2    0    0  0.38721801823E+02  0.26469545380E+02 -0.16138085555E+04  0.16193288721E+04  0.12509167613E+03 0.  0.
          5    1    3    3  502    0  0.51500704545E+02  0.57274942162E+02 -0.14529515265E+04  0.14549977156E+04  0.41800000000E+01 0.  1.
         -5    1    3    3    0  502 -0.12778902722E+02 -0.30805396781E+02 -0.16085702898E+03  0.16433115650E+03  0.41800000000E+01 0.  1.
        -11    1    1    2    0    0 -0.12124496061E+02 -0.58892084295E+02 -0.25886492155E+03  0.26575614501E+03  0.00000000000E+00 0. -1.
         11    1    1    2    0    0 -0.26597305762E+02  0.32422538914E+02 -0.14093251978E+03  0.14703949414E+03  0.00000000000E+00 0.  1.
</event>
<event>
 7    1  0.2601031E-009  0.1442901E+03  0.7561462E-02  0.1207670E+00
          1   -1    0    0  501    0  0.00000000000E+00  0.00000000000E+00  0.15020057172E+04  0.15020057172E+04  0.00000000000E+00 0. -1.
         -1   -1    0    0    0  501 -0.00000000000E+00 -0.00000000000E+00 -0.16619684708E+02  0.16619684708E+02  0.00000000000E+00 0.  1.
         25    2    1    2    0    0  0.40519791668E+02  0.10707218813E+03  0.79785627938E+03  0.81567669430E+03  0.12509004791E+03 0.  0.
          5    1    3    3  502    0  0.14164496893E+02  0.11869665137E+03  0.75136147426E+03  0.76082262415E+03  0.41800000000E+01 0. -1.
         -5    1    3    3    0  502  0.26355294774E+02 -0.11624463244E+02  0.46494805124E+02  0.54854070148E+02  0.41800000000E+01 0. -1.
        -11    1    1    2    0    0  0.66180796582E+01  0.10938601986E+02  0.22429291093E+02  0.25817147223E+02  0.00000000000E+00 0.  1.
         11    1    1    2    0    0 -0.47137871326E+02 -0.11801079011E+03  0.66510046206E+03  0.67713156043E+03  0.00000000000E+00 0. -1.
</event>
<event>
 7    1  0.2601031E-009  0.2851616E+03  0.7561462E-02  0.1092903E+00
         -1   -1    0    0    0  501 -0.00000000000E+00  0.00000000000E+00  0.11989063922E+03  0.11989063922E+03  0.00000000000E+00 0.  1.
          1   -1    0    0  501    0  0.00000000000E+00 -0.00000000000E+00 -0.79346063617E+03  0.79346063617E+03  0.00000000000E+00 0. -1.
         25    2    1    2    0    0 -0.23980534574E+03  0.11115431740E+03 -0.17252605246E+03  0.33952294812E+03  0.12509479367E+03 0.  0.
          5    1    3    3  502    0 -0.25357920508E+03  0.10984433036E+03 -0.17096765061E+03  0.32498553832E+03  0.41800000000E+01 0. -1.
         -5    1    3    3    0  502  0.13773859347E+02  0.13099870406E+01 -0.15584018502E+01  0.14537409799E+02  0.41800000000E+01 0. -1.
        -11    1    1    2    0    0  0.11622748643E+02 -0.38199495132E+02 -0.79698262507E+02  0.89140915190E+02  0.00000000000E+00 0.  1.
         11    1    1    2    0    0  0.22818259709E+03 -0.72954822272E+02 -0.42134568198E+03  0.48468741208E+03  0.00000000000E+00 0. -1.
</event>
<event>
 7    1  0.2601031E-009  0.9319113E+02  0.7561462E-02  0.1295303E+00
         -1   -1    0    0    0  501 -0.00000000000E+00  0.00000000000E+00  0.53365083180E+02  0.53365083180E+02  0.00000000000E+00 0.  1.
          1   -1    0    0  501    0  0.00000000000E+00 -0.00000000000E+00 -0.23674397669E+03  0.23674397669E+03  0.00000000000E+00 0. -1.
         25    2    1    2    0    0 -0.26013516926E+02  0.27387980172E+01 -0.92788777879E+02  0.15792868821E+03  0.12509000432E+03 0.  0.
          5    1    3    3  502    0 -0.13054138218E+02 -0.41588886204E+02  0.10217415073E+02  0.44965697493E+02  0.41800000000E+01 0.  1.
         -5    1    3    3    0  502 -0.12959378707E+02  0.44327684221E+02 -0.10300619295E+03  0.11296299072E+03  0.41800000000E+01 0.  1.
        -11    1    1    2    0    0  0.24659375129E+02  0.43477975342E+02 -0.48825877254E+02  0.69874068231E+02  0.00000000000E+00 0. -1.
         11    1    1    2    0    0  0.13541417968E+01 -0.46216773359E+02 -0.41764238372E+02  0.62306303425E+02  0.00000000000E+00 0.  1.
</event>
<event>
 7    1  0.2601031E-009  0.1529263E+03  0.7561462E-02  0.1196923E+00
         -1   -1    0    0    0  501 -0.00000000000E+00  0.00000000000E+00  0.60253630318E+02  0.60253630318E+02  0.00000000000E+00 0.  1.
          1   -1    0    0  501    0  0.00000000000E+00 -0.00000000000E+00 -0.51898813276E+03  0.51898813276E+03  0.00000000000E+00 0. -1.
         25    2    1    2    0    0  0.23122730707E+02  0.12617450959E+03 -0.15019137363E+03  0.23379325041E+03  0.12508863929E+03 0.  0.
          5    1    3    3  502    0 -0.38508756328E+02  0.34107337586E+01 -0.51811340205E+02  0.64779972156E+02  0.41800000000E+01 0.  1.
         -5    1    3    3    0  502  0.61631487034E+02  0.12276377583E+03 -0.98380033421E+02  0.16901327825E+03  0.41800000000E+01 0.  1.
        -11    1    1    2    0    0 -0.84233815782E+01 -0.91365292828E+02 -0.10954101335E+03  0.14289088038E+03  0.00000000000E+00 0.  1.
         11    1    1    2    0    0 -0.14699349128E+02 -0.34809216761E+02 -0.19900211547E+03  0.20255763228E+03  0.00000000000E+00 0. -1.
</event>
<event>
 7    1  0.2601031E-009  0.1045124E+03  0.7561462E-02  0.1271083E+00
          2   -1    0    0  501    0  0.00000000000E+00  0.00000000000E+00  0.26686737478E+03  0.26686737478E+03  0.00000000000E+00 0. -1.
         -2   -1    0    0    0  501 -0.00000000000E+00 -0.00000000000E+00 -0.60539489268E+02  0.60539489268E+02  0.00000000000E+00 0.  1.
         25    2    1    2    0    0 -0.52299133884E+02  0.39358412129E+02  0.13651005271E+03  0.19637165249E+03  0.12507016991E+03 0.  0.
          5    1    3    3  502    0  0.23193603807E+02  0.55950299696E+02  0.40219082524E+02  0.72824626966E+02  0.41800000000E+01 0. -1.
         -5    1    3    3    0  502 -0.75492737691E+02 -0.16591887568E+02  0.96290970183E+02  0.12354702552E+03  0.41800000000E+01 0. -1.
        -11    1    1    2    0    0  0.28206220778E+02 -0.45467140123E+01 -0.17844593718E+02  0.33685204821E+02  0.00000000000E+00 0.  1.
         11    1    1    2    0    0  0.24092913106E+02 -0.34811698116E+02  0.87662426524E+02  0.97350006737E+02  0.00000000000E+00 0. -1.
</event>
<event>
 7    1  0.2601031E-009  0.8720436E+02  0.7561462E-02  0.1309767E+00
          1   -1    0    0  501    0  0.00000000000E+00  0.00000000000E+00  0.16948245674E+03  0.16948245674E+03  0.00000000000E+00 0. -1.
         -1   -1    0    0    0  501 -0.00000000000E+00 -0.00000000000E+00 -0.79717533429E+02  0.79717533429E+02  0.00000000000E+00 0.  1.
         25    2    1    2    0    0 -0.35908742557E+02  0.16599981855E+02  0.31017291921E+02  0.13481256809E+03  0.12508940373E+03 0.  0.
          5    1    3    3  502    0 -0.54075791432E+02  0.39164140107E+01  0.70686743180E+02  0.89183056569E+02  0.41800000000E+01 0. -1.
         -5    1    3    3    0  502  0.18167048875E+02  0.12683567844E+02 -0.39669451259E+02  0.45629511517E+02  0.41800000000E+01 0. -1.
        -11    1    1    2    0    0  0.37394645391E+02  0.31783308015E+02  0.36224026291E+02  0.60997690555E+02  0.00000000000E+00 0. -1.
         11    1    1    2    0    0 -0.14859028343E+01 -0.48383289870E+02  0.22523605100E+02  0.53389731527E+02  0.00000000000E+00 0.  1.
</event>
<event>
 7    1  0.2601031E-009  0.1868588E+03  0.7561462E-02  0.1161325E+00
         -1   -1    0    0    0  501 -0.00000000000E+00  0.00000000000E+00  0.19238692865E+03  0.19238692865E+03  0.00000000000E+00 0.  1.
          1   -1    0    0  501    0  0.00000000000E+00 -0.00000000000E+00 -0.23395614886E+03  0.23395614886E+03  0.00000000000E+00 0. -1.
         25    2    1    2    0    0  0.15507979246E+03  0.85498723712E+02 -0.68404479933E+02  0.22734531364E+03  0.12508774910E+03 0.  0.
          5    1    3    3  502    0  0.12058104562E+03  0.65427991221E+02  0.11701028893E+02  0.13774976252E+03  0.41800000000E+01 0.  1.
         -5    1    3    3    0  502  0.34498746835E+02  0.20070732491E+02 -0.80105508826E+02  0.89595551118E+02  0.41800000000E+01 0.  1.
        -11    1    1    2    0    0 -0.13184874775E+03 -0.28653793083E+02  0.98608792646E+01  0.13528624867E+03  0.00000000000E+00 0.  1.
         11    1    1    2    0    0 -0.23231044708E+02 -0.56844930629E+02  0.16974380457E+02  0.63711515194E+02  0.00000000000E+00 0. -1.
</event>
<event>
 7    1  0.2601031E-009  0.9978237E+02  0.7561462E-02  0.1280754E+00
          1   -1    0    0  501    0  0.00000000000E+00  0.00000000000E+00  0.58918206948E+02  0.58918206948E+02  0.00000000000E+00 0. -1.
         -1   -1    0    0    0  501 -0.00000000000E+00 -0.00000000000E+00 -0.25374739312E+03  0.25374739312E+03  0.00000000000E+00 0.  1.
         25    2    1    2    0    0  0.41948808926E+02 -0.37333848455E+02 -0.11648012287E+03  0.17991346067E+03  0.12509082898E+03 0.  0.
          5    1    3    3  502    0  0.19501715623E+02 -0.66531245057E+02 -0.13888352739E+02  0.70831364683E+02  0.41800000000E+01 0. -1.
         -5    1    3    3    0  502  0.22447093303E+02  0.29197396602E+02 -0.10259177013E+03  0.10908209599E+03  0.41800000000E+01 0. -1.
        -11    1    1    2    0    0  0.15997969799E+02 -0.94388035689E+01 -0.49536112453E+02  0.52904182136E+02  0.00000000000E+00 0.  1.
         11    1    1    2    0    0 -0.57946778725E+02  0.46772652024E+02 -0.28812950842E+02  0.79847957257E+02  0.00000000000E+00 0. -1.
</event>
<event>
 7    1  0.2601031E-009  0.2176610E+03  0.7561462E-02  0.1135639E+00
          1   -1    0    0  501    0  0.00000000000E+00  0.00000000000E+00  0.24279225637E+03  0.24279225637E+03  0.00000000000E+00 0. -1.
         -1   -1    0    0    0  501 -0.00000000000E+00 -0.00000000000E+00 -0.24669540241E+03  0.24669540241E+03  0.00000000000E+00 0.  1.
         25    2    1    2    0    0  0.19163212130E+03 -0.96924652984E+02 -0.36124344979E+02  0.25114111270E+03  0.12509848887E+03 0.  0.
          5    1    3    3  502    0  0.84981731909E+02 -0.42697890803E+02 -0.79276297963E+02  0.12388385067E+03  0.41800000000E+01 0. -1.
         -5    1    3    3    0  502  0.10665038939E+03 -0.54226762181E+02  0.43151952984E+02  0.12725726203E+03  0.41800000000E+01 0. -1.
        -11    1    1    2    0    0 -0.17022034003E+02 -0.56038672664E+01 -0.22338361075E+02  0.28638354447E+02  0.00000000000E+00 0.  1.
         11    1    1    2    0    0 -0.17461008730E+03  0.10252852025E+03  0.54559560018E+02  0.20970819164E+03  0.00000000000E+00 0. -1.
</event>
<event>
 7    1  0.2601031E-009  0.1214275E+03  0.7561462E-02  0.1240761E+00
         -1   -1    0    0    0  501 -0.00000000000E+00  0.00000000000E+00  0.41003152504E+02  0.41003152504E+02  0.00000000000E+00 0.  1.
          1   -1    0    0  501    0  0.00000000000E+00 -0.00000000000E+00 -0.46739539041E+03  0.46739539041E+03  0.00000000000E+00 0. -1.
         25    2    1    2    0    0  0.20211574186E+02  0.53815845075E+02 -0.35037857774E+03  0.37645453309E+03  0.12509282489E+03 0.  0.
          5    1    3    3  502    0  0.71283878144E+02  0.19945354515E+02 -0.22376757652E+03  0.23572994963E+03  0.41800000000E+01 0. -1.
         -5    1    3    3    0  502 -0.51072303959E+02  0.33870490560E+02 -0.12661100121E+03  0.14072458346E+03  0.41800000000E+01 0. -1.
        -11    1    1    2    0    0  0.29331595744E+02 -0.49527842337E+02 -0.34070334101E+02  0.66888992675E+02  0.00000000000E+00 0.  1.
         11    1    1    2    0    0 -0.49543169930E+02 -0.42880027386E+01 -0.41943326074E+02  0.65055017150E+02  0.00000000000E+00 0. -1.
</event>
<event>
 7    1  0.2601031E-009  0.1051125E+03  0.7561462E-02  0.1269898E+00
         -2   -1    0    0    0  501 -0.00000000000E+00  0.00000000000E+00  0.21981501162E+03  0.21981501162E+03  0.00000000000E+00 0.  1.
          2   -1    0    0  501    0  0.00000000000E+00 -0.00000000000E+00 -0.83657646914E+02  0.83657646914E+02  0.00000000000E+00 0. -1.
         25    2    1    2    0    0 -0.52328746501E+02  0.57084788838E+02  0.40763866172E+02  0.15264814219E+03  0.12507114656E+03 0.  0.
          5    1    3    3  502    0  0.13893153037E+02  0.61441093437E+02  0.56044452039E+02  0.84418485348E+02  0.41800000000E+01 0. -1.
         -5    1    3    3    0  502 -0.66221899538E+02 -0.43563045990E+01 -0.15280585867E+02  0.68229656841E+02  0.41800000000E+01 0. -1.
        -11    1    1    2    0    0  0.92473631856E+01 -0.25652825760E+02  0.93572153160E+02  0.97464501447E+02  0.00000000000E+00 0.  1.
         11    1    1    2    0    0  0.43081383316E+02 -0.31431963078E+02  0.18213453770E+01  0.53360014902E+02  0.00000000000E+00 0. -1.
</event>
<event>
 7    1  0.2601031E-009  0.6013230E+02  0.7561462E-02  0.1397277E+00
          1   -1    0    0  501    0  0.00000000000E+00  0.00000000000E+00  0.11002154135E+03  0.11002154135E+03  0.00000000000E+00 0. -1.
         -1   -1    0    0    0  501 -0.00000000000E+00 -0.00000000000E+00 -0.14633871715E+03  0.14633871715E+03  0.00000000000E+00 0.  1.
         25    2    1    2    0    0  0.22499944032E+02 -0.17074984226E+02 -0.70467748280E+02  0.14632593498E+03  0.12509105936E+03 0.  0.
          5    1    3    3  502    0  0.75620143370E+01 -0.45856884632E+02 -0.94737916394E+02  0.10560673810E+03  0.41800000000E+01 0.  1.
         -5    1    3    3    0  502  0.14937929695E+02  0.28781900406E+02  0.24270168114E+02  0.40719196883E+02  0.41800000000E+01 0.  1.
        -11    1    1    2    0    0 -0.58746217067E+01 -0.85413564153E+01 -0.33897842184E+02  0.35447562037E+02  0.00000000000E+00 0.  1.
         11    1    1    2    0    0 -0.16625322326E+02  0.25616340642E+02  0.68048414663E+02  0.74586761482E+02  0.00000000000E+00 0. -1.
</event>
<event>
 7    1  0.2601031E-009  0.1619327E+03  0.7561462E-02  0.1186532E+00
          2   -1    0    0  501    0  0.00000000000E+00  0.00000000000E+00  0.37677423476E+03  0.37677423476E+03  0.00000000000E+00 0. -1.
         -2   -1    0    0    0  501 -0.00000000000E+00 -0.00000000000E+00 -0.89403670677E+02  0.89403670677E+02  0.00000000000E+00 0.  1.
         25    2    1    2    0    0 -0.12969684415E+02  0.13195890538E+03  0.23126983475E+03  0.29447576789E+03  0.12509546749E+03 0.  0.
          5    1    3    3  502    0 -0.50137426938E+02  0.10343396340E+03  0.91418069992E+02  0.14692543104E+03  0.41800000000E+01 0.  1.
         -5    1    3    3    0  502  0.37167742523E+02  0.28524941984E+02  0.13985176476E+03  0.14755033685E+03  0.41800000000E+01 0.  1.
        -11    1    1    2    0    0 -0.36424000838E+02 -0.89659453803E+02  0.27102798102E+02  0.10049918984E+03  0.00000000000E+00 0. -1.
         11    1    1    2    0    0  0.49393685253E+02 -0.42299451580E+02  0.28997931233E+02  0.71202947710E+02  0.00000000000E+00 0.  1.
</event>
<event>
 7    1  0.2601031E-009  0.8287925E+02  0.7561462E-02  0.1321074E+00
          1   -1    0    0  501    0  0.00000000000E+00  0.00000000000E+00  0.13253635234E+03  0.13253635234E+03  0.00000000000E+00 0. -1.
         -1   -1    0    0    0  501 -0.00000000000E+00 -0.00000000000E+00 -0.11010343737E+03  0.11010343737E+03  0.00000000000E+00 0.  1.
         25    2    1    2    0    0  0.27104507662E+01 -0.42979664777E+02  0.45631149000E+02  0.13994724376E+03  0.12509368949E+03 0.  0.
          5    1    3    3  502    0  0.15417643042E+02 -0.51519656879E+02  0.83205023724E+02  0.99159100111E+02  0.41800000000E+01 0.  1.
         -5    1    3    3    0  502 -0.12707192276E+02  0.85399921014E+01 -0.37573874724E+02  0.40788143650E+02  0.41800000000E+01 0.  1.
        -11    1    1    2    0    0 -0.11775582153E+02  0.68168529802E+02 -0.29475732994E+02  0.75195954851E+02  0.00000000000E+00 0. -1.
         11    1    1    2    0    0  0.90651313867E+01 -0.25188865025E+02  0.62774989631E+01  0.27496591089E+02  0.00000000000E+00 0.  1.
</event>
<event>
 7    1  0.2601031E-009  0.1541520E+03  0.7561462E-02  0.1195462E+00
          1   -1    0    0  501    0  0.00000000000E+00  0.00000000000E+00  0.56238308930E+03  0.56238308930E+03  0.00000000000E+00 0. -1.
         -1   -1    0    0    0  501 -0.00000000000E+00 -0.00000000000E+00 -0.44384800556E+02  0.44384800556E+02  0.00000000000E+00 0.  1.
         25    2    1    2    0    0  0.10948798207E+03 -0.35086228841E+02  0.27755675846E+03  0.32543065368E+03  0.12509474215E+03 0.  0.
          5    1    3    3  502    0  0.12571726966E+02 -0.63494907013E+02  0.75757614655E+02  0.99731339677E+02  0.41800000000E+01 0.  1.
         -5    1    3    3    0  502  0.96916255101E+02  0.28408678172E+02  0.20179914381E+03  0.22569931400E+03  0.41800000000E+01 0.  1.
        -11    1    1    2    0    0 -0.24363440016E+02  0.50298063689E+02  0.12651770887E+03  0.13831197735E+03  0.00000000000E+00 0. -1.
         11    1    1    2    0    0 -0.85124542052E+02 -0.15211834848E+02  0.11392382141E+03  0.14302525883E+03  0.00000000000E+00 0.  1.
</event>
<event>
 7    1  0.2601031E-009  0.1095013E+03  0.7561462E-02  0.1261496E+00
         -3   -1    0    0    0  501 -0.00000000000E+00  0.00000000000E+00  0.22053249513E+03  0.22053249513E+03  0.00000000000E+00 0.  1.
          3   -1    0    0  501    0  0.00000000000E+00 -0.00000000000E+00 -0.63117139188E+02  0.63117139188E+02  0.00000000000E+00 0. -1.
         25    2    1    2    0    0  0.58317588944E+02  0.42654798409E+00  0.56802309146E+02  0.14924943584E+03  0.12509104145E+03 0.  0.
          5    1    3    3  502    0 -0.38522235798E+02 -0.40289851303E+01  0.28188882123E+02  0.48086181460E+02  0.41800000000E+01 0. -1.
         -5    1    3    3    0  502  0.96839824742E+02  0.44555331144E+01  0.28613427023E+02  0.10116325438E+03  0.41800000000E+01 0. -1.
        -11    1    1    2    0    0 -0.17924094527E+02  0.28263308449E+02  0.65878002857E+02  0.73891806241E+02  0.00000000000E+00 0. -1.
         11    1    1    2    0    0 -0.40393494417E+02 -0.28689856433E+02  0.34735043943E+02  0.60508392237E+02  0.00000000000E+00 0.  1.
</event>
<event>
 7    1  0.2601031E-009  0.1126049E+03  0.7561462E-02  0.1255821E+00
         -2   -1    0    0    0  501 -0.00000000000E+00  0.00000000000E+00  0.47888927313E+03  0.47888927313E+03  0.00000000000E+00 0.  1.
          2   -1    0    0  501    0  0.00000000000E+00 -0.00000000000E+00 -0.47148743078E+02  0.47148743078E+02  0.00000000000E+00 0. -1.
         25    2    1    2    0    0 -0.91631591989E+02 -0.19469915259E+02  0.15692810686E+03  0.22147037357E+03  0.12508904588E+03 0.  0.
          5    1    3    3  502    0 -0.27466932643E+02 -0.20276438995E+02 -0.15288062635E+02  0.37639920647E+02  0.41800000000E+01 0.  1.
         -5    1    3    3    0  502 -0.64164659345E+02  0.80652373558E+00  0.17221616949E+03  0.18383045293E+03  0.41800000000E+01 0.  1.
        -11    1    1    2    0    0  0.67532575438E+02 -0.28129203440E+02  0.19767049441E+03  0.21077363495E+03  0.00000000000E+00 0.  1.
         11    1    1    2    0    0  0.24099016551E+02  0.47599118699E+02  0.77141928786E+02  0.93794007679E+02  0.00000000000E+00 0. -1.
</event>
<event>
 7    1  0.2601031E-009  0.8806713E+02  0.7561462E-02  0.1307601E+00
         -1   -1    0    0    0  501 -0.00000000000E+00  0.00000000000E+00  0.21562290215E+03  0.21562290215E+03  0.00000000000E+00 0.  1.
          1   -1    0    0  501    0  0.00000000000E+00 -0.00000000000E+00 -0.67405471652E+02  0.67405471652E+02  0.00000000000E+00 0. -1.
         25    2    1    2    0    0  0.15474658688E+01 -0.27459964794E+02  0.31914462907E+02  0.13199594470E+03  0.12509177494E+03 0.  0.
          5    1    3    3  502    0  0.41161247141E+02  0.12835939786E+01 -0.31332394047E+02  0.51914229229E+02  0.41800000000E+01 0.  1.
         -5    1    3    3    0  502 -0.39613781273E+02 -0.28743558773E+02  0.63246856955E+02  0.80081715468E+02  0.41800000000E+01 0.  1.
        -11    1    1    2    0    0  0.31108583914E+02 -0.12922445345E+02  0.14351834011E+02  0.36615689619E+02  0.00000000000E+00 0. -1.
         11    1    1    2    0    0 -0.32656049782E+02  0.40382410140E+02  0.10195113358E+03  0.11441673948E+03  0.00000000000E+00 0.  1.
</event>
<event>
 7    1  0.2601031E-009  0.1371394E+03  0.7561462E-02  0.1217231E+00
         -2   -1    0    0    0  501 -0.00000000000E+00  0.00000000000E+00  0.36175956176E+02  0.36175956176E+02  0.00000000000E+00 0.  1.
          2   -1    0    0  501    0  0.00000000000E+00 -0.00000000000E+00 -0.90164360787E+03  0.90164360787E+03  0.00000000000E+00 0. -1.
         25    2    1    2    0    0 -0.66541170133E+01 -0.13670052263E+03 -0.33886876727E+03  0.38627883100E+03  0.12509190098E+03 0.  0.
          5    1    3    3  502    0 -0.12519353862E+01 -0.98694423293E+02 -0.33284534617E+03  0.34719685108E+03  0.41800000000E+01 0.  1.
         -5    1    3    3    0  502 -0.54021816270E+01 -0.38006099333E+02 -0.60234210954E+01  0.39081979921E+02  0.41800000000E+01 0.  1.
        -11    1    1    2    0    0  0.13360017050E+01  0.43793322648E+02 -0.52431976882E+02  0.68328268007E+02  0.00000000000E+00 0.  1.
         11    1    1    2    0    0  0.53181153083E+01  0.92907199978E+02 -0.47416690755E+03  0.48321246504E+03  0.00000000000E+00 0. -1.
</event>
<event>
 7    1  0.2601031E-009  0.1376350E+03  0.7561462E-02  0.1216547E+00
         -1   -1    0    0    0  501 -0.00000000000E+00  0.00000000000E+00  0.10334475380E+03  0.10334475380E+03  0.00000000000E+00 0.  1.
          1   -1    0    0  501    0  0.00000000000E+00 -0.00000000000E+00 -0.20659582850E+03  0.20659582850E+03  0.00000000000E+00 0. -1.
         25    2    1    2    0    0 -0.66949040754E+02  0.56144090418E+02 -0.10610892033E+02  0.15295195822E+03  0.12508947816E+03 0.  0.
          5    1    3    3  502    0  0.35667053126E+02  0.18202599891E+02  0.10137699665E+02  0.41517691121E+02  0.41800000000E+01 0. -1.
         -5    1    3    3    0  502 -0.10261609388E+03  0.37941490527E+02 -0.20748591698E+02  0.11143426710E+03  0.41800000000E+01 0. -1.
        -11    1    1    2    0    0 -0.10569373820E+02 -0.46171864753E+02 -0.45703222596E+02  0.65820493111E+02  0.00000000000E+00 0. -1.
         11    1    1    2    0    0  0.77518414574E+02 -0.99722256643E+01 -0.46936960076E+02  0.91168130966E+02  0.00000000000E+00 0.  1.
</event>
<event>
 7    1  0.2601031E-009  0.1147843E+03  0.7561462E-02  0.1251958E+00
         -2   -1    0    0    0  501 -0.00000000000E+00  0.00000000000E+00  0.22209077841E+02  0.22209077841E+02  0.00000000000E+00 0.  1.
          2   -1    0    0  501    0  0.00000000000E+00 -0.00000000000E+00 -0.79232213537E+03  0.79232213537E+03  0.00000000000E+00 0. -1.
         25    2    1    2    0    0 -0.70459241600E+02 -0.24253740029E+02 -0.46050838521E+03  0.48297773469E+03  0.12508705261E+03 0.  0.
          5    1    3    3  502    0  0.15643605964E+01  0.35861263033E+02 -0.24834485258E+03  0.25096038654E+03  0.41800000000E+01 0.  1.
         -5    1    3    3    0  502 -0.72023602197E+02 -0.60115003062E+02 -0.21216353263E+03  0.23201734815E+03  0.41800000000E+01 0.  1.
        -11    1    1    2    0    0  0.47952740730E+02 -0.18346623206E+02 -0.68078706656E+02  0.85268835025E+02  0.00000000000E+00 0.  1.
         11    1    1    2    0    0  0.22506500870E+02  0.42600363234E+02 -0.24152596567E+03  0.24628464349E+03  0.00000000000E+00 0. -1.
</event>
<event>
 7    1  0.2601031E-009  0.8238493E+02  0.7561462E-02  0.1322416E+00
          2   -1    0    0  501    0  0.00000000000E+00  0.00000000000E+00  0.20084072464E+03  0.20084072464E+03  0.00000000000E+00 0. -1.
         -2   -1    0    0    0  501 -0.00000000000E+00 -0.00000000000E+00 -0.84916090007E+02  0.84916090007E+02  0.00000000000E+00 0.  1.
         25    2    1    2    0    0 -0.62554809025E+02  0.28360663194E+02  0.50183116211E+02  0.15127692685E+03  0.12509569176E+03 0.  0.
          5    1    3    3  502    0 -0.60318351159E+02  0.43670413901E+02 -0.21661326829E+02  0.77666556618E+02  0.41800000000E+01 0.  1.
         -5    1    3    3    0  502 -0.22364578657E+01 -0.15309750707E+02  0.71844443040E+02  0.73610370236E+02  0.41800000000E+01 0.  1.
        -11    1    1    2    0    0  0.16193314117E+02 -0.22067575758E+02 -0.21951394994E+02  0.35086536793E+02  0.00000000000E+00 0.  1.
         11    1    1    2    0    0  0.46361494908E+02 -0.62930874352E+01  0.87692913413E+02  0.99393350997E+02  0.00000000000E+00 0. -1.
</event>
<event>
 7    1  0.2601031E-009  0.1986812E+03  0.7561462E-02  0.1150857E+00
          1   -1    0    0  501    0  0.00000000000E+00  0.00000000000E+00  0.37164474936E+02  0.37164474936E+02  0.00000000000E+00 0.  1.
         -1   -1    0    0    0  501 -0.00000000000E+00 -0.00000000000E+00 -0.15033463331E+04  0.15033463331E+04  0.00000000000E+00 0. -1.
         25    2    1    2    0    0  0.65984009441E+02 -0.16126469763E+03 -0.37180442541E+03  0.42923372333E+03  0.12507144473E+03 0.  0.
          5    1    3    3  502    0  0.78350013751E+02 -0.51110355766E+02 -0.10731470450E+03  0.14242510777E+03  0.41800000000E+01 0. -1.
         -5    1    3    3    0  502 -0.12366004310E+02 -0.11015434186E+03 -0.26448972091E+03  0.28680861556E+03  0.41800000000E+01 0. -1.
        -11    1    1    2    0    0 -0.10291517227E+01  0.11011692877E+03 -0.59581070750E+03  0.60590196924E+03  0.00000000000E+00 0. -1.
         11    1    1    2    0    0 -0.64954857718E+02  0.51147768859E+02 -0.49856672522E+03  0.50537511543E+03  0.00000000000E+00 0.  1.
</event>
<event>
 7    1  0.2601031E-009  0.2230972E+03  0.7561462E-02  0.1131595E+00
         -1   -1    0    0    0  501 -0.00000000000E+00  0.00000000000E+00  0.51295604666E+03  0.51295604666E+03  0.00000000000E+00 0.  1.
          1   -1    0    0  501    0  0.00000000000E+00 -0.00000000000E+00 -0.12891883864E+03  0.12891883864E+03  0.00000000000E+00 0. -1.
         25    2    1    2    0    0 -0.20383644654E+03 -0.67037623086E+02  0.83878573960E+02  0.26215519643E+03  0.12508553872E+03 0.  0.
          5    1    3    3  502    0 -0.69064256361E+02 -0.16685848424E+02 -0.31357873397E+02  0.77775816732E+02  0.41800000000E+01 0. -1.
         -5    1    3    3    0  502 -0.13477219018E+03 -0.50351774663E+02  0.11523644736E+03  0.18437937970E+03  0.41800000000E+01 0. -1.
        -11    1    1    2    0    0  0.75643678713E+02 -0.17357041768E+02  0.81166033629E+02  0.11229941248E+03  0.00000000000E+00 0.  1.
         11    1    1    2    0    0  0.12819276783E+03  0.84394664854E+02  0.21899260043E+03  0.26742027639E+03  0.00000000000E+00 0. -1.
</event>
<event>
 7    1  0.2601031E-009  0.1020715E+03  0.7561462E-02  0.1275999E+00
          3   -1    0    0  501    0  0.00000000000E+00  0.00000000000E+00  0.61314332525E+02  0.61314332525E+02  0.00000000000E+00 0. -1.
         -3   -1    0    0    0  501 -0.00000000000E+00 -0.00000000000E+00 -0.23186751351E+03  0.23186751351E+03  0.00000000000E+00 0.  1.
         25    2    1    2    0    0  0.39715855472E+02 -0.21512393216E+02 -0.12356133041E+03  0.18153124083E+03  0.12508419879E+03 0.  0.
          5    1    3    3  502    0 -0.19009721820E+02  0.22981775267E+02  0.75767964406E+01  0.31054979671E+02  0.41800000000E+01 0.  1.
         -5    1    3    3    0  502  0.58725577291E+02 -0.44494168483E+02 -0.13113812686E+03  0.15047626116E+03  0.41800000000E+01 0.  1.
        -11    1    1    2    0    0 -0.41506312543E+02 -0.28395660770E+02 -0.15559600956E+02  0.52642081204E+02  0.00000000000E+00 0. -1.
         11    1    1    2    0    0  0.17904570718E+01  0.49908053986E+02 -0.31432249617E+02  0.59008524004E+02  0.00000000000E+00 0.  1.
</event>
<event>
 7    1  0.2601031E-009  0.1762159E+03  0.7561462E-02  0.1171516E+00
         -1   -1    0    0    0  501 -0.00000000000E+00  0.00000000000E+00  0.22777175108E+02  0.22777175108E+02  0.00000000000E+00 0.  1.
          1   -1    0    0  501    0  0.00000000000E+00 -0.00000000000E+00 -0.19086420724E+04  0.19086420724E+04  0.00000000000E+00 0. -1.
         25    2    1    2    0    0  0.16814331723E+03 -0.22727040921E+02 -0.12904617895E+04  0.13075657718E+04  0.12509166173E+03 0.  0.
          5    1    3    3  502    0  0.10342592683E+03  0.41166812611E+01 -0.10949039933E+04  0.10997936609E+04  0.41800000000E+01 0.  1.
         -5    1    3    3    0  502  0.64717390397E+02 -0.26843722182E+02 -0.19555779618E+03  0.20777211094E+03  0.41800000000E+01 0.  1.
        -11    1    1    2    0    0 -0.98643679955E+02 -0.14670582911E+02 -0.41722761919E+03  0.42898098771E+03  0.00000000000E+00 0. -1.
         11    1    1    2    0    0 -0.69499637277E+02  0.37397623832E+02 -0.17817548855E+03  0.19487248797E+03  0.00000000000E+00 0.  1.
</event>
<event>
 7    1  0.2601031E-009  0.1413329E+03  0.7561462E-02  0.1211547E+00
         -1   -1    0    0    0  501 -0.00000000000E+00  0.00000000000E+00  0.10673726254E+03  0.10673726254E+03  0.00000000000E+00 0.  1.
          1   -1    0    0  501    0  0.00000000000E+00 -0.00000000000E+00 -0.29012129308E+03  0.29012129308E+03  0.00000000000E+00 0. -1.
         25    2    1    2    0    0 -0.10227500663E+03 -0.49360284041E+02 -0.18774838338E+03  0.25257448403E+03  0.12509116635E+03 0.  0.
          5    1    3    3  502    0  0.18217400588E+02  0.19941250435E+02 -0.49148104952E+02  0.56236427460E+02  0.41800000000E+01 0.  1.
         -5    1    3    3    0  502 -0.12049240721E+03 -0.69301534476E+02 -0.13860027843E+03  0.19633805657E+03  0.41800000000E+01 0.  1.
        -11    1    1    2    0    0  0.29801524150E+02  0.27555713652E+02 -0.39643513654E+02  0.56736728592E+02  0.00000000000E+00 0. -1.
         11    1    1    2    0    0  0.72473482475E+02  0.21804570389E+02  0.44007866494E+02  0.87547342994E+02  0.00000000000E+00 0.  1.
</event>
<event>
 7    1  0.2601031E-009  0.2809311E+03  0.7561462E-02  0.1095181E+00
          2   -1    0    0  501    0  0.00000000000E+00  0.00000000000E+00  0.31035204102E+04  0.31035204102E+04  0.00000000000E+00 0. -1.
         -2   -1    0    0    0  501 -0.00000000000E+00 -0.00000000000E+00 -0.26922611944E+02  0.26922611944E+02  0.00000000000E+00 0.  1.
         25    2    1    2    0    0  0.14205657356E+03  0.22404906344E+03  0.17909730777E+04  0.18148306014E+04  0.12508994361E+03 0.  0.
          5    1    3    3  502    0  0.41798880407E+02  0.15723922485E+03  0.12523797801E+04  0.12629108861E+04  0.41800000000E+01 0. -1.
         -5    1    3    3    0  502  0.10025769315E+03  0.66809838593E+02  0.53859329760E+03  0.55191971534E+03  0.41800000000E+01 0. -1.
        -11    1    1    2    0    0 -0.99186706162E+02 -0.77522259093E+02  0.62886995313E+03  0.64134633490E+03  0.00000000000E+00 0. -1.
         11    1    1    2    0    0 -0.42869867394E+02 -0.14652680435E+03  0.65675476742E+03  0.67426608579E+03  0.00000000000E+00 0.  1.
</event>
<event>
 7    1  0.2601031E-009  0.1046701E+03  0.7561462E-02  0.1270771E+00
         -2   -1    0    0    0  501 -0.00000000000E+00  0.00000000000E+00  0.47916832164E+02  0.47916832164E+02  0.00000000000E+00 0.  1.
          2   -1    0    0  501    0  0.00000000000E+00 -0.00000000000E+00 -0.45825766842E+03  0.45825766842E+03  0.00000000000E+00 0. -1.
         25    2    1    2    0    0 -0.80004986975E+02 -0.60347651160E+02 -0.20864191530E+03  0.26309629247E+03  0.12508226633E+03 0.  0.
          5    1    3    3  502    0 -0.38850633074E+02 -0.54509862791E+02 -0.20149310174E+02  0.70029736057E+02  0.41800000000E+01 0. -1.
         -5    1    3    3    0  502 -0.41154353901E+02 -0.58377883687E+01 -0.18849260513E+03  0.19306655642E+03  0.41800000000E+01 0. -1.
        -11    1    1    2    0    0  0.20534180944E+02  0.19739782636E+02  0.44850975453E+00  0.28487063144E+02  0.00000000000E+00 0.  1.
         11    1    1    2    0    0  0.59470806031E+02  0.40607868523E+02 -0.20214743070E+03  0.21459114496E+03  0.00000000000E+00 0. -1.
</event>
<event>
 7    1  0.2601031E-009  0.3754731E+03  0.7561462E-02  0.1052620E+00
          2   -1    0    0  501    0  0.00000000000E+00  0.00000000000E+00  0.59966765772E+03  0.59966765772E+03  0.00000000000E+00 0. -1.
         -2   -1    0    0    0  501 -0.00000000000E+00 -0.00000000000E+00 -0.27708988588E+03  0.27708988588E+03  0.00000000000E+00 0.  1.
         25    2    1    2    0    0 -0.28147062250E+03 -0.22764584873E+03 -0.48536702695E+01  0.38304039835E+03  0.12509214557E+03 0.  0.
          5    1    3    3  502    0 -0.11884804544E+03 -0.23670004900E+02  0.10355886456E+02  0.12169570173E+03  0.41800000000E+01 0. -1.
         -5    1    3    3    0  502 -0.16262257706E+03 -0.20397584383E+03 -0.15209556725E+02  0.26134469662E+03  0.41800000000E+01 0. -1.
        -11    1    1    2    0    0  0.13068479810E+03  0.61531515930E+02  0.14353019213E+03  0.20363094058E+03  0.00000000000E+00 0.  1.
         11    1    1    2    0    0  0.15078582439E+03  0.16611433280E+03  0.18390124997E+03  0.29008620467E+03  0.00000000000E+00 0. -1.
</event>
<event>
 7    1  0.2601031E-009  0.1169294E+03  0.7561462E-02  0.1248250E+00
         -2   -1    0    0    0  501 -0.00000000000E+00  0.00000000000E+00  0.43197315360E+02  0.43197315360E+02  0.00000000000E+00 0.  1.
          2   -1    0    0  501    0  0.00000000000E+00 -0.00000000000E+00 -0.38938251569E+03  0.38938251569E+03  0.00000000000E+00 0. -1.
         25    2    1    2    0    0  0.23260063583E+02 -0.60518865265E+02 -0.14524992039E+03  0.20235741751E+03  0.12508965359E+03 0.  0.
          5    1    3    3  502    0  0.14485882477E+01  0.37914263292E+02 -0.26210197061E+02  0.46303742817E+02  0.41800000000E+01 0. -1.
         -5    1    3    3    0  502  0.21811475335E+02 -0.98433128557E+02 -0.11903972333E+03  0.15605367469E+03  0.41800000000E+01 0. -1.
        -11    1    1    2    0    0 -0.47611202989E+02  0.47119535786E+02 -0.72066269928E+02  0.98390164976E+02  0.00000000000E+00 0.  1.
         11    1    1    2    0    0  0.24351139407E+02  0.13399329479E+02 -0.12886901001E+03  0.13183224856E+03  0.00000000000E+00 0. -1.
</event>
<event>
 7    1  0.2601031E-009  0.1624505E+03  0.7561462E-02  0.1185958E+00
          2   -1    0    0  501    0  0.00000000000E+00  0.00000000000E+00  0.23213001243E+03  0.23213001243E+03  0.00000000000E+00 0. -1.
         -2   -1    0    0    0  501 -0.00000000000E+00 -0.00000000000E+00 -0.15632999373E+03  0.15632999373E+03  0.00000000000E+00 0.  1.
         25    2    1    2    0    0  0.13553962965E+03  0.14572367203E+01 -0.40748222196E+02  0.18889604001E+03  0.12509269193E+03 0.  0.
          5    1    3    3  502    0  0.43540151706E+02  0.48668077560E+02 -0.53633026516E+02  0.84606740377E+02  0.41800000000E+01 0. -1.
         -5    1    3    3    0  502  0.91999477947E+02 -0.47210840839E+02  0.12884804319E+02  0.10428929963E+03  0.41800000000E+01 0. -1.
        -11    1    1    2    0    0 -0.69757312768E+02  0.37829322157E+02  0.86164756065E+02  0.11713882997E+03  0.00000000000E+00 0. -1.
         11    1    1    2    0    0 -0.65782316885E+02 -0.39286558877E+02  0.30383484832E+02  0.82425136176E+02  0.00000000000E+00 0.  1.
</event>
<event>
 7    1  0.2601031E-009  0.1077107E+03  0.7561462E-02  0.1264869E+00
          1   -1    0    0  501    0  0.00000000000E+00  0.00000000000E+00  0.38362819313E+02  0.38362819313E+02  0.00000000000E+00 0. -1.
         -1   -1    0    0    0  501 -0.00000000000E+00 -0.00000000000E+00 -0.38480475790E+03  0.38480475790E+03  0.00000000000E+00 0.  1.
         25    2    1    2    0    0  0.16616374286E+02  0.33979604274E+02 -0.13196935428E+03  0.18572805669E+03  0.12509309802E+03 0.  0.
          5    1    3    3  502    0 -0.15292174529E+02 -0.43512515752E+02 -0.39552714664E+02  0.60902210684E+02  0.41800000000E+01 0.  1.
         -5    1    3    3    0  502  0.31908548816E+02  0.77492120025E+02 -0.92416639612E+02  0.12482584600E+03  0.41800000000E+01 0.  1.
        -11    1    1    2    0    0  0.11673988118E+02  0.20627606516E+02 -0.13520390935E+02  0.27287013765E+02  0.00000000000E+00 0. -1.
         11    1    1    2    0    0 -0.28290362405E+02 -0.54607210789E+02 -0.20095219338E+03  0.21015250676E+03  0.00000000000E+00 0.  1.
</event>
<event>
 7    1  0.2601031E-009  0.1124492E+03  0.7561462E-02  0.1256100E+00
         -1   -1    0    0    0  501 -0.00000000000E+00  0.00000000000E+00  0.47520339663E+03  0.47520339663E+03  0.00000000000E+00 0.  1.
          1   -1    0    0  501    0  0.00000000000E+00 -0.00000000000E+00 -0.30470831035E+02  0.30470831035E+02  0.00000000000E+00 0. -1.
         25    2    1    2    0    0  0.57260019034E+02  0.11240816595E+02  0.25651154976E+03  0.29129162256E+03  0.12509024133E+03 0.  0.
          5    1    3    3  502    0 -0.86812233943E+01  0.53089786377E+02  0.14801885989E+03  0.15754664179E+03  0.41800000000E+01 0. -1.
         -5    1    3    3    0  502  0.65941242429E+02 -0.41848969781E+02  0.10849268987E+03  0.13374498077E+03  0.41800000000E+01 0. -1.
        -11    1    1    2    0    0  0.85110542966E+01 -0.24236094958E+02  0.10188308632E+03  0.10507135491E+03  0.00000000000E+00 0.  1.
         11    1    1    2    0    0 -0.65771073331E+02  0.12995278363E+02  0.86337929503E+02  0.10931125019E+03  0.00000000000E+00 0. -1.
</event>
<event>
 7    1  0.2601031E-009  0.4800705E+03  0.7561462E-02  0.1019116E+00
         -1   -1    0    0    0  501 -0.00000000000E+00  0.00000000000E+00  0.12697997489E+03  0.12697997489E+03  0.00000000000E+00 0.  1.
          1   -1    0    0  501    0  0.00000000000E+00 -0.00000000000E+00 -0.18761591195E+04  0.18761591195E+04  0.00000000000E+00 0. -1.
         25    2    1    2    0    0 -0.26823026037E+03  0.39223867450E+03 -0.83796242294E+03  0.97140447488E+03  0.12508789391E+03 0.  0.
          5    1    3    3  502    0 -0.23067488751E+03  0.38104138634E+03 -0.80500317850E+03  0.92002773416E+03  0.41800000000E+01 0. -1.
         -5    1    3    3    0  502 -0.37555372858E+02  0.11197288157E+02 -0.32959244446E+02  0.51376740720E+02  0.41800000000E+01 0. -1.
        -11    1    1    2    0    0  0.22737972323E+03 -0.32604458660E+03 -0.67852185008E+03  0.78638318396E+03  0.00000000000E+00 0.  1.
         11    1    1    2    0    0  0.40850537137E+02 -0.66194087896E+02 -0.23269487159E+03  0.24535143554E+03  0.00000000000E+00 0. -1.
</event>
<event>
 7    1  0.2601031E-009  0.1108809E+03  0.7561462E-02  0.1258947E+00
          2   -1    0    0  501    0  0.00000000000E+00  0.00000000000E+00  0.85801421774E+02  0.85801421774E+02  0.00000000000E+00 0. -1.
         -2   -1    0    0    0  501 -0.00000000000E+00 -0.00000000000E+00 -0.20792162381E+03  0.20792162381E+03  0.00000000000E+00 0.  1.
         25    2    1    2    0    0  0.70529558519E+02  0.47604298269E+01 -0.58551209074E+02  0.15516032166E+03  0.12509756599E+03 0.  0.
          5    1    3    3  502    0  0.37147675502E+02 -0.59871097837E+02 -0.24307195394E+02  0.74651257855E+02  0.41800000000E+01 0. -1.
         -5    1    3    3    0  502  0.33381883017E+02  0.64631527664E+02 -0.34244013680E+02  0.80509063806E+02  0.41800000000E+01 0. -1.
        -11    1    1    2    0    0 -0.21097213406E+02  0.14135101920E+02 -0.79369893487E+02  0.83333507738E+02  0.00000000000E+00 0.  1.
         11    1    1    2    0    0 -0.49432345113E+02 -0.18895531747E+02  0.15800900522E+02  0.55229216187E+02  0.00000000000E+00 0. -1.
</event>
<event>
 7    1  0.2601031E-009  0.9618491E+02  0.7561462E-02  0.1288529E+00
         -2   -1    0    0    0  501 -0.00000000000E+00  0.00000000000E+00  0.45927453557E+02  0.45927453557E+02  0.00000000000E+00 0.  1.
          2   -1    0    0  501    0  0.00000000000E+00 -0.00000000000E+00 -0.37856631773E+03  0.37856631773E+03  0.00000000000E+00 0. -1.
         25    2    1    2    0    0 -0.21791555439E+02  0.56998953405E+02 -0.25547363361E+03  0.29092614696E+03  0.12508993939E+03 0.  0.
          5    1    3    3  502    0 -0.69259618876E+02  0.24854615119E+02 -0.93502098549E+02  0.11905780752E+03  0.41800000000E+01 0.  1.
         -5    1    3    3    0  502  0.47468063437E+02  0.32144338287E+02 -0.16197153506E+03  0.17186833943E+03  0.41800000000E+01 0.  1.
        -11    1    1    2    0    0  0.69311514812E+01 -0.24309003877E+02 -0.91481716951E+02  0.94909815439E+02  0.00000000000E+00 0. -1.
         11    1    1    2    0    0  0.14860403957E+02 -0.32689949528E+02  0.14316486384E+02  0.38657808892E+02  0.00000000000E+00 0.  1.
</event>
<event>
 7    1  0.2601031E-009  0.1578604E+03  0.7561462E-02  0.1191134E+00
         -1   -1    0    0    0  501 -0.00000000000E+00  0.00000000000E+00  0.10368213983E+03  0.10368213983E+03  0.00000000000E+00 0.  1.
          1   -1    0    0  501    0  0.00000000000E+00 -0.00000000000E+00 -0.28139293827E+03  0.28139293827E+03  0.00000000000E+00 0. -1.
         25    2    1    2    0    0 -0.12290540039E+03 -0.31327002479E+02 -0.12997386153E+03  0.22051415262E+03  0.12508464452E+03 0.  0.
          5    1    3    3  502    0  0.14595004537E+02  0.14508140095E+02 -0.51555991930E+02  0.55668599680E+02  0.41800000000E+01 0.  1.
         -5    1    3    3    0  502 -0.13750040493E+03 -0.45835142575E+02 -0.78417869598E+02  0.16484555294E+03  0.41800000000E+01 0.  1.
        -11    1    1    2    0    0  0.90057012046E+02 -0.16644636571E+02 -0.37555403542E+01  0.91659224460E+02  0.00000000000E+00 0.  1.
         11    1    1    2    0    0  0.32848388346E+02  0.47971639050E+02 -0.43981396556E+02  0.72901701030E+02  0.00000000000E+00 0. -1.
</event>
<event>
 7    1  0.2601031E-009  0.1345808E+03  0.7561462E-02  0.1220813E+00
          2   -1    0    0  501    0  0.00000000000E+00  0.00000000000E+00  0.91803173268E+02  0.91803173268E+02  0.00000000000E+00 0. -1.
         -2   -1    0    0    0  501 -0.00000000000E+00 -0.00000000000E+00 -0.20281427595E+03  0.20281427595E+03  0.00000000000E+00 0.  1.
         25    2    1    2    0    0 -0.30507220360E+02 -0.77486225369E+02 -0.57999410445E+02  0.16108957613E+03  0.12510441363E+03 0.  0.
          5    1    3    3  502    0 -0.46696891223E+02  0.17621390377E+02 -0.35051427797E+01  0.50208280937E+02  0.41800000000E+01 0.  1.
         -5    1    3    3    0  502  0.16189670864E+02 -0.95107615746E+02 -0.54494267665E+02  0.11088129519E+03  0.41800000000E+01 0.  1.
        -11    1    1    2    0    0  0.57655907303E+01 -0.20578945789E+02 -0.78964702599E+01  0.22783531088E+02  0.00000000000E+00 0.  1.
         11    1    1    2    0    0  0.24741629629E+02  0.98065171159E+02 -0.45115221981E+02  0.11074434200E+03  0.00000000000E+00 0. -1.
</event>
<event>
 7    1  0.2601031E-009  0.1027691E+03  0.7561462E-02  0.1274578E+00
          2   -1    0    0  501    0  0.00000000000E+00  0.00000000000E+00  0.98449949489E+02  0.98449949489E+02  0.00000000000E+00 0. -1.
         -2   -1    0    0    0  501 -0.00000000000E+00 -0.00000000000E+00 -0.16806054942E+03  0.16806054942E+03  0.00000000000E+00 0.  1.
         25    2    1    2    0    0  0.29085205136E+02  0.55836212552E+02 -0.74978782906E+01  0.14023796492E+03  0.12508731685E+03 0.  0.
          5    1    3    3  502    0 -0.15619967641E+02 -0.34754335859E+02  0.37128991843E+01  0.38511105806E+02  0.41800000000E+01 0.  1.
         -5    1    3    3    0  502  0.44705172776E+02  0.90590548411E+02 -0.11210777475E+02  0.10172685912E+03  0.41800000000E+01 0.  1.
        -11    1    1    2    0    0 -0.20294071030E+02 -0.17591454514E+02 -0.79082352797E+02  0.83518423805E+02  0.00000000000E+00 0.  1.
         11    1    1    2    0    0 -0.87911341054E+01 -0.38244758038E+02  0.16969631152E+02  0.42754110185E+02  0.00000000000E+00 0. -1.
</event>
<event>
 7    1  0.2601031E-009  0.2360341E+03  0.7561462E-02  0.1122463E+00
          1   -1    0    0  501    0  0.00000000000E+00  0.00000000000E+00  0.93839815316E+03  0.93839815316E+03  0.00000000000E+00 0. -1.
         -1   -1    0    0    0  501 -0.00000000000E+00 -0.00000000000E+00 -0.64404231910E+02  0.64404231910E+02  0.00000000000E+00 0.  1.
         25    2    1    2    0    0  0.20884221974E+03  0.17480638947E+02  0.58803899620E+03  0.63667761018E+03  0.12509145764E+03 0.  0.
          5    1    3    3  502    0  0.13555046087E+03  0.70925115721E+02  0.35585018539E+03  0.38736433279E+03  0.41800000000E+01 0.  1.
         -5    1    3    3    0  502  0.73291758868E+02 -0.53444476773E+02  0.23218881081E+03  0.24931327739E+03  0.41800000000E+01 0.  1.
        -11    1    1    2    0    0 -0.20272751194E+03  0.71400799805E+01  0.26075281554E+03  0.33036563933E+03  0.00000000000E+00 0. -1.
         11    1    1    2    0    0 -0.61147077987E+01 -0.24620718928E+02  0.25202109511E+02  0.35759135557E+02  0.00000000000E+00 0.  1.
</event>
<event>
 7    1  0.2925484E-009  0.8106892E+02  0.7561462E-02  0.1326045E+00
         -1   -1    0    0    0  501 -0.00000000000E+00  0.00000000000E+00  0.30591220085E+02  0.30591220085E+02  0.00000000000E+00 0.  1.
          1   -1    0    0  501    0  0.00000000000E+00 -0.00000000000E+00 -0.11628738313E+04  0.11628738313E+04  0.00000000000E+00 0. -1.
         25    2    1    2    0    0 -0.77468795506E+02  0.46468198007E+01 -0.10158641838E+04  0.10264750412E+04  0.12509181807E+03 0.  0.
          5    1    3    3  502    0 -0.10449048649E+02 -0.39219727412E+01 -0.80337489978E+03  0.80346329504E+03  0.41800000000E+01 0.  1.
         -5    1    3    3    0  502 -0.67019746858E+02  0.85687925419E+01 -0.21248928405E+03  0.22301174612E+03  0.41800000000E+01 0.  1.
        -11    1    1    2    0    0  0.35725730418E+02 -0.16179316359E+02  0.36133739642E+01  0.39384699608E+02  0.00000000000E+00 0.  1.
         11    1    1    2    0    0  0.41743065088E+02  0.11532496559E+02 -0.12003180137E+03  0.12760531063E+03  0.00000000000E+00 0. -1.
</event>
<event>
 7    1  0.2601031E-009  0.1115045E+03  0.7561462E-02  0.1257809E+00
          1   -1    0    0  501    0  0.00000000000E+00  0.00000000000E+00  0.83667607159E+03  0.83667607159E+03  0.00000000000E+00 0. -1.
         -1   -1    0    0    0  501 -0.00000000000E+00 -0.00000000000E+00 -0.22072563351E+02  0.22072563351E+02  0.00000000000E+00 0.  1.
         25    2    1    2    0    0 -0.52297902059E+02 -0.10735561040E+02  0.62191487083E+03  0.63661282400E+03  0.12508980092E+03 0.  0.
          5    1    3    3  502    0 -0.38402732071E+02 -0.54795791695E+02  0.52392981983E+03  0.52820192836E+03  0.41800000000E+01 0. -1.
         -5    1    3    3    0  502 -0.13895169987E+02  0.44060230655E+02  0.97985051003E+02  0.10841089564E+03  0.41800000000E+01 0. -1.
        -11    1    1    2    0    0  0.26146947347E+01 -0.39111574207E+02  0.55486972193E+02  0.67936411067E+02  0.00000000000E+00 0.  1.
         11    1    1    2    0    0  0.49683207324E+02  0.49847135247E+02  0.13720166522E+03  0.15419939987E+03  0.00000000000E+00 0. -1.
</event>
<event>
 7    1  0.2601031E-009  0.1826134E+03  0.7561462E-02  0.1165297E+00
          4   -1    0    0  501    0  0.00000000000E+00  0.00000000000E+00  0.39230528024E+02  0.39230528024E+02  0.00000000000E+00 0. -1.
         -4   -1    0    0    0  501 -0.00000000000E+00 -0.00000000000E+00 -0.10050576701E+04  0.10050576701E+04  0.00000000000E+00 0.  1.
         25    2    1    2    0    0 -0.13917436798E+03 -0.75138872594E+02 -0.38434267716E+03  0.43403079675E+03  0.12509230258E+03 0.  0.
          5    1    3    3  502    0 -0.63586373401E+02 -0.10119626641E+03 -0.19956133439E+03  0.23265018763E+03  0.41800000000E+01 0. -1.
         -5    1    3    3    0  502 -0.75587994582E+02  0.26057393818E+02 -0.18478134277E+03  0.20138060913E+03  0.41800000000E+01 0. -1.
        -11    1    1    2    0    0  0.11271176107E+03  0.35982404962E+02 -0.51666208407E+03  0.53003620977E+03  0.00000000000E+00 0.  1.
         11    1    1    2    0    0  0.26462606915E+02  0.39156467632E+02 -0.64822380801E+02  0.80221191557E+02  0.00000000000E+00 0. -1.
</event>
<event>
 7    1  0.2601031E-009  0.1065984E+03  0.7561462E-02  0.1267002E+00
          2   -1    0    0  501    0  0.00000000000E+00  0.00000000000E+00  0.89307978751E+03  0.89307978751E+03  0.00000000000E+00 0. -1.
         -2   -1    0    0    0  501 -0.00000000000E+00 -0.00000000000E+00 -0.14258607221E+02  0.14258607221E+02  0.00000000000E+00 0.  1.
         25    2    1    2    0    0 -0.99355293945E+01  0.74947824670E+01  0.61388285691E+03  0.62662248519E+03  0.12509472582E+03 0.  0.
          5    1    3    3  502    0  0.45071166728E+02 -0.33346852420E+02  0.24059467598E+03  0.24707629013E+03  0.41800000000E+01 0.  1.
         -5    1    3    3    0  502 -0.55006696123E+02  0.40841634887E+02  0.37328818093E+03  0.37954619506E+03  0.41800000000E+01 0.  1.
        -11    1    1    2    0    0 -0.29795109225E+02  0.23498957415E+02  0.15810811391E+03  0.16259804802E+03  0.00000000000E+00 0. -1.
         11    1    1    2    0    0  0.39730638620E+02 -0.30993739882E+02  0.10683020947E+03  0.11811786153E+03  0.00000000000E+00 0.  1.
</event>
<event>
 7    1  0.2601031E-009  0.1253200E+03  0.7561462E-02  0.1234570E+00
          2   -1    0    0  501    0  0.00000000000E+00  0.00000000000E+00  0.11593424022E+04  0.11593424022E+04  0.00000000000E+00 0. -1.
         -2   -1    0    0    0  501 -0.00000000000E+00 -0.00000000000E+00 -0.22928937887E+02  0.22928937887E+02  0.00000000000E+00 0.  1.
         25    2    1    2    0    0  0.76997095955E+02  0.59257985396E+02  0.74191929608E+03  0.75863829877E+03  0.12509102629E+03 0.  0.
          5    1    3    3  502    0  0.51195379407E+02  0.64255779000E+02  0.20261776036E+03  0.21868059178E+03  0.41800000000E+01 0.  1.
         -5    1    3    3    0  502  0.25801716548E+02 -0.49977936041E+01  0.53930153572E+03  0.53995770700E+03  0.41800000000E+01 0.  1.
        -11    1    1    2    0    0 -0.69381977589E+02  0.11732765074E+02  0.27995556537E+03  0.28866353281E+03  0.00000000000E+00 0. -1.
         11    1    1    2    0    0 -0.76151183657E+01 -0.70990750470E+02  0.11453860287E+03  0.13496950851E+03  0.00000000000E+00 0.  1.
</event>
<event>
 7    1  0.2601031E-009  0.9499167E+02  0.7561462E-02  0.1291195E+00
          2   -1    0    0  501    0  0.00000000000E+00  0.00000000000E+00  0.28093835682E+03  0.28093835682E+03  0.00000000000E+00 0. -1.
         -2   -1    0    0    0  501 -0.00000000000E+00 -0.00000000000E+00 -0.65741400484E+02  0.65741400484E+02  0.00000000000E+00 0.  1.
         25    2    1    2    0    0 -0.89908430240E+01  0.76996411695E+02  0.10130701455E+03  0.17865998494E+03  0.12508795445E+03 0.  0.
          5    1    3    3  502    0 -0.90328976351E+01  0.25629418424E+01  0.10356626638E+03  0.10407500105E+03  0.41800000000E+01 0.  1.
         -5    1    3    3    0  502  0.42054611007E-01  0.74433469853E+02 -0.22592518327E+01  0.74584983889E+02  0.41800000000E+01 0.  1.
        -11    1    1    2    0    0  0.33450027356E+01  0.13791536891E+02 -0.77187405273E+01  0.16154704839E+02  0.00000000000E+00 0.  1.
         11    1    1    2    0    0  0.56458402885E+01 -0.90787948586E+02  0.12160868231E+03  0.15186506752E+03  0.00000000000E+00 0. -1.
</event>
<event>
 7    1  0.2601031E-009  0.1061324E+03  0.7561462E-02  0.1267904E+00
         -1   -1    0    0    0  501 -0.00000000000E+00  0.00000000000E+00  0.53321304361E+02  0.53321304361E+02  0.00000000000E+00 0.  1.
          1   -1    0    0  501    0  0.00000000000E+00 -0.00000000000E+00 -0.26398253488E+03  0.26398253488E+03  0.00000000000E+00 0. -1.
         25    2    1    2    0    0  0.30375598426E+02 -0.14262783564E+02 -0.16205356305E+03  0.20745112770E+03  0.12509400110E+03 0.  0.
          5    1    3    3  502    0  0.63061893166E+02 -0.49609343661E+02 -0.89451401245E+02  0.12023691169E+03  0.41800000000E+01 0. -1.
         -5    1    3    3    0  502 -0.32686294740E+02  0.35346560097E+02 -0.72602161808E+02  0.87214216007E+02  0.41800000000E+01 0. -1.
        -11    1    1    2    0    0  0.10230948936E+02 -0.25060836330E+02 -0.45868315970E+02  0.53259930939E+02  0.00000000000E+00 0. -1.
         11    1    1    2    0    0 -0.40606547361E+02  0.39323619894E+02 -0.27393514971E+01  0.56592780607E+02  0.00000000000E+00 0.  1.
</event>
<event>
 7    1  0.2601031E-009  0.1551971E+03  0.7561462E-02  0.1194228E+00
          2   -1    0    0  501    0  0.00000000000E+00  0.00000000000E+00  0.38924310071E+03  0.38924310071E+03  0.00000000000E+00 0.  1.
         -2   -1    0    0    0  501 -0.00000000000E+00 -0.00000000000E+00 -0.83615002416E+02  0.83615002416E+02  0.00000000000E+00 0. -1.
         25    2    1    2    0    0  0.11675355587E+03 -0.74493493810E+02  0.10754201010E+03  0.21539327456E+03  0.12509318671E+03 0.  0.
          5    1    3    3  502    0  0.54087972246E+02 -0.83375991128E+02  0.11275287963E+02  0.10010828715E+03  0.41800000000E+01 0. -1.
         -5    1    3    3    0  502  0.62665583626E+02  0.88824973188E+01  0.96266722140E+02  0.11528498741E+03  0.41800000000E+01 0. -1.
        -11    1    1    2    0    0 -0.11322041041E+03  0.51767199367E+02  0.19867522354E+03  0.23445798922E+03  0.00000000000E+00 0.  1.
         11    1    1    2    0    0 -0.35331454655E+01  0.22726294443E+02 -0.58913534838E+00  0.23006839340E+02  0.00000000000E+00 0. -1.
</event>
<event>
 7    1  0.2601031E-009  0.9350316E+02  0.7561462E-02  0.1294583E+00
          2   -1    0    0  501    0  0.00000000000E+00  0.00000000000E+00  0.48388185191E+02  0.48388185191E+02  0.00000000000E+00 0. -1.
         -2   -1    0    0    0  501 -0.00000000000E+00 -0.00000000000E+00 -0.32323378451E+03  0.32323378451E+03  0.00000000000E+00 0.  1.
         25    2    1    2    0    0 -0.11423562585E+02 -0.47340210588E+02 -0.99903867771E+02  0.16732874600E+03  0.12508610283E+03 0.  0.
          5    1    3    3  502    0  0.45418368553E+01 -0.68878294455E+02 -0.11653088005E+03  0.13550559447E+03  0.41800000000E+01 0. -1.
         -5    1    3    3    0  502 -0.15965399440E+02  0.21538083867E+02  0.16627012275E+02  0.31823151527E+02  0.41800000000E+01 0. -1.
        -11    1    1    2    0    0 -0.29647144071E+02  0.38695636243E+02 -0.14434437311E+03  0.15235354760E+03  0.00000000000E+00 0.  1.
         11    1    1    2    0    0  0.41070706656E+02  0.86445743450E+01 -0.30597358438E+02  0.51939676108E+02  0.00000000000E+00 0. -1.
</event>
<event>
 7    1  0.2601031E-009  0.1035515E+03  0.7561462E-02  0.1273000E+00
         -1   -1    0    0    0  501 -0.00000000000E+00  0.00000000000E+00  0.73745270411E+02  0.73745270411E+02  0.00000000000E+00 0.  1.
          1   -1    0    0  501    0  0.00000000000E+00 -0.00000000000E+00 -0.18918448876E+03  0.18918448876E+03  0.00000000000E+00 0. -1.
         25    2    1    2    0    0  0.12602379567E+02 -0.13892410312E+02 -0.11511072925E+03  0.17102504033E+03  0.12508902987E+03 0.  0.
          5    1    3    3  502    0 -0.49638230514E+02  0.16873607691E+02 -0.28099414081E+02  0.59629875371E+02  0.41800000000E+01 0. -1.
         -5    1    3    3    0  502  0.62240610081E+02 -0.30766018003E+02 -0.87011315173E+02  0.11139516495E+03  0.41800000000E+01 0. -1.
        -11    1    1    2    0    0  0.12914852436E+02  0.43785646212E+02 -0.17663226967E+02  0.48948603806E+02  0.00000000000E+00 0. -1.
         11    1    1    2    0    0 -0.25517232003E+02 -0.29893235901E+02  0.17334737876E+02  0.42956115035E+02  0.00000000000E+00 0.  1.
</event>
<event>
 7    1  0.2601031E-009  0.8539133E+02  0.7561462E-02  0.1314412E+00
         -2   -1    0    0    0  501 -0.00000000000E+00  0.00000000000E+00  0.69484996916E+03  0.69484996916E+03  0.00000000000E+00 0.  1.
          2   -1    0    0  501    0  0.00000000000E+00 -0.00000000000E+00 -0.23233751769E+02  0.23233751769E+02  0.00000000000E+00 0. -1.
         25    2    1    2    0    0 -0.39018663505E+02  0.22269528335E+02  0.51116165263E+03  0.52815927132E+03  0.12509033843E+03 0.  0.
          5    1    3    3  502    0  0.36782494530E+02 -0.15717304813E+02  0.25870521949E+03  0.26181262110E+03  0.41800000000E+01 0.  1.
         -5    1    3    3    0  502 -0.75801158035E+02  0.37986833149E+02  0.25245643314E+03  0.26634665022E+03  0.41800000000E+01 0.  1.
        -11    1    1    2    0    0  0.15981565077E+02 -0.45649941738E+01 -0.83760679820E+01  0.18612042041E+02  0.00000000000E+00 0. -1.
         11    1    1    2    0    0  0.23037098428E+02 -0.17704534161E+02  0.16883063274E+03  0.17131240756E+03  0.00000000000E+00 0.  1.
</event>
<event>
 7    1  0.2601031E-009  0.8219330E+02  0.7561462E-02  0.1322940E+00
         -4   -1    0    0    0  501 -0.00000000000E+00  0.00000000000E+00  0.75212108433E+02  0.75212108433E+02  0.00000000000E+00 0.  1.
          4   -1    0    0  501    0  0.00000000000E+00 -0.00000000000E+00 -0.17903500114E+03  0.17903500114E+03  0.00000000000E+00 0. -1.
         25    2    1    2    0    0  0.34943684195E+02  0.11599017725E+02 -0.29615949514E+02  0.13371574642E+03  0.12508876088E+03 0.  0.
          5    1    3    3  502    0  0.13176021048E+02  0.47092105079E+02  0.32467593157E+02  0.58846332909E+02  0.41800000000E+01 0. -1.
         -5    1    3    3    0  502  0.21767663147E+02 -0.35493087353E+02 -0.62083542671E+02  0.74869413510E+02  0.41800000000E+01 0. -1.
        -11    1    1    2    0    0 -0.21911790543E+02 -0.38087815038E+02 -0.37032923483E+01  0.44096741301E+02  0.00000000000E+00 0. -1.
         11    1    1    2    0    0 -0.13031893652E+02  0.26488797313E+02 -0.70503650841E+02  0.76434621849E+02  0.00000000000E+00 0.  1.
</event>
<event>
 7    1  0.2601031E-009  0.9749043E+02  0.7561462E-02  0.1285664E+00
          2   -1    0    0  501    0  0.00000000000E+00  0.00000000000E+00  0.33159694717E+02  0.33159694717E+02  0.00000000000E+00 0. -1.
         -2   -1    0    0    0  501 -0.00000000000E+00 -0.00000000000E+00 -0.39905747761E+03  0.39905747761E+03  0.00000000000E+00 0.  1.
         25    2    1    2    0    0  0.32635020703E+02 -0.30256014718E+01 -0.25109127558E+03  0.28243374953E+03  0.12509114821E+03 0.  0.
          5    1    3    3  502    0  0.21751337008E+02 -0.53424365074E+02 -0.20549216597E+03  0.21347549302E+03  0.41800000000E+01 0. -1.
         -5    1    3    3    0  502  0.10883683696E+02  0.50398763602E+02 -0.45599109609E+02  0.68958256507E+02  0.41800000000E+01 0. -1.
        -11    1    1    2    0    0  0.96458426625E+00  0.37363168229E+02 -0.85991418352E+02  0.93762790024E+02  0.00000000000E+00 0.  1.
         11    1    1    2    0    0 -0.33599604969E+02 -0.34337566757E+02 -0.28815088964E+02  0.56020632778E+02  0.00000000000E+00 0. -1.
</event>
<event>
 7    1  0.2767049E-009  0.1472147E+03  0.7561462E-02  0.1203938E+00
          2   -1    0    0  501    0  0.00000000000E+00  0.00000000000E+00  0.16739660441E+04  0.16739660441E+04  0.00000000000E+00 0. -1.
         -2   -1    0    0    0  501 -0.00000000000E+00 -0.00000000000E+00 -0.14237627352E+02  0.14237627352E+02  0.00000000000E+00 0.  1.
         25    2    1    2    0    0 -0.47411471841E+02  0.96518034155E+02  0.10023384397E+04  0.10158213671E+04  0.12508846344E+03 0.  0.
          5    1    3    3  502    0  0.30851647014E+02  0.27979930925E+01  0.39989256349E+03  0.40111243763E+03  0.41800000000E+01 0. -1.
         -5    1    3    3    0  502 -0.78263118855E+02  0.93720041063E+02  0.60244587620E+03  0.61470892951E+03  0.41800000000E+01 0. -1.
        -11    1    1    2    0    0  0.50494571485E+02 -0.64813469476E+01  0.25471020900E+03  0.25974795510E+03  0.00000000000E+00 0. -1.
         11    1    1    2    0    0 -0.30830996443E+01 -0.90036687208E+02  0.40267976801E+03  0.41263434917E+03  0.00000000000E+00 0.  1.
</event>
<event>
 7    1  0.2601031E-009  0.1395554E+03  0.7561462E-02  0.1213928E+00
          2   -1    0    0  501    0  0.00000000000E+00  0.00000000000E+00  0.11926976303E+04  0.11926976303E+04  0.00000000000E+00 0. -1.
         -2   -1    0    0    0  501 -0.00000000000E+00 -0.00000000000E+00 -0.21560179722E+02  0.21560179722E+02  0.00000000000E+00 0.  1.
         25    2    1    2    0    0  0.70338021730E+02  0.89542458493E+02  0.75258568183E+03  0.77136074239E+03  0.12508755824E+03 0.  0.
          5    1    3    3  502    0 -0.29137622221E+02  0.29450061657E+02  0.97287612161E+02  0.10582371681E+03  0.41800000000E+01 0. -1.
         -5    1    3    3    0  502  0.99475643951E+02  0.60092396836E+02  0.65529806967E+03  0.66553702557E+03  0.41800000000E+01 0. -1.
        -11    1    1    2    0    0 -0.40209767834E+01 -0.35234101232E+02  0.34788193244E+02  0.49677243615E+02  0.00000000000E+00 0.  1.
         11    1    1    2    0    0 -0.66317044947E+02 -0.54308357260E+02  0.38376357549E+03  0.39321982401E+03  0.00000000000E+00 0. -1.
</event>
<event>
 7    1  0.2601031E-009  0.1251808E+03  0.7561462E-02  0.1234787E+00
          2   -1    0    0  501    0  0.00000000000E+00  0.00000000000E+00  0.31449496615E+03  0.31449496615E+03  0.00000000000E+00 0. -1.
         -2   -1    0    0    0  501 -0.00000000000E+00 -0.00000000000E+00 -0.54326552205E+02  0.54326552205E+02  0.00000000000E+00 0.  1.
         25    2    1    2    0    0 -0.51895916379E+02 -0.42229918595E+02  0.95665354768E+02  0.17109632528E+03  0.12508213405E+03 0.  0.
          5    1    3    3  502    0 -0.92455202166E+02 -0.19288759003E+02  0.70826614378E+02  0.11812663686E+03  0.41800000000E+01 0. -1.
         -5    1    3    3    0  502  0.40559285787E+02 -0.22941159592E+02  0.24838740390E+02  0.52969688418E+02  0.41800000000E+01 0. -1.
        -11    1    1    2    0    0 -0.18640323518E+02 -0.10108800441E+02  0.23985051358E+02  0.32014562247E+02  0.00000000000E+00 0.  1.
         11    1    1    2    0    0  0.70536239897E+02  0.52338719036E+02  0.14051800782E+03  0.16571063083E+03  0.00000000000E+00 0. -1.
</event>
<event>
 7    1  0.2601031E-009  0.7881522E+02  0.7561462E-02  0.1332448E+00
         -1   -1    0    0    0  501 -0.00000000000E+00  0.00000000000E+00  0.56592946354E+02  0.56592946354E+02  0.00000000000E+00 0.  1.
          1   -1    0    0  501    0  0.00000000000E+00 -0.00000000000E+00 -0.26543816724E+03  0.26543816724E+03  0.00000000000E+00 0. -1.
         25    2    1    2    0    0 -0.35201511364E+02 -0.20185862295E+02 -0.85123062917E+02  0.15665351504E+03  0.12509105681E+03 0.  0.
          5    1    3    3  502    0  0.26563293703E+01  0.78582090450E+01 -0.10495516837E+03  0.10536539898E+03  0.41800000000E+01 0. -1.
         -5    1    3    3    0  502 -0.37857840735E+02 -0.28044071340E+02  0.19832105450E+02  0.51288116060E+02  0.41800000000E+01 0. -1.
        -11    1    1    2    0    0  0.74511692830E+01  0.55574405596E+02 -0.35528980317E+02  0.66380290173E+02  0.00000000000E+00 0.  1.
         11    1    1    2    0    0  0.27750342082E+02 -0.35388543302E+02 -0.88193177657E+02  0.98997308387E+02  0.00000000000E+00 0. -1.
</event>
<event>
 7    1  0.2601031E-009  0.8862015E+02  0.7561462E-02  0.1306228E+00
         -1   -1    0    0    0  501 -0.00000000000E+00  0.00000000000E+00  0.31698430400E+02  0.31698430400E+02  0.00000000000E+00 0.  1.
          1   -1    0    0  501    0  0.00000000000E+00 -0.00000000000E+00 -0.13280452011E+04  0.13280452011E+04  0.00000000000E+00 0. -1.
         25    2    1    2    0    0 -0.44612144043E+01 -0.75050782242E+02 -0.11869967641E+04  0.11959351282E+04  0.12508793153E+03 0.  0.
          5    1    3    3  502    0  0.18971210088E+01  0.86995830813E+01 -0.51552506812E+01  0.11105441166E+02  0.41800000000E+01 0. -1.
         -5    1    3    3    0  502 -0.63583354131E+01 -0.83750365323E+02 -0.11818415134E+04  0.11848296871E+04  0.41800000000E+01 0. -1.
        -11    1    1    2    0    0  0.14184802366E+02  0.95733028228E+01 -0.94409370141E+02  0.95947829134E+02  0.00000000000E+00 0. -1.
         11    1    1    2    0    0 -0.97235879614E+01  0.65477479419E+02 -0.14940636442E+02  0.67860674114E+02  0.00000000000E+00 0.  1.
</event>
<event>
 7    1  0.2601031E-009  0.2322423E+03  0.7561462E-02  0.1125071E+00
          2   -1    0    0  501    0  0.00000000000E+00  0.00000000000E+00  0.88880014719E+03  0.88880014719E+03  0.00000000000E+00 0. -1.
         -2   -1    0    0    0  501 -0.00000000000E+00 -0.00000000000E+00 -0.67647654005E+02  0.67647654005E+02  0.00000000000E+00 0.  1.
         25    2    1    2    0    0  0.16082186587E+03  0.13794377621E+03  0.30160123224E+03  0.38923295020E+03  0.12508728271E+03 0.  0.
          5    1    3    3  502    0  0.12738760562E+03  0.15813698522E+03  0.27465951591E+03  0.34159951733E+03  0.41800000000E+01 0. -1.
         -5    1    3    3    0  502  0.33434260251E+02 -0.20193209005E+02  0.26941716336E+02  0.47633432876E+02  0.41800000000E+01 0. -1.
        -11    1    1    2    0    0 -0.40651450821E+02 -0.20690625824E+01  0.15178318305E+03  0.15714628895E+03  0.00000000000E+00 0. -1.
         11    1    1    2    0    0 -0.12017041505E+03 -0.13587471363E+03  0.36776807789E+03  0.41006856204E+03  0.00000000000E+00 0.  1.
</event>
<event>
 7    1  0.2601031E-009  0.1342159E+03  0.7561462E-02  0.1221331E+00
         -1   -1    0    0    0  501 -0.00000000000E+00  0.00000000000E+00  0.20835408925E+02  0.20835408925E+02  0.00000000000E+00 0.  1.
          1   -1    0    0  501    0  0.00000000000E+00 -0.00000000000E+00 -0.10299696660E+04  0.10299696660E+04  0.00000000000E+00 0. -1.
         25    2    1    2    0    0  0.71011343047E+02 -0.64118513964E+02 -0.46966441768E+03  0.49536436549E+03  0.12508954668E+03 0.  0.
          5    1    3    3  502    0  0.76355487716E+02 -0.90105717667E+02 -0.43886633188E+03  0.45450008858E+03  0.41800000000E+01 0.  1.
         -5    1    3    3    0  502 -0.53441446692E+01  0.25987203703E+02 -0.30798085798E+02  0.40864276910E+02  0.41800000000E+01 0.  1.
        -11    1    1    2    0    0 -0.88119563515E+02  0.56406586703E+02 -0.50910599415E+03  0.51974577802E+03  0.00000000000E+00 0. -1.
         11    1    1    2    0    0  0.17108220468E+02  0.77119272610E+01 -0.30363845208E+02  0.35694931369E+02  0.00000000000E+00 0.  1.
</event>
<event>
 7    1  0.2601031E-009  0.1674800E+03  0.7561462E-02  0.1180502E+00
          3   -1    0    0  501    0  0.00000000000E+00  0.00000000000E+00  0.83579473840E+02  0.83579473840E+02  0.00000000000E+00 0. -1.
         -3   -1    0    0    0  501 -0.00000000000E+00 -0.00000000000E+00 -0.51205098462E+03  0.51205098462E+03  0.00000000000E+00 0.  1.
         25    2    1    2    0    0 -0.15303795701E+03  0.59691547678E+02 -0.31342971742E+03  0.37532502429E+03  0.12508792488E+03 0.  0.
          5    1    3    3  502    0 -0.92073644750E+02  0.48485270084E+02 -0.29133001923E+03  0.30938492202E+03  0.41800000000E+01 0.  1.
         -5    1    3    3    0  502 -0.60964312263E+02  0.11206277594E+02 -0.22099698187E+02  0.65940102268E+02  0.41800000000E+01 0.  1.
        -11    1    1    2    0    0  0.14066217806E+02 -0.19461280435E+02 -0.61528626724E+02  0.66048253770E+02  0.00000000000E+00 0.  1.
         11    1    1    2    0    0  0.13897173921E+03 -0.40230267243E+02 -0.53513166642E+02  0.15425718040E+03  0.00000000000E+00 0. -1.
</event>
<event>
 7    1  0.2601031E-009  0.1010015E+03  0.7561462E-02  0.1278204E+00
          1   -1    0    0  501    0  0.00000000000E+00  0.00000000000E+00  0.12636709270E+04  0.12636709270E+04  0.00000000000E+00 0. -1.
         -1   -1    0    0    0  501 -0.00000000000E+00 -0.00000000000E+00 -0.18868183761E+02  0.18868183761E+02  0.00000000000E+00 0.  1.
         25    2    1    2    0    0 -0.55085363779E+02 -0.81079397003E+01  0.10426070807E+04  0.10515589267E+04  0.12508603271E+03 0.  0.
          5    1    3    3  502    0 -0.72137412061E+02 -0.18008344789E+02  0.31538299568E+03  0.32405557096E+03  0.41800000000E+01 0.  1.
         -5    1    3    3    0  502  0.17052048282E+02  0.99004050884E+01  0.72722408505E+03  0.72750335577E+03  0.41800000000E+01 0.  1.
        -11    1    1    2    0    0 -0.25961507282E+02  0.35536158296E+01  0.25656492886E+02  0.36672655659E+02  0.00000000000E+00 0.  1.
         11    1    1    2    0    0  0.81046871061E+02  0.45543238707E+01  0.17653916957E+03  0.19430752834E+03  0.00000000000E+00 0. -1.
</event>
<event>
 7    1  0.2601031E-009  0.1129498E+03  0.7561462E-02  0.1255203E+00
          2   -1    0    0  501    0  0.00000000000E+00  0.00000000000E+00  0.14273350244E+03  0.14273350244E+03  0.00000000000E+00 0. -1.
         -2   -1    0    0    0  501 -0.00000000000E+00 -0.00000000000E+00 -0.18672228122E+03  0.18672228122E+03  0.00000000000E+00 0.  1.
         25    2    1    2    0    0  0.10114663281E+03  0.45381735565E+02  0.26096535844E+02  0.16917182414E+03  0.12509170096E+03 0.  0.
          5    1    3    3  502    0  0.98371300483E+02  0.47657282150E+02  0.66751094322E+02  0.12814566046E+03  0.41800000000E+01 0.  1.
         -5    1    3    3    0  502  0.27753323221E+01 -0.22755465846E+01 -0.40654558479E+02  0.41026163687E+02  0.41800000000E+01 0.  1.
        -11    1    1    2    0    0 -0.55800765070E+02 -0.28086514393E+02 -0.88541152533E+02  0.10836103250E+03  0.00000000000E+00 0.  1.
         11    1    1    2    0    0 -0.45345867736E+02 -0.17295221173E+02  0.18455837910E+02  0.51922927008E+02  0.00000000000E+00 0. -1.
</event>
<event>
 7    1  0.2601031E-009  0.1394454E+03  0.7561462E-02  0.1214077E+00
          2   -1    0    0  501    0  0.00000000000E+00  0.00000000000E+00  0.77879420425E+03  0.77879420425E+03  0.00000000000E+00 0. -1.
         -2   -1    0    0    0  501 -0.00000000000E+00 -0.00000000000E+00 -0.29001890619E+02  0.29001890619E+02  0.00000000000E+00 0.  1.
         25    2    1    2    0    0  0.86930106259E+02 -0.24278392885E+02  0.28854989414E+03  0.32719221230E+03  0.12508964246E+03 0.  0.
          5    1    3    3  502    0  0.11029858224E+03 -0.37769894276E+02  0.17439867253E+03  0.20982066518E+03  0.41800000000E+01 0.  1.
         -5    1    3    3    0  502 -0.23368475977E+02  0.13491501391E+02  0.11415122161E+03  0.11737154712E+03  0.41800000000E+01 0.  1.
        -11    1    1    2    0    0 -0.30220893640E+00  0.45688950743E+02  0.16568202811E+03  0.17186653539E+03  0.00000000000E+00 0.  1.
         11    1    1    2    0    0 -0.86627897322E+02 -0.21410557858E+02  0.29556039138E+03  0.30873734717E+03  0.00000000000E+00 0. -1.
</event>
<event>
 7    1  0.2601031E-009  0.1326015E+03  0.7561462E-02  0.1223646E+00
          1   -1    0    0  501    0  0.00000000000E+00  0.00000000000E+00  0.59378476839E+02  0.59378476839E+02  0.00000000000E+00 0. -1.
         -1   -1    0    0    0  501 -0.00000000000E+00 -0.00000000000E+00 -0.56962914367E+03  0.56962914367E+03  0.00000000000E+00 0.  1.
         25    2    1    2    0    0  0.11856791365E+03 -0.46018624178E+02 -0.39613430288E+03  0.43444890488E+03  0.12508957238E+03 0.  0.
          5    1    3    3  502    0  0.79437749379E+02 -0.20424844125E+02 -0.79328865718E+02  0.11418437555E+03  0.41800000000E+01 0.  1.
         -5    1    3    3    0  502  0.39130164266E+02 -0.25593780052E+02 -0.31680543716E+03  0.32026452933E+03  0.41800000000E+01 0.  1.
        -11    1    1    2    0    0 -0.37283847360E+02  0.39913915800E+02 -0.96921471943E+02  0.11125186593E+03  0.00000000000E+00 0.  1.
         11    1    1    2    0    0 -0.81284066285E+02  0.61047083778E+01 -0.17194892013E+02  0.83306849704E+02  0.00000000000E+00 0. -1.
</event>
<event>
 7    1  0.2601031E-009  0.1242613E+03  0.7561462E-02  0.1236228E+00
          1   -1    0    0  501    0  0.00000000000E+00  0.00000000000E+00  0.16021668759E+04  0.16021668759E+04  0.00000000000E+00 0. -1.
         -1   -1    0    0    0  501 -0.00000000000E+00 -0.00000000000E+00 -0.12080559106E+02  0.12080559106E+02  0.00000000000E+00 0.  1.
         25    2    1    2    0    0  0.27584675622E+02 -0.75653629389E+02  0.10727394597E+04  0.10830056769E+04  0.12508781688E+03 0.  0.
          5    1    3    3  502    0  0.60239763924E+02 -0.83855323265E+02  0.58258275424E+03  0.59167616340E+03  0.41800000000E+01 0. -1.
         -5    1    3    3    0  502 -0.32655088303E+02  0.82016938754E+01  0.49015670545E+03  0.49132951354E+03  0.41800000000E+01 0. -1.
        -11    1    1    2    0    0 -0.35620095972E+02  0.44413986502E+00  0.82449845955E+02  0.89816288028E+02  0.00000000000E+00 0.  1.
         11    1    1    2    0    0  0.80354203504E+01  0.75209489524E+02  0.43489701111E+03  0.44142547001E+03  0.00000000000E+00 0. -1.
</event>
<event>
 7    1  0.2601031E-009  0.1079494E+03  0.7561462E-02  0.1264415E+00
          2   -1    0    0  501    0  0.00000000000E+00  0.00000000000E+00  0.82273430029E+03  0.82273430029E+03  0.00000000000E+00 0. -1.
         -2   -1    0    0    0  501 -0.00000000000E+00 -0.00000000000E+00 -0.19312337617E+02  0.19312337617E+02  0.00000000000E+00 0.  1.
         25    2    1    2    0    0 -0.39264559740E+02 -0.52052279889E+02  0.39412999797E+03  0.41861355606E+03  0.12509080110E+03 0.  0.
          5    1    3    3  502    0  0.26728263276E+02 -0.54302147169E+02  0.28171177831E+03  0.28817029979E+03  0.41800000000E+01 0. -1.
         -5    1    3    3    0  502 -0.65992823015E+02  0.22498672804E+01  0.11241821967E+03  0.13044325627E+03  0.41800000000E+01 0. -1.
        -11    1    1    2    0    0  0.25483005683E+02 -0.85800255174E+01  0.35653164573E+02  0.44655890547E+02  0.00000000000E+00 0.  1.
         11    1    1    2    0    0  0.13781554056E+02  0.60632305406E+02  0.37363880012E+03  0.37877719130E+03  0.00000000000E+00 0. -1.
</event>
<event>
 7    1  0.2601031E-009  0.1254738E+03  0.7561462E-02  0.1234331E+00
         -1   -1    0    0    0  501 -0.00000000000E+00  0.00000000000E+00  0.30846370748E+03  0.30846370748E+03  0.00000000000E+00 0.  1.
          1   -1    0    0  501    0  0.00000000000E+00 -0.00000000000E+00 -0.56439654949E+02  0.56439654949E+02  0.00000000000E+00 0. -1.
         25    2    1    2    0    0 -0.67773726346E+02  0.25401355022E+02  0.15998684353E+03  0.21559765581E+03  0.12509217508E+03 0.  0.
          5    1    3    3  502    0 -0.52300133880E+01  0.64387653457E+02  0.44573665351E+02  0.78596482113E+02  0.41800000000E+01 0. -1.
         -5    1    3    3    0  502 -0.62543712958E+02 -0.38986298435E+02  0.11541317818E+03  0.13700117370E+03  0.41800000000E+01 0. -1.
        -11    1    1    2    0    0  0.26642970600E+02 -0.55408569944E+02  0.28168263733E+02  0.67626981208E+02  0.00000000000E+00 0. -1.
         11    1    1    2    0    0  0.41130755745E+02  0.30007214921E+02  0.63868945266E+02  0.81678725412E+02  0.00000000000E+00 0.  1.
</event>
<event>
 7    1  0.2601031E-009  0.1574494E+03  0.7561462E-02  0.1191607E+00
          2   -1    0    0  501    0  0.00000000000E+00  0.00000000000E+00  0.22622722061E+03  0.22622722061E+03  0.00000000000E+00 0. -1.
         -2   -1    0    0    0  501 -0.00000000000E+00 -0.00000000000E+00 -0.14090543976E+03  0.14090543976E+03  0.00000000000E+00 0.  1.
         25    2    1    2    0    0  0.79438669921E+02 -0.10523063267E+03  0.95399714272E+02  0.20526256482E+03  0.12509047407E+03 0.  0.
          5    1    3    3  502    0  0.57526809062E+02 -0.12184296081E+03  0.10987232360E+03  0.17390928886E+03  0.41800000000E+01 0.  1.
         -5    1    3    3    0  502  0.21911860859E+02  0.16612328142E+02 -0.14472609325E+02  0.31353275957E+02  0.41800000000E+01 0.  1.
        -11    1    1    2    0    0 -0.37650647382E+02  0.10385547677E+03 -0.31524796772E+02  0.11487969410E+03  0.00000000000E+00 0.  1.
         11    1    1    2    0    0 -0.41788022538E+02  0.13751558953E+01  0.21446863353E+02  0.46990401457E+02  0.00000000000E+00 0. -1.
</event>
<event>
 7    1  0.2601031E-009  0.1852142E+03  0.7561462E-02  0.1162850E+00
         -3   -1    0    0    0  501 -0.00000000000E+00  0.00000000000E+00  0.39846809646E+02  0.39846809646E+02  0.00000000000E+00 0.  1.
          3   -1    0    0  501    0  0.00000000000E+00 -0.00000000000E+00 -0.11967667272E+04  0.11967667272E+04  0.00000000000E+00 0. -1.
         25    2    1    2    0    0 -0.62677927492E+02  0.15232593028E+03 -0.33713614353E+03  0.39552571984E+03  0.12509238247E+03 0.  0.
          5    1    3    3  502    0 -0.34285324328E+02  0.80294147952E+01 -0.10021903414E+02  0.36849232208E+02  0.41800000000E+01 0.  1.
         -5    1    3    3    0  502 -0.28392603163E+02  0.14429651548E+03 -0.32711424012E+03  0.35867648763E+03  0.41800000000E+01 0.  1.
        -11    1    1    2    0    0 -0.23546852263E+02 -0.28766038224E+02 -0.14532420202E+03  0.15000354295E+03  0.00000000000E+00 0.  1.
         11    1    1    2    0    0  0.86224779755E+02 -0.12355989205E+03 -0.67445957202E+03  0.69108427406E+03  0.00000000000E+00 0. -1.
</event>
<event>
 7    1  0.2601031E-009  0.1471055E+03  0.7561462E-02  0.1204076E+00
         -1   -1    0    0    0  501 -0.00000000000E+00  0.00000000000E+00  0.10949784258E+03  0.10949784258E+03  0.00000000000E+00 0.  1.
          1   -1    0    0  501    0  0.00000000000E+00 -0.00000000000E+00 -0.40940535786E+03  0.40940535786E+03  0.00000000000E+00 0. -1.
         25    2    1    2    0    0  0.78112108174E+02  0.93286596424E+02  0.91202644700E+01  0.17474117562E+03  0.12508960276E+03 0.  0.
          5    1    3    3  502    0  0.91239665798E+02  0.65369163900E+02  0.50342614484E+02  0.12308393655E+03  0.41800000000E+01 0. -1.
         -5    1    3    3    0  502 -0.13127557625E+02  0.27917432523E+02 -0.41222350014E+02  0.51657239072E+02  0.41800000000E+01 0. -1.
        -11    1    1    2    0    0 -0.53130733749E+02  0.10824963194E+01 -0.93248641061E+02  0.10732826155E+03  0.00000000000E+00 0. -1.
         11    1    1    2    0    0 -0.24981374424E+02 -0.94369092743E+02 -0.21577913869E+03  0.23683376327E+03  0.00000000000E+00 0.  1.
</event>
<event>
 7    1  0.2601031E-009  0.1412889E+03  0.7561462E-02  0.1211605E+00
          2   -1    0    0  501    0  0.00000000000E+00  0.00000000000E+00  0.19707614776E+03  0.19707614776E+03  0.00000000000E+00 0.  1.
         -2   -1    0    0    0  501 -0.00000000000E+00 -0.00000000000E+00 -0.12204756091E+03  0.12204756091E+03  0.00000000000E+00 0. -1.
         25    2    1    2    0    0  0.27619555467E+01  0.93191933136E+02 -0.20476022975E+02  0.15734936426E+03  0.12508872898E+03 0.  0.
          5    1    3    3  502    0  0.20773411098E+02  0.11865990339E+03 -0.30469693360E+02  0.12432852406E+03  0.41800000000E+01 0. -1.
         -5    1    3    3    0  502 -0.18011455551E+02 -0.25467970255E+02  0.99936703844E+01  0.33020840203E+02  0.41800000000E+01 0. -1.
        -11    1    1    2    0    0 -0.32113725040E+02 -0.95859595601E+02  0.74613924344E+02  0.12564868129E+03  0.00000000000E+00 0.  1.
         11    1    1    2    0    0  0.29351769494E+02  0.26676624649E+01  0.20890685479E+02  0.36125663111E+02  0.00000000000E+00 0. -1.
</event>
<event>
 7    1  0.2601031E-009  0.9829352E+02  0.7561462E-02  0.1283926E+00
         -2   -1    0    0    0  501 -0.00000000000E+00  0.00000000000E+00  0.55743523532E+02  0.55743523532E+02  0.00000000000E+00 0. -1.
          2   -1    0    0  501    0  0.00000000000E+00 -0.00000000000E+00 -0.27290692021E+03  0.27290692021E+03  0.00000000000E+00 0.  1.
         25    2    1    2    0    0  0.31638761550E+02  0.36044486613E+02 -0.81794966652E+02  0.15696016143E+03  0.12508341000E+03 0.  0.
          5    1    3    3  502    0 -0.42753412573E+02 -0.26450622210E+01 -0.52844380799E+02  0.68153148297E+02  0.41800000000E+01 0. -1.
         -5    1    3    3    0  502  0.74392174124E+02  0.38689548834E+02 -0.28950585853E+02  0.88807013130E+02  0.41800000000E+01 0. -1.
        -11    1    1    2    0    0 -0.43281998840E+02 -0.15491267505E+02 -0.14023023411E+03  0.14757313221E+03  0.00000000000E+00 0.  1.
         11    1    1    2    0    0  0.11643237290E+02 -0.20553219108E+02  0.48618040804E+01  0.24117150106E+02  0.00000000000E+00 0. -1.
</event>
<event>
 7    1  0.2601031E-009  0.1143931E+03  0.7561462E-02  0.1252644E+00
         -1   -1    0    0    0  501 -0.00000000000E+00  0.00000000000E+00  0.22825477949E+03  0.22825477949E+03  0.00000000000E+00 0.  1.
          1   -1    0    0  501    0  0.00000000000E+00 -0.00000000000E+00 -0.69054628168E+02  0.69054628168E+02  0.00000000000E+00 0. -1.
         25    2    1    2    0    0  0.39033621338E+02 -0.45523296897E+02  0.68751415370E+02  0.15482605726E+03  0.12509339206E+03 0.  0.
          5    1    3    3  502    0 -0.26548969644E+02 -0.47402449995E+02  0.70446233501E+02  0.89061687999E+02  0.41800000000E+01 0. -1.
         -5    1    3    3    0  502  0.65582590982E+02  0.18791530972E+01 -0.16948181307E+01  0.65764369265E+02  0.41800000000E+01 0. -1.
        -11    1    1    2    0    0 -0.43133935156E+02 -0.16655880253E+02  0.26962120338E+02  0.53524860039E+02  0.00000000000E+00 0. -1.
         11    1    1    2    0    0  0.41003138182E+01  0.62179177150E+02  0.63486615619E+02  0.88958490361E+02  0.00000000000E+00 0.  1.
</event>
<event>
 7    1  0.2601031E-009  0.1067434E+03  0.7561462E-02  0.1266722E+00
         -3   -1    0    0    0  501 -0.00000000000E+00  0.00000000000E+00  0.15445911001E+03  0.15445911001E+03  0.00000000000E+00 0.  1.
          3   -1    0    0  501    0  0.00000000000E+00 -0.00000000000E+00 -0.11083061337E+03  0.11083061337E+03  0.00000000000E+00 0. -1.
         25    2    1    2    0    0  0.45491091550E+02  0.23113167144E+02 -0.31939396963E+02  0.13882596873E+03  0.12509543001E+03 0.  0.
          5    1    3    3  502    0 -0.34464937965E+02  0.39936993957E+02 -0.17582714618E+02  0.55762170766E+02  0.41800000000E+01 0. -1.
         -5    1    3    3    0  502  0.79956029515E+02 -0.16823826813E+02 -0.14356682344E+02  0.83063797965E+02  0.41800000000E+01 0. -1.
        -11    1    1    2    0    0 -0.25214821952E+02 -0.43323615635E+02  0.82931129303E+02  0.96903535153E+02  0.00000000000E+00 0.  1.
         11    1    1    2    0    0 -0.20276269598E+02  0.20210448491E+02 -0.73632357018E+01  0.29560219502E+02  0.00000000000E+00 0. -1.
</event>
<event>
 7    1  0.2601031E-009  0.1429433E+03  0.7561462E-02  0.1209423E+00
         -1   -1    0    0    0  501 -0.00000000000E+00  0.00000000000E+00  0.18218381774E+03  0.18218381774E+03  0.00000000000E+00 0.  1.
          1   -1    0    0  501    0  0.00000000000E+00 -0.00000000000E+00 -0.15353988828E+03  0.15353988828E+03  0.00000000000E+00 0. -1.
         25    2    1    2    0    0 -0.10067753125E+03  0.32348671500E+02  0.94081339372E+01  0.16406452462E+03  0.12508498474E+03 0.  0.
          5    1    3    3  502    0 -0.72899911941E+02  0.69545737117E+00  0.62536162458E+02  0.96141171394E+02  0.41800000000E+01 0.  1.
         -5    1    3    3    0  502 -0.27777619311E+02  0.31653214129E+02 -0.53128028521E+02  0.67923353228E+02  0.41800000000E+01 0.  1.
        -11    1    1    2    0    0  0.76902738673E+02 -0.83876705120E+02  0.14460412239E+02  0.11471022796E+03  0.00000000000E+00 0.  1.
         11    1    1    2    0    0  0.23774792580E+02  0.51528033620E+02  0.47753832831E+01  0.56948953428E+02  0.00000000000E+00 0. -1.
</event>
<event>
 7    1  0.2601031E-009  0.9500699E+02  0.7561462E-02  0.1291160E+00
         -3   -1    0    0    0  501 -0.00000000000E+00  0.00000000000E+00  0.76903428281E+02  0.76903428281E+02  0.00000000000E+00 0.  1.
          3   -1    0    0  501    0  0.00000000000E+00 -0.00000000000E+00 -0.26357902923E+03  0.26357902923E+03  0.00000000000E+00 0. -1.
         25    2    1    2    0    0  0.11542537030E+02 -0.62257956706E+02 -0.18258458103E+03  0.23021142828E+03  0.12510351373E+03 0.  0.
          5    1    3    3  502    0 -0.24764508034E+02 -0.17268585489E+02  0.75817350794E+01  0.31407642537E+02  0.41800000000E+01 0.  1.
         -5    1    3    3    0  502  0.36307045064E+02 -0.44989371217E+02 -0.19016631611E+03  0.19880378575E+03  0.41800000000E+01 0.  1.
        -11    1    1    2    0    0  0.30493588625E+02  0.48597159358E+02  0.18956804140E+02  0.60422704906E+02  0.00000000000E+00 0.  1.
         11    1    1    2    0    0 -0.42036125655E+02  0.13660797348E+02 -0.23047824062E+02  0.49848324327E+02  0.00000000000E+00 0. -1.
</event>
<event>
 7    1  0.2601031E-009  0.1634901E+03  0.7561462E-02  0.1184812E+00
         -2   -1    0    0    0  501 -0.00000000000E+00  0.00000000000E+00  0.51444056047E+02  0.51444056047E+02  0.00000000000E+00 0.  1.
          2   -1    0    0  501    0  0.00000000000E+00 -0.00000000000E+00 -0.75228747163E+03  0.75228747163E+03  0.00000000000E+00 0. -1.
         25    2    1    2    0    0 -0.11872782868E+03 -0.10320252244E+03 -0.46175398589E+03  0.50360124026E+03  0.12510158977E+03 0.  0.
          5    1    3    3  502    0 -0.70214987149E+02 -0.31179673182E+02 -0.36711662220E+03  0.37509252610E+03  0.41800000000E+01 0. -1.
         -5    1    3    3    0  502 -0.48512841533E+02 -0.72022849255E+02 -0.94637363694E+02  0.12850871416E+03  0.41800000000E+01 0. -1.
        -11    1    1    2    0    0  0.61463282456E+02  0.25418105670E+02 -0.36919281235E+02  0.76071338316E+02  0.00000000000E+00 0.  1.
         11    1    1    2    0    0  0.57264546226E+02  0.77784416767E+02 -0.20217014845E+03  0.22405894910E+03  0.00000000000E+00 0. -1.
</event>
<event>
 7    1  0.2601031E-009  0.2092535E+03  0.7561462E-02  0.1142158E+00
         -2   -1    0    0    0  501 -0.00000000000E+00  0.00000000000E+00  0.11266798348E+04  0.11266798348E+04  0.00000000000E+00 0.  1.
          2   -1    0    0  501    0  0.00000000000E+00 -0.00000000000E+00 -0.82551651850E+02  0.82551651850E+02  0.00000000000E+00 0. -1.
         25    2    1    2    0    0 -0.10402712478E+03 -0.15353026780E+03  0.96107272529E+03  0.98676461883E+03  0.12510173400E+03 0.  0.
          5    1    3    3  502    0  0.17363622348E+02 -0.49027141828E+02  0.39568242044E+03  0.39910801328E+03  0.41800000000E+01 0.  1.
         -5    1    3    3    0  502 -0.12139074713E+03 -0.10450312598E+03  0.56539030485E+03  0.58765660555E+03  0.41800000000E+01 0.  1.
        -11    1    1    2    0    0 -0.14913598739E+02  0.35621297309E+02  0.20195170686E+02  0.43579090954E+02  0.00000000000E+00 0. -1.
         11    1    1    2    0    0  0.11894072352E+03  0.11790897050E+03  0.62860286975E+02  0.17888777687E+03  0.00000000000E+00 0.  1.
</event>
<event>
 7    1  0.2601031E-009  0.7449426E+02  0.7561462E-02  0.1345444E+00
          2   -1    0    0  501    0  0.00000000000E+00  0.00000000000E+00  0.16687560018E+04  0.16687560018E+04  0.00000000000E+00 0. -1.
         -2   -1    0    0    0  501 -0.00000000000E+00 -0.00000000000E+00 -0.10129606372E+02  0.10129606372E+02  0.00000000000E+00 0.  1.
         25    2    1    2    0    0  0.14923622568E+01  0.89326133045E+01  0.13739436812E+04  0.13796559478E+04  0.12508907433E+03 0.  0.
          5    1    3    3  502    0 -0.21300037237E+02 -0.17652981698E+02  0.72152985474E+02  0.77387628610E+02  0.41800000000E+01 0. -1.
         -5    1    3    3    0  502  0.22792399493E+02  0.26585595002E+02  0.13017906957E+04  0.13022683192E+04  0.41800000000E+01 0. -1.
        -11    1    1    2    0    0 -0.14851016164E+02  0.35959543269E+02  0.18560583649E+03  0.18963957385E+03  0.00000000000E+00 0. -1.
         11    1    1    2    0    0  0.13358653908E+02 -0.44892156573E+02  0.99076877739E+02  0.10959008650E+03  0.00000000000E+00 0.  1.
</event>
<event>
 7    1  0.2601031E-009  0.1055589E+03  0.7561462E-02  0.1269022E+00
         -2   -1    0    0    0  501 -0.00000000000E+00  0.00000000000E+00  0.39995926885E+02  0.39995926885E+02  0.00000000000E+00 0.  1.
          2   -1    0    0  501    0  0.00000000000E+00 -0.00000000000E+00 -0.31085805844E+03  0.31085805844E+03  0.00000000000E+00 0. -1.
         25    2    1    2    0    0  0.56720592626E+00  0.29849064409E+02 -0.16365541183E+03  0.20813879840E+03  0.12508947681E+03 0.  0.
          5    1    3    3  502    0  0.34641905048E+02 -0.38411069254E+02 -0.73268041751E+02  0.89783908183E+02  0.41800000000E+01 0.  1.
         -5    1    3    3    0  502 -0.34074699122E+02  0.68260133663E+02 -0.90387370082E+02  0.11835489022E+03  0.41800000000E+01 0.  1.
        -11    1    1    2    0    0 -0.36812757998E+02 -0.15718503622E+01 -0.15191032429E+02  0.39854953660E+02  0.00000000000E+00 0.  1.
         11    1    1    2    0    0  0.36245552071E+02 -0.28277214047E+02 -0.92015687293E+02  0.10286023326E+03  0.00000000000E+00 0. -1.
</event>
<event>
 7    1  0.2601031E-009  0.1334378E+03  0.7561462E-02  0.1222442E+00
         -2   -1    0    0    0  501 -0.00000000000E+00  0.00000000000E+00  0.24787542124E+02  0.24787542124E+02  0.00000000000E+00 0.  1.
          2   -1    0    0  501    0  0.00000000000E+00 -0.00000000000E+00 -0.95493382760E+03  0.95493382760E+03  0.00000000000E+00 0. -1.
         25    2    1    2    0    0 -0.23260912372E+02 -0.81829359225E+02 -0.71352199084E+03  0.72938200203E+03  0.12508940562E+03 0.  0.
          5    1    3    3  502    0 -0.43503579953E+02  0.12277231666E+02 -0.36411902493E+03  0.36693790837E+03  0.41800000000E+01 0. -1.
         -5    1    3    3    0  502  0.20242667580E+02 -0.94106590892E+02 -0.34940296591E+03  0.36244409366E+03  0.41800000000E+01 0. -1.
        -11    1    1    2    0    0 -0.10387497529E+02  0.89923849416E+02 -0.14815614360E+03  0.17362154730E+03  0.00000000000E+00 0.  1.
         11    1    1    2    0    0  0.33648409901E+02 -0.80944901908E+01 -0.68468151029E+02  0.76717820392E+02  0.00000000000E+00 0. -1.
</event>
<event>
 7    1  0.2601031E-009  0.9254665E+02  0.7561462E-02  0.1296799E+00
          1   -1    0    0  501    0  0.00000000000E+00  0.00000000000E+00  0.41684622665E+03  0.41684622665E+03  0.00000000000E+00 0. -1.
         -1   -1    0    0    0  501 -0.00000000000E+00 -0.00000000000E+00 -0.48558573428E+02  0.48558573428E+02  0.00000000000E+00 0.  1.
         25    2    1    2    0    0 -0.35282889735E+02  0.39091854876E+02  0.31378572281E+03  0.34187964742E+03  0.12508860082E+03 0.  0.
          5    1    3    3  502    0 -0.44837788488E+02  0.65036046428E+01  0.26685418080E+02  0.52747588456E+02  0.41800000000E+01 0.  1.
         -5    1    3    3    0  502  0.95548987533E+01  0.32588250234E+02  0.28710030473E+03  0.28913205896E+03  0.41800000000E+01 0.  1.
        -11    1    1    2    0    0  0.58195990935E+02  0.21086400729E+01  0.10770652738E+02  0.59221842966E+02  0.00000000000E+00 0.  1.
         11    1    1    2    0    0 -0.22913101200E+02 -0.41200494949E+02  0.43731277676E+02  0.64303309696E+02  0.00000000000E+00 0. -1.
</event>
<event>
 7    1  0.2601031E-009  0.7442131E+02  0.7561462E-02  0.1345672E+00
         -4   -1    0    0    0  501 -0.00000000000E+00  0.00000000000E+00  0.90830070647E+02  0.90830070647E+02  0.00000000000E+00 0. -1.
          4   -1    0    0  501    0  0.00000000000E+00 -0.00000000000E+00 -0.15975400338E+03  0.15975400338E+03  0.00000000000E+00 0.  1.
         25    2    1    2    0    0 -0.13343215589E+02 -0.40640520175E+02 -0.40126469193E+01  0.13226188140E+03  0.12508961049E+03 0.  0.
          5    1    3    3  502    0 -0.45685028422E+02 -0.52881813518E+02 -0.41262661187E+02  0.81263076678E+02  0.41800000000E+01 0. -1.
         -5    1    3    3    0  502  0.32341812833E+02  0.12241293343E+02  0.37250014268E+02  0.50998804721E+02  0.41800000000E+01 0. -1.
        -11    1    1    2    0    0  0.94764326817E+01  0.12971492932E+02  0.21880649477E+02  0.27144524803E+02  0.00000000000E+00 0. -1.
         11    1    1    2    0    0  0.38667829076E+01  0.27669027243E+02 -0.86791935293E+02  0.91177667828E+02  0.00000000000E+00 0.  1.
</event>
<event>
 7    1  0.2601031E-009  0.1966099E+03  0.7561462E-02  0.1152631E+00
         -1   -1    0    0    0  501 -0.00000000000E+00  0.00000000000E+00  0.44139761079E+02  0.44139761079E+02  0.00000000000E+00 0.  1.
          1   -1    0    0  501    0  0.00000000000E+00 -0.00000000000E+00 -0.11054121145E+04  0.11054121145E+04  0.00000000000E+00 0. -1.
         25    2    1    2    0    0  0.16823935584E+03  0.81174611419E+02 -0.67052778381E+03  0.70721147852E+03  0.12508704210E+03 0.  0.
          5    1    3    3  502    0  0.16561359901E+03  0.85740238004E+02 -0.45736646119E+03  0.49394413127E+03  0.41800000000E+01 0. -1.
         -5    1    3    3    0  502  0.26257568284E+01 -0.45656265849E+01 -0.21316132261E+03  0.21326734725E+03  0.41800000000E+01 0. -1.
        -11    1    1    2    0    0 -0.44016267638E+02  0.10882654591E+02 -0.14572070219E+03  0.15261188366E+03  0.00000000000E+00 0. -1.
         11    1    1    2    0    0 -0.12422308820E+03 -0.92057266010E+02 -0.24502386741E+03  0.28972851339E+03  0.00000000000E+00 0.  1.
</event>
<event>
 7    1  0.2601031E-009  0.1081841E+03  0.7561462E-02  0.1263970E+00
          1   -1    0    0  501    0  0.00000000000E+00  0.00000000000E+00  0.51915112086E+03  0.51915112086E+03  0.00000000000E+00 0. -1.
         -1   -1    0    0    0  501 -0.00000000000E+00 -0.00000000000E+00 -0.28777893206E+02  0.28777893206E+02  0.00000000000E+00 0.  1.
         25    2    1    2    0    0  0.10084587751E+02  0.42471310614E+02  0.26680223571E+03  0.29788069890E+03  0.12507584364E+03 0.  0.
          5    1    3    3  502    0  0.50920481753E+02 -0.20265596043E+02  0.14231531287E+03  0.15256051429E+03  0.41800000000E+01 0. -1.
         -5    1    3    3    0  502 -0.40835894002E+02  0.62736906657E+02  0.12448692284E+03  0.14532018461E+03  0.41800000000E+01 0. -1.
        -11    1    1    2    0    0  0.31940636424E+02 -0.26396165671E+02  0.29588922801E+02  0.50916266260E+02  0.00000000000E+00 0. -1.
         11    1    1    2    0    0 -0.42025224175E+02 -0.16075144943E+02  0.19398206915E+03  0.19913204891E+03  0.00000000000E+00 0.  1.
</event>
<event>
 7    1  0.2601031E-009  0.7947851E+02  0.7561462E-02  0.1330538E+00
          2   -1    0    0  501    0  0.00000000000E+00  0.00000000000E+00  0.26712110223E+03  0.26712110223E+03  0.00000000000E+00 0.  1.
         -2   -1    0    0    0  501 -0.00000000000E+00 -0.00000000000E+00 -0.15146054306E+03  0.15146054306E+03  0.00000000000E+00 0. -1.
         25    2    1    2    0    0 -0.29845549577E+02 -0.22489047221E+01  0.23373437254E+03  0.26678631909E+03  0.12508944300E+03 0.  0.
          5    1    3    3  502    0  0.28117118686E+02 -0.36688535062E+02  0.38849170140E+02  0.60525625885E+02  0.41800000000E+01 0.  1.
         -5    1    3    3    0  502 -0.57962668263E+02  0.34439630340E+02  0.19488520240E+03  0.20626069321E+03  0.41800000000E+01 0.  1.
        -11    1    1    2    0    0  0.17227815447E+02 -0.15528287507E+02 -0.12636210846E+03  0.12847298468E+03  0.00000000000E+00 0. -1.
         11    1    1    2    0    0  0.12617734130E+02  0.17777192229E+02  0.82882950911E+01  0.23322341513E+02  0.00000000000E+00 0.  1.
</event>
<event>
 7    1  0.2601031E-009  0.1352631E+03  0.7561462E-02  0.1219849E+00
         -2   -1    0    0    0  501 -0.00000000000E+00  0.00000000000E+00  0.46997282452E+02  0.46997282452E+02  0.00000000000E+00 0. -1.
          2   -1    0    0  501    0  0.00000000000E+00 -0.00000000000E+00 -0.56344156594E+03  0.56344156594E+03  0.00000000000E+00 0.  1.
         25    2    1    2    0    0 -0.10762305951E+03  0.18049543066E+02 -0.17855723120E+03  0.24380169590E+03  0.12509225862E+03 0.  0.
          5    1    3    3  502    0 -0.13021053228E+03  0.32477755013E+02 -0.16709161726E+03  0.21435173955E+03  0.41800000000E+01 0.  1.
         -5    1    3    3    0  502  0.22587472772E+02 -0.14428211947E+02 -0.11465613934E+02  0.29449956351E+02  0.41800000000E+01 0.  1.
        -11    1    1    2    0    0  0.58731573295E+02 -0.10552311097E+02 -0.29559752414E+03  0.30156035093E+03  0.00000000000E+00 0.  1.
         11    1    1    2    0    0  0.48891486212E+02 -0.74972319690E+01 -0.42289528146E+02  0.65076801566E+02  0.00000000000E+00 0. -1.
</event>
<event>
 7    1  0.2601031E-009  0.1012668E+03  0.7561462E-02  0.1277654E+00
          2   -1    0    0  501    0  0.00000000000E+00  0.00000000000E+00  0.11405729082E+03  0.11405729082E+03  0.00000000000E+00 0.  1.
         -2   -1    0    0    0  501 -0.00000000000E+00 -0.00000000000E+00 -0.38538147463E+03  0.38538147463E+03  0.00000000000E+00 0. -1.
         25    2    1    2    0    0  0.31150484144E+02  0.14595775922E+02 -0.35077160032E+03  0.37399316683E+03  0.12508710528E+03 0.  0.
          5    1    3    3  502    0  0.76627081996E+02 -0.62024121827E+01 -0.24707373991E+03  0.25879158596E+03  0.41800000000E+01 0. -1.
         -5    1    3    3    0  502 -0.45476597853E+02  0.20798188104E+02 -0.10369786042E+03  0.11520158087E+03  0.41800000000E+01 0. -1.
        -11    1    1    2    0    0  0.21329094043E+02 -0.22382419259E+01 -0.78529306697E+01  0.22838749959E+02  0.00000000000E+00 0. -1.
         11    1    1    2    0    0 -0.52479578186E+02 -0.12357533996E+02  0.87300347178E+02  0.10260684865E+03  0.00000000000E+00 0.  1.
</event>
<event>
 7    1  0.2601031E-009  0.1612380E+03  0.7561462E-02  0.1187306E+00
          2   -1    0    0  501    0  0.00000000000E+00  0.00000000000E+00  0.71726732651E+03  0.71726732651E+03  0.00000000000E+00 0. -1.
         -2   -1    0    0    0  501 -0.00000000000E+00 -0.00000000000E+00 -0.50679143417E+02  0.50679143417E+02  0.00000000000E+00 0.  1.
         25    2    1    2    0    0  0.11890304693E+03  0.25430258415E+02  0.54755845569E+03  0.57467515378E+03  0.12508651953E+03 0.  0.
          5    1    3    3  502    0  0.93074764770E+02  0.73516942962E+02  0.34465566501E+03  0.36451701273E+03  0.41800000000E+01 0. -1.
         -5    1    3    3    0  502  0.25828282162E+02 -0.48086684546E+02  0.20290279067E+03  0.21015814106E+03  0.41800000000E+01 0. -1.
        -11    1    1    2    0    0 -0.13193541636E+03 -0.15865961672E+02  0.91482081559E+02  0.16133088383E+03  0.00000000000E+00 0.  1.
         11    1    1    2    0    0  0.13032369426E+02 -0.95642967434E+01  0.27547645852E+02  0.31940432324E+02  0.00000000000E+00 0. -1.
</event>
<event>
 7    1  0.2601031E-009  0.8583403E+02  0.7561462E-02  0.1313266E+00
         -1   -1    0    0    0  501 -0.00000000000E+00  0.00000000000E+00  0.39718485001E+02  0.39718485001E+02  0.00000000000E+00 0.  1.
          1   -1    0    0  501    0  0.00000000000E+00 -0.00000000000E+00 -0.48094632074E+03  0.48094632074E+03  0.00000000000E+00 0. -1.
         25    2    1    2    0    0  0.18192273718E+02 -0.42557251840E+02 -0.36055876461E+03  0.38443662511E+03  0.12508723947E+03 0.  0.
          5    1    3    3  502    0 -0.95764134280E+01  0.35713275924E+01 -0.31082449252E+03  0.31102057750E+03  0.41800000000E+01 0.  1.
         -5    1    3    3    0  502  0.27768687146E+02 -0.46128579433E+02 -0.49734272087E+02  0.73416047608E+02  0.41800000000E+01 0.  1.
        -11    1    1    2    0    0  0.19954577471E+02  0.61050300177E+02 -0.32241984261E+02  0.71867029039E+02  0.00000000000E+00 0. -1.
         11    1    1    2    0    0 -0.38146851188E+02 -0.18493048337E+02 -0.48427086869E+02  0.64361151598E+02  0.00000000000E+00 0.  1.
</event>
<event>
 7    1  0.2601031E-009  0.1156946E+03  0.7561462E-02  0.1250374E+00
         -2   -1    0    0    0  501 -0.00000000000E+00  0.00000000000E+00  0.45718481585E+02  0.45718481585E+02  0.00000000000E+00 0.  1.
          2   -1    0    0  501    0  0.00000000000E+00 -0.00000000000E+00 -0.48636875655E+03  0.48636875655E+03  0.00000000000E+00 0. -1.
         25    2    1    2    0    0  0.26509192229E+02 -0.34150460407E+02 -0.73883638392E+02  0.15157070879E+03  0.12508355816E+03 0.  0.
          5    1    3    3  502    0  0.57482274391E+02  0.25969443446E+02 -0.46559273689E+02  0.78510268299E+02  0.41800000000E+01 0.  1.
         -5    1    3    3    0  502 -0.30973082161E+02 -0.60119903852E+02 -0.27324364703E+02  0.73060440487E+02  0.41800000000E+01 0.  1.
        -11    1    1    2    0    0  0.33958592718E+02  0.12731691310E+02 -0.15839789994E+03  0.16249669747E+03  0.00000000000E+00 0. -1.
         11    1    1    2    0    0 -0.60467784947E+02  0.21418769096E+02 -0.20836873663E+03  0.21801983188E+03  0.00000000000E+00 0.  1.
</event>
<event>
 7    1  0.2601031E-009  0.1064106E+03  0.7561462E-02  0.1267365E+00
          2   -1    0    0  501    0  0.00000000000E+00  0.00000000000E+00  0.65392665079E+03  0.65392665079E+03  0.00000000000E+00 0.  1.
         -2   -1    0    0    0  501 -0.00000000000E+00 -0.00000000000E+00 -0.19845599210E+02  0.19845599210E+02  0.00000000000E+00 0. -1.
         25    2    1    2    0    0  0.33108765610E+02 -0.34910493414E+01  0.31604092294E+03  0.34152260722E+03  0.12508976171E+03 0.  0.
          5    1    3    3  502    0  0.64337544496E+02  0.30211335952E+02  0.25650016573E+03  0.26619889532E+03  0.41800000000E+01 0. -1.
         -5    1    3    3    0  502 -0.31228778886E+02 -0.33702385294E+02  0.59540757210E+02  0.75323711899E+02  0.41800000000E+01 0. -1.
        -11    1    1    2    0    0 -0.64077872096E+02 -0.16086453746E+01  0.23080019384E+03  0.23953557336E+03  0.00000000000E+00 0.  1.
         11    1    1    2    0    0  0.30969106486E+02  0.50996947160E+01  0.87239934811E+02  0.92714069420E+02  0.00000000000E+00 0. -1.
</event>
<event>
 7    1  0.2601031E-009  0.1420912E+03  0.7561462E-02  0.1210543E+00
         -1   -1    0    0    0  501 -0.00000000000E+00  0.00000000000E+00  0.78079320240E+02  0.78079320240E+02  0.00000000000E+00 0.  1.
          1   -1    0    0  501    0  0.00000000000E+00 -0.00000000000E+00 -0.36148484575E+03  0.36148484575E+03  0.00000000000E+00 0. -1.
         25    2    1    2    0    0 -0.57121818925E+02  0.10991560953E+03 -0.11667464097E+03  0.21119726710E+03  0.12508785060E+03 0.  0.
          5    1    3    3  502    0 -0.81669260388E+00  0.44480362753E+02 -0.11649505218E+03  0.12477074673E+03  0.41800000000E+01 0. -1.
         -5    1    3    3    0  502 -0.56305126321E+02  0.65435246773E+02 -0.17958879310E+00  0.86426520365E+02  0.41800000000E+01 0. -1.
        -11    1    1    2    0    0  0.52652714954E+01 -0.10016945974E+03 -0.87127084209E+02  0.13286373678E+03  0.00000000000E+00 0.  1.
         11    1    1    2    0    0  0.51856547430E+02 -0.97461497874E+01 -0.79603800324E+02  0.95503162110E+02  0.00000000000E+00 0. -1.
</event>
<event>
 7    1  0.2601031E-009  0.8993263E+02  0.7561462E-02  0.1303015E+00
         -3   -1    0    0    0  501 -0.00000000000E+00  0.00000000000E+00  0.46632544390E+02  0.46632544390E+02  0.00000000000E+00 0.  1.
          3   -1    0    0  501    0  0.00000000000E+00 -0.00000000000E+00 -0.30384579372E+03  0.30384579372E+03  0.00000000000E+00 0. -1.
         25    2    1    2    0    0  0.33397450503E+02 -0.28445687000E+02 -0.16546609433E+03  0.21201784844E+03  0.12509193770E+03 0.  0.
          5    1    3    3  502    0 -0.28248007063E+02  0.31960003241E+02 -0.34046620364E+02  0.54736061865E+02  0.41800000000E+01 0. -1.
         -5    1    3    3    0  502  0.61645457566E+02 -0.60405690241E+02 -0.13141947397E+03  0.15728178658E+03  0.41800000000E+01 0. -1.
        -11    1    1    2    0    0 -0.31258519567E+02  0.11176294886E+02 -0.10900786443E+03  0.11395051171E+03  0.00000000000E+00 0. -1.
         11    1    1    2    0    0 -0.21389309360E+01  0.17269392114E+02  0.17260709425E+02  0.24509977956E+02  0.00000000000E+00 0.  1.
</event>
<event>
 7    1  0.2601031E-009  0.1085552E+03  0.7561462E-02  0.1263269E+00
         -1   -1    0    0    0  501 -0.00000000000E+00  0.00000000000E+00  0.25611110739E+03  0.25611110739E+03  0.00000000000E+00 0.  1.
          1   -1    0    0  501    0  0.00000000000E+00 -0.00000000000E+00 -0.10481893367E+03  0.10481893367E+03  0.00000000000E+00 0. -1.
         25    2    1    2    0    0 -0.16028343807E+02  0.76237735926E+02  0.18379928195E+03  0.23557998447E+03  0.12508658142E+03 0.  0.
          5    1    3    3  502    0 -0.11334920524E+02  0.91919272070E+02  0.59550407084E+02  0.11018782322E+03  0.41800000000E+01 0. -1.
         -5    1    3    3    0  502 -0.46934232826E+01 -0.15681536145E+02  0.12424887486E+03  0.12539216125E+03  0.41800000000E+01 0. -1.
        -11    1    1    2    0    0 -0.29697640543E+02 -0.35319705466E+02 -0.43027896129E+02  0.63093829281E+02  0.00000000000E+00 0. -1.
         11    1    1    2    0    0  0.45725984350E+02 -0.40918030460E+02  0.10520787906E+02  0.62256227316E+02  0.00000000000E+00 0.  1.
</event>
<event>
 7    1  0.2601031E-009  0.7889138E+02  0.7561462E-02  0.1332227E+00
          4   -1    0    0  501    0  0.00000000000E+00  0.00000000000E+00  0.69123695599E+02  0.69123695599E+02  0.00000000000E+00 0. -1.
         -4   -1    0    0    0  501 -0.00000000000E+00 -0.00000000000E+00 -0.18365760585E+03  0.18365760585E+03  0.00000000000E+00 0.  1.
         25    2    1    2    0    0  0.16106401660E+02 -0.15159384384E+02 -0.83701998036E+02  0.15212899647E+03  0.12509190214E+03 0.  0.
          5    1    3    3  502    0 -0.29192800737E+02  0.95308426040E+01 -0.94328480904E+02  0.99289431891E+02  0.41800000000E+01 0. -1.
         -5    1    3    3    0  502  0.45299202397E+02 -0.24690226988E+02  0.10626482868E+02  0.52839564577E+02  0.41800000000E+01 0. -1.
        -11    1    1    2    0    0  0.13553787574E+01  0.42536732566E+02 -0.47811426788E+02  0.64008930631E+02  0.00000000000E+00 0. -1.
         11    1    1    2    0    0 -0.17461780418E+02 -0.27377348182E+02  0.16979514571E+02  0.36643374352E+02  0.00000000000E+00 0.  1.
</event>
<event>
 7    1  0.2601031E-009  0.1233218E+03  0.7561462E-02  0.1237716E+00
          1   -1    0    0  501    0  0.00000000000E+00  0.00000000000E+00  0.25328287802E+03  0.25328287802E+03  0.00000000000E+00 0. -1.
         -1   -1    0    0    0  501 -0.00000000000E+00 -0.00000000000E+00 -0.80715382689E+02  0.80715382689E+02  0.00000000000E+00 0.  1.
         25    2    1    2    0    0 -0.31867827410E+02 -0.58961876415E+02  0.17212651962E+03  0.22308607642E+03  0.12509115652E+03 0.  0.
          5    1    3    3  502    0  0.47479904118E+01  0.34620826668E+02  0.76940135754E+02  0.84607339765E+02  0.41800000000E+01 0. -1.
         -5    1    3    3    0  502 -0.36615817822E+02 -0.93582703083E+02  0.95186383868E+02  0.13847873665E+03  0.41800000000E+01 0. -1.
        -11    1    1    2    0    0  0.62584183946E+02  0.33571763202E+02  0.17055191656E+01  0.71040496622E+02  0.00000000000E+00 0.  1.
         11    1    1    2    0    0 -0.30716356536E+02  0.25390113213E+02 -0.12645434526E+01  0.39871687674E+02  0.00000000000E+00 0. -1.
</event>
<event>
 7    1  0.2601031E-009  0.9889154E+02  0.7561462E-02  0.1282644E+00
          1   -1    0    0  501    0  0.00000000000E+00  0.00000000000E+00  0.30427474777E+03  0.30427474777E+03  0.00000000000E+00 0. -1.
         -1   -1    0    0    0  501 -0.00000000000E+00 -0.00000000000E+00 -0.59636739076E+02  0.59636739076E+02  0.00000000000E+00 0.  1.
         25    2    1    2    0    0 -0.16352257034E+02 -0.37437647631E+02  0.22676917823E+03  0.26219049042E+03  0.12510243525E+03 0.  0.
          5    1    3    3  502    0  0.48037643436E+02 -0.34654863512E+02  0.65183859424E+02  0.88175862237E+02  0.41800000000E+01 0.  1.
         -5    1    3    3    0  502 -0.64389900470E+02 -0.27827841195E+01  0.16158531880E+03  0.17401462818E+03  0.41800000000E+01 0.  1.
        -11    1    1    2    0    0  0.39369988129E+02  0.16453252335E+02 -0.24447718920E+02  0.49177194288E+02  0.00000000000E+00 0.  1.
         11    1    1    2    0    0 -0.23017731095E+02  0.20984395297E+02  0.42316549388E+02  0.52543802135E+02  0.00000000000E+00 0. -1.
</event>
<event>
 7    1  0.2601031E-009  0.1125605E+03  0.7561462E-02  0.1255900E+00
         -1   -1    0    0    0  501 -0.00000000000E+00  0.00000000000E+00  0.69474967102E+02  0.69474967102E+02  0.00000000000E+00 0.  1.
          1   -1    0    0  501    0  0.00000000000E+00 -0.00000000000E+00 -0.26118309726E+03  0.26118309726E+03  0.00000000000E+00 0. -1.
         25    2    1    2    0    0  0.48299242641E+02 -0.43858554149E+02 -0.16166721293E+03  0.21457414016E+03  0.12509749909E+03 0.  0.
          5    1    3    3  502    0 -0.25991259940E+02 -0.27617121204E+02 -0.26334767576E+01  0.38244719593E+02  0.41800000000E+01 0.  1.
         -5    1    3    3    0  502  0.74290502581E+02 -0.16241432944E+02 -0.15903373617E+03  0.17632942057E+03  0.41800000000E+01 0.  1.
        -11    1    1    2    0    0 -0.74294382447E+02  0.40441839520E+02 -0.15158699285E+02  0.85935928522E+02  0.00000000000E+00 0.  1.
         11    1    1    2    0    0  0.25995139805E+02  0.34167146286E+01 -0.14882217940E+02  0.30147995674E+02  0.00000000000E+00 0. -1.
</event>
<event>
 7    1  0.2601031E-009  0.1175482E+03  0.7561462E-02  0.1247197E+00
         -2   -1    0    0    0  501 -0.00000000000E+00  0.00000000000E+00  0.10819085034E+02  0.10819085034E+02  0.00000000000E+00 0.  1.
          2   -1    0    0  501    0  0.00000000000E+00 -0.00000000000E+00 -0.16261889105E+04  0.16261889105E+04  0.00000000000E+00 0. -1.
         25    2    1    2    0    0 -0.44877716561E+02  0.61684951174E+02 -0.10113264024E+04  0.10218840912E+04  0.12508781298E+03 0.  0.
          5    1    3    3  502    0 -0.10150559085E+02  0.79323813406E+02 -0.90559962974E+03  0.90913335821E+03  0.41800000000E+01 0. -1.
         -5    1    3    3    0  502 -0.34727157476E+02 -0.17638862232E+02 -0.10572677270E+03  0.11275073300E+03  0.41800000000E+01 0. -1.
        -11    1    1    2    0    0  0.60350918801E+02 -0.91055120251E+01 -0.34312684045E+03  0.34851280089E+03  0.00000000000E+00 0. -1.
         11    1    1    2    0    0 -0.15473202240E+02 -0.52579439149E+02 -0.26091658259E+03  0.26661110344E+03  0.00000000000E+00 0.  1.
</event>
<event>
 7    1  0.2601031E-009  0.9201865E+02  0.7561462E-02  0.1298036E+00
          2   -1    0    0  501    0  0.00000000000E+00  0.00000000000E+00  0.13657243960E+04  0.13657243960E+04  0.00000000000E+00 0. -1.
         -2   -1    0    0    0  501 -0.00000000000E+00 -0.00000000000E+00 -0.23978597878E+02  0.23978597878E+02  0.00000000000E+00 0.  1.
         25    2    1    2    0    0 -0.53006452873E+01 -0.36525650901E+02  0.12401923735E+04  0.12470309341E+04  0.12508719861E+03 0.  0.
          5    1    3    3  502    0  0.36856617835E+02 -0.43617247350E+02  0.10689951266E+04  0.10705274063E+04  0.41800000000E+01 0.  1.
         -5    1    3    3    0  502 -0.42157263122E+02  0.70915964485E+01  0.17119724697E+03  0.17650352785E+03  0.41800000000E+01 0.  1.
        -11    1    1    2    0    0  0.32593057686E+02 -0.61521837955E+01  0.48743811004E+01  0.33524861908E+02  0.00000000000E+00 0.  1.
         11    1    1    2    0    0 -0.27292412399E+02  0.42677834697E+02  0.96679043446E+02  0.10914719781E+03  0.00000000000E+00 0. -1.
</event>
<event>
 7    1  0.2601031E-009  0.1321715E+03  0.7561462E-02  0.1224269E+00
          2   -1    0    0  501    0  0.00000000000E+00  0.00000000000E+00  0.12587089585E+04  0.12587089585E+04  0.00000000000E+00 0. -1.
         -2   -1    0    0    0  501 -0.00000000000E+00 -0.00000000000E+00 -0.14310742703E+02  0.14310742703E+02  0.00000000000E+00 0.  1.
         25    2    1    2    0    0  0.65407141517E+02 -0.36690862031E+02  0.58123221920E+03  0.59925204195E+03  0.12509118122E+03 0.  0.
          5    1    3    3  502    0  0.84634738052E+02  0.18479021203E+02  0.32108245866E+03  0.33258973341E+03  0.41800000000E+01 0.  1.
         -5    1    3    3    0  502 -0.19227596535E+02 -0.55169883234E+02  0.26014976054E+03  0.26666230854E+03  0.41800000000E+01 0.  1.
        -11    1    1    2    0    0  0.20638433554E+02 -0.79338555235E+01  0.11925447926E+03  0.12128694005E+03  0.00000000000E+00 0.  1.
         11    1    1    2    0    0 -0.86045575071E+02  0.44624717554E+02  0.54391151731E+03  0.55248071919E+03  0.00000000000E+00 0. -1.
</event>
<event>
 7    1  0.2601031E-009  0.1307634E+03  0.7561462E-02  0.1226327E+00
          1   -1    0    0  501    0  0.00000000000E+00  0.00000000000E+00  0.10513929187E+03  0.10513929187E+03  0.00000000000E+00 0. -1.
         -1   -1    0    0    0  501 -0.00000000000E+00 -0.00000000000E+00 -0.20076213112E+03  0.20076213112E+03  0.00000000000E+00 0.  1.
         25    2    1    2    0    0  0.91585654447E+02  0.16152374576E+02 -0.76955914334E+02  0.17384176792E+03  0.12509962517E+03 0.  0.
          5    1    3    3  502    0  0.10398500261E+03  0.42518566279E+02 -0.26615191272E+02  0.11552726974E+03  0.41800000000E+01 0.  1.
         -5    1    3    3    0  502 -0.12399348163E+02 -0.26366191703E+02 -0.50340723062E+02  0.58314498182E+02  0.41800000000E+01 0.  1.
        -11    1    1    2    0    0  0.53618802966E+01  0.16519383470E+02 -0.23989533986E+02  0.29616507751E+02  0.00000000000E+00 0.  1.
         11    1    1    2    0    0 -0.96947534743E+02 -0.32671758046E+02  0.53226090749E+01  0.10244314733E+03  0.00000000000E+00 0. -1.
</event>
<event>
 7    1  0.2601031E-009  0.1314499E+03  0.7561462E-02  0.1225320E+00
          2   -1    0    0  501    0  0.00000000000E+00  0.00000000000E+00  0.96981101424E+02  0.96981101424E+02  0.00000000000E+00 0. -1.
         -2   -1    0    0    0  501 -0.00000000000E+00 -0.00000000000E+00 -0.24521581538E+03  0.24521581538E+03  0.00000000000E+00 0.  1.
         25    2    1    2    0    0 -0.12049174376E+01  0.10076553833E+03 -0.32650349123E+02  0.16391759443E+03  0.12509111449E+03 0.  0.
          5    1    3    3  502    0 -0.24111873703E+02  0.10595059026E+03  0.15829682636E+02  0.10988612870E+03  0.41800000000E+01 0.  1.
         -5    1    3    3    0  502  0.22906956265E+02 -0.51850519297E+01 -0.48480031759E+02  0.54031465723E+02  0.41800000000E+01 0.  1.
        -11    1    1    2    0    0  0.38421984886E+02 -0.77258384937E+02 -0.98787313471E+02  0.13116417296E+03  0.00000000000E+00 0. -1.
         11    1    1    2    0    0 -0.37217067449E+02 -0.23507153390E+02 -0.16797051361E+02  0.47115149415E+02  0.00000000000E+00 0.  1.
</event>
<event>
 7    1  0.2601031E-009  0.1301941E+03  0.7561462E-02  0.1227168E+00
          1   -1    0    0  501    0  0.00000000000E+00  0.00000000000E+00  0.10083786264E+04  0.10083786264E+04  0.00000000000E+00 0. -1.
         -1   -1    0    0    0  501 -0.00000000000E+00 -0.00000000000E+00 -0.22009540232E+02  0.22009540232E+02  0.00000000000E+00 0.  1.
         25    2    1    2    0    0 -0.98913098912E+02 -0.14852855800E+02  0.50611177162E+03  0.53084912516E+03  0.12508900770E+03 0.  0.
          5    1    3    3  502    0 -0.10293511707E+03  0.35883960093E+02  0.34312103054E+03  0.36004556784E+03  0.41800000000E+01 0.  1.
         -5    1    3    3    0  502  0.40220181578E+01 -0.50736815893E+02  0.16299074107E+03  0.17080355732E+03  0.41800000000E+01 0.  1.
        -11    1    1    2    0    0  0.86438665652E+02  0.15129023977E+02  0.47903003500E+03  0.48700133954E+03  0.00000000000E+00 0. -1.
         11    1    1    2    0    0  0.12474433260E+02 -0.27616817639E+00  0.12272795247E+01  0.12537701905E+02  0.00000000000E+00 0.  1.
</event>
<event>
 7    1  0.2601031E-009  0.7405377E+02  0.7561462E-02  0.1346826E+00
         -2   -1    0    0    0  501 -0.00000000000E+00  0.00000000000E+00  0.66006437842E+02  0.66006437842E+02  0.00000000000E+00 0.  1.
          2   -1    0    0  501    0  0.00000000000E+00 -0.00000000000E+00 -0.23906457356E+03  0.23906457356E+03  0.00000000000E+00 0. -1.
         25    2    1    2    0    0  0.15897985256E+02 -0.11006501510E+02 -0.16886805770E+03  0.21103806186E+03  0.12508698426E+03 0.  0.
          5    1    3    3  502    0  0.43461932701E+02  0.17391863039E+02 -0.16440712095E+03  0.17099295399E+03  0.41800000000E+01 0.  1.
         -5    1    3    3    0  502 -0.27563947446E+02 -0.28398364548E+02 -0.44609367515E+01  0.40045107872E+02  0.41800000000E+01 0.  1.
        -11    1    1    2    0    0 -0.14241755637E+02 -0.23115562311E+02  0.33528752685E+02  0.43143181167E+02  0.00000000000E+00 0.  1.
         11    1    1    2    0    0 -0.16562296186E+01  0.34122063821E+02 -0.37718830704E+02  0.50889768379E+02  0.00000000000E+00 0. -1.
</event>
<event>
 7    1  0.2601031E-009  0.3057187E+03  0.7561462E-02  0.1082416E+00
         -2   -1    0    0    0  501 -0.00000000000E+00  0.00000000000E+00  0.73684991002E+02  0.73684991002E+02  0.00000000000E+00 0.  1.
          2   -1    0    0  501    0  0.00000000000E+00 -0.00000000000E+00 -0.14634778074E+04  0.14634778074E+04  0.00000000000E+00 0. -1.
         25    2    1    2    0    0  0.28041374660E+03 -0.95300608689E+02 -0.91877527977E+03  0.97339978578E+03  0.12508018611E+03 0.  0.
          5    1    3    3  502    0  0.12215687395E+03 -0.98305535294E+02 -0.55317554100E+03  0.57498428821E+03  0.41800000000E+01 0.  1.
         -5    1    3    3    0  502  0.15825687265E+03  0.30049266051E+01 -0.36559973877E+03  0.39841549758E+03  0.41800000000E+01 0.  1.
        -11    1    1    2    0    0 -0.22060268235E+03  0.72065191574E+02 -0.42686798438E+03  0.48587571598E+03  0.00000000000E+00 0. -1.
         11    1    1    2    0    0 -0.59811064244E+02  0.23235417114E+02 -0.44149552283E+02  0.77887296662E+02  0.00000000000E+00 0.  1.
</event>
<event>
 7    1  0.2601031E-009  0.8583642E+02  0.7561462E-02  0.1313260E+00
          1   -1    0    0  501    0  0.00000000000E+00  0.00000000000E+00  0.18787466186E+03  0.18787466186E+03  0.00000000000E+00 0. -1.
         -1   -1    0    0    0  501 -0.00000000000E+00 -0.00000000000E+00 -0.84025160249E+02  0.84025160249E+02  0.00000000000E+00 0.  1.
         25    2    1    2    0    0  0.25850377269E+02  0.48100828915E+02  0.90914742946E+02  0.16400131243E+03  0.12509599613E+03 0.  0.
          5    1    3    3  502    0  0.65467486795E+02  0.37480439668E+02  0.14151180966E+02  0.76866790668E+02  0.41800000000E+01 0.  1.
         -5    1    3    3    0  502 -0.39617109526E+02  0.10620389247E+02  0.76763561980E+02  0.87134521763E+02  0.41800000000E+01 0.  1.
        -11    1    1    2    0    0 -0.16437588162E+02 -0.35878664193E+02  0.52357392241E+02  0.65565001115E+02  0.00000000000E+00 0. -1.
         11    1    1    2    0    0 -0.94127891070E+01 -0.12222164722E+02 -0.39422633576E+02  0.42333508563E+02  0.00000000000E+00 0.  1.
</event>
<event>
 7    1  0.2601031E-009  0.8321846E+02  0.7561462E-02  0.1320158E+00
          2   -1    0    0  501    0  0.00000000000E+00  0.00000000000E+00  0.31498649879E+03  0.31498649879E+03  0.00000000000E+00 0. -1.
         -2   -1    0    0    0  501 -0.00000000000E+00 -0.00000000000E+00 -0.38366969306E+02  0.38366969306E+02  0.00000000000E+00 0.  1.
         25    2    1    2    0    0  0.12636610556E+02 -0.14212506600E+02  0.17613959499E+03  0.21687119940E+03  0.12508509479E+03 0.  0.
          5    1    3    3  502    0  0.11466986432E+02  0.48114693022E+02  0.30158516753E+02  0.58082045377E+02  0.41800000000E+01 0. -1.
         -5    1    3    3    0  502  0.11696241240E+01 -0.62327199622E+02  0.14598107823E+03  0.15878915403E+03  0.41800000000E+01 0. -1.
        -11    1    1    2    0    0 -0.30779916540E+02  0.18180273681E+02  0.15048072382E+01  0.35779743685E+02  0.00000000000E+00 0.  1.
         11    1    1    2    0    0  0.18143305984E+02 -0.39677670805E+01  0.98975127256E+02  0.10070252501E+03  0.00000000000E+00 0. -1.
</event>
<event>
 7    1  0.2601031E-009  0.1149394E+03  0.7561462E-02  0.1251687E+00
         -1   -1    0    0    0  501 -0.00000000000E+00  0.00000000000E+00  0.13324562276E+03  0.13324562276E+03  0.00000000000E+00 0.  1.
          1   -1    0    0  501    0  0.00000000000E+00 -0.00000000000E+00 -0.13665680965E+03  0.13665680965E+03  0.00000000000E+00 0. -1.
         25    2    1    2    0    0 -0.41308439846E+02 -0.62907083725E+02 -0.14476696580E+02  0.14670256354E+03  0.12509348113E+03 0.  0.
          5    1    3    3  502    0 -0.43349682465E+02  0.19729194889E+02 -0.37533641987E+02  0.60783902323E+02  0.41800000000E+01 0. -1.
         -5    1    3    3    0  502  0.20412426194E+01 -0.82636278614E+02  0.23056945407E+02  0.85918661222E+02  0.41800000000E+01 0. -1.
        -11    1    1    2    0    0 -0.16945496657E+02  0.23488540430E+02  0.38088850661E+02  0.47849994077E+02  0.00000000000E+00 0.  1.
         11    1    1    2    0    0  0.58253936503E+02  0.39418543295E+02 -0.27023340967E+02  0.75349874788E+02  0.00000000000E+00 0. -1.
</event>
<event>
 7    1  0.2601031E-009  0.1233973E+03  0.7561462E-02  0.1237595E+00
          2   -1    0    0  501    0  0.00000000000E+00  0.00000000000E+00  0.87815594714E+03  0.87815594714E+03  0.00000000000E+00 0. -1.
         -2   -1    0    0    0  501 -0.00000000000E+00 -0.00000000000E+00 -0.27794692906E+02  0.27794692906E+02  0.00000000000E+00 0.  1.
         25    2    1    2    0    0 -0.81270533680E+02 -0.69578014697E+02  0.54058041676E+03  0.56508477404E+03  0.12509042766E+03 0.  0.
          5    1    3    3  502    0 -0.41446662601E+02 -0.53990459978E+02  0.50417708509E+03  0.50876792463E+03  0.41800000000E+01 0. -1.
         -5    1    3    3    0  502 -0.39823871079E+02 -0.15587554719E+02  0.36403331670E+02  0.56316849402E+02  0.41800000000E+01 0. -1.
        -11    1    1    2    0    0  0.24674543546E+02 -0.18568330389E+02  0.12195962549E+03  0.12580845060E+03  0.00000000000E+00 0. -1.
         11    1    1    2    0    0  0.56595990134E+02  0.88146345086E+02  0.18782121199E+03  0.21505741541E+03  0.00000000000E+00 0.  1.
</event>
<event>
 7    1  0.2601031E-009  0.1740496E+03  0.7561462E-02  0.1173689E+00
          1   -1    0    0  501    0  0.00000000000E+00  0.00000000000E+00  0.25318080436E+03  0.25318080436E+03  0.00000000000E+00 0. -1.
         -1   -1    0    0    0  501 -0.00000000000E+00 -0.00000000000E+00 -0.14364711800E+03  0.14364711800E+03  0.00000000000E+00 0.  1.
         25    2    1    2    0    0 -0.25373674605E+02  0.14639945659E+03  0.10865707575E+03  0.22255494734E+03  0.12509084787E+03 0.  0.
          5    1    3    3  502    0 -0.29043944857E+02  0.16653836442E+03  0.10981174425E+03  0.20163003033E+03  0.41800000000E+01 0.  1.
         -5    1    3    3    0  502  0.36702702524E+01 -0.20138907827E+02 -0.11546685064E+01  0.20924917002E+02  0.41800000000E+01 0.  1.
        -11    1    1    2    0    0  0.19833859843E+02 -0.11176466961E+02 -0.27799365443E+02  0.35931881791E+02  0.00000000000E+00 0.  1.
         11    1    1    2    0    0  0.55398147616E+01 -0.13522298963E+03  0.28675976062E+02  0.13834109323E+03  0.00000000000E+00 0. -1.
</event>
<event>
 7    1  0.2601031E-009  0.8998362E+02  0.7561462E-02  0.1302891E+00
          1   -1    0    0  501    0  0.00000000000E+00  0.00000000000E+00  0.35712098850E+02  0.35712098850E+02  0.00000000000E+00 0. -1.
         -1   -1    0    0    0  501 -0.00000000000E+00 -0.00000000000E+00 -0.35464255957E+03  0.35464255957E+03  0.00000000000E+00 0.  1.
         25    2    1    2    0    0 -0.26064974438E+02 -0.82605590750E+01 -0.21617216025E+03  0.25124773218E+03  0.12508956923E+03 0.  0.
          5    1    3    3  502    0  0.41390393335E+02  0.24260802505E+02 -0.11988621911E+03  0.12919724893E+03  0.41800000000E+01 0. -1.
         -5    1    3    3    0  502 -0.67455367773E+02 -0.32521361580E+02 -0.96285941131E+02  0.12205048324E+03  0.41800000000E+01 0. -1.
        -11    1    1    2    0    0  0.36930640328E+02  0.18998028956E+02 -0.11321685898E+03  0.12059375795E+03  0.00000000000E+00 0.  1.
         11    1    1    2    0    0 -0.10865665890E+02 -0.10737469881E+02  0.10458558497E+02  0.18513168301E+02  0.00000000000E+00 0. -1.
</event>
<event>
 7    1  0.2601031E-009  0.1379348E+03  0.7561462E-02  0.1216135E+00
         -2   -1    0    0    0  501 -0.00000000000E+00  0.00000000000E+00  0.57363640655E+02  0.57363640655E+02  0.00000000000E+00 0.  1.
          2   -1    0    0  501    0  0.00000000000E+00 -0.00000000000E+00 -0.43303459160E+03  0.43303459160E+03  0.00000000000E+00 0. -1.
         25    2    1    2    0    0  0.34557717863E+02  0.10826401880E+03 -0.21015515419E+03  0.26968049219E+03  0.12508815054E+03 0.  0.
          5    1    3    3  502    0  0.44627931808E+01 -0.17703333923E+02 -0.93399942990E+02  0.95259363348E+02  0.41800000000E+01 0.  1.
         -5    1    3    3    0  502  0.30094924682E+02  0.12596735273E+03 -0.11675521120E+03  0.17442112884E+03  0.41800000000E+01 0.  1.
        -11    1    1    2    0    0 -0.46741648513E+02 -0.51692262459E+02 -0.35082399542E+02  0.78023371252E+02  0.00000000000E+00 0. -1.
         11    1    1    2    0    0  0.12183930650E+02 -0.56571756345E+02 -0.13043339722E+03  0.14269436882E+03  0.00000000000E+00 0.  1.
</event>
<event>
 7    1  0.2601031E-009  0.1005704E+03  0.7561462E-02  0.1279101E+00
         -3   -1    0    0    0  501 -0.00000000000E+00  0.00000000000E+00  0.50982255396E+02  0.50982255396E+02  0.00000000000E+00 0.  1.
          3   -1    0    0  501    0  0.00000000000E+00 -0.00000000000E+00 -0.23882523940E+03  0.23882523940E+03  0.00000000000E+00 0. -1.
         25    2    1    2    0    0 -0.23183478523E+01 -0.20007271506E+02 -0.11350540184E+03  0.17010728801E+03  0.12508935822E+03 0.  0.
          5    1    3    3  502    0  0.42471808843E+02  0.25134080257E+02 -0.13179746556E+02  0.51251874659E+02  0.41800000000E+01 0.  1.
         -5    1    3    3    0  502 -0.44790156696E+02 -0.45141351764E+02 -0.10032565528E+03  0.11885541335E+03  0.41800000000E+01 0.  1.
        -11    1    1    2    0    0  0.35461880333E+02 -0.16035205780E+02 -0.12610814416E+02  0.40910945007E+02  0.00000000000E+00 0.  1.
         11    1    1    2    0    0 -0.33143532481E+02  0.36042477286E+02 -0.61726767751E+02  0.78789261776E+02  0.00000000000E+00 0. -1.
</event>
<event>
 7    1  0.2601031E-009  0.3096530E+03  0.7561462E-02  0.1080512E+00
          2   -1    0    0  501    0  0.00000000000E+00  0.00000000000E+00  0.18560856887E+04  0.18560856887E+04  0.00000000000E+00 0. -1.
         -2   -1    0    0    0  501 -0.00000000000E+00 -0.00000000000E+00 -0.87561097633E+02  0.87561097633E+02  0.00000000000E+00 0.  1.
         25    2    1    2    0    0 -0.15359340794E+03 -0.25839002091E+03  0.14883851258E+04  0.15235794610E+04  0.12509098014E+03 0.  0.
          5    1    3    3  502    0 -0.84714100058E+01 -0.10654643436E+03  0.67905179712E+03  0.68742470354E+03  0.41800000000E+01 0. -1.
         -5    1    3    3    0  502 -0.14512199793E+03 -0.15184358655E+03  0.80933332868E+03  0.83615475743E+03  0.41800000000E+01 0. -1.
        -11    1    1    2    0    0  0.27669373434E+02  0.73730481292E+02  0.12591561293E+03  0.14851437532E+03  0.00000000000E+00 0. -1.
         11    1    1    2    0    0  0.12592403451E+03  0.18465953962E+03  0.15422385230E+03  0.27155295000E+03  0.00000000000E+00 0.  1.
</event>
<event>
 7    1  0.2601031E-009  0.1065974E+03  0.7561462E-02  0.1267004E+00
          1   -1    0    0  501    0  0.00000000000E+00  0.00000000000E+00  0.29744862706E+03  0.29744862706E+03  0.00000000000E+00 0. -1.
         -1   -1    0    0    0  501 -0.00000000000E+00 -0.00000000000E+00 -0.75507666012E+02  0.75507666012E+02  0.00000000000E+00 0.  1.
         25    2    1    2    0    0  0.41849740489E+02 -0.49873100479E+02  0.19118434332E+02  0.14230865666E+03  0.12509001678E+03 0.  0.
          5    1    3    3  502    0 -0.30720625510E+01 -0.75685841989E+02  0.40625860016E+02  0.86056476502E+02  0.41800000000E+01 0.  1.
         -5    1    3    3    0  502  0.44921803040E+02  0.25812741510E+02 -0.21507425684E+02  0.56252180155E+02  0.41800000000E+01 0.  1.
        -11    1    1    2    0    0 -0.23120096501E+02 -0.80466701807E+01  0.68237936044E+01  0.25413616869E+02  0.00000000000E+00 0.  1.
         11    1    1    2    0    0 -0.18729643987E+02  0.57919770660E+02  0.19599873311E+03  0.20523401954E+03  0.00000000000E+00 0. -1.
</event>
<event>
 7    1  0.2601031E-009  0.8499724E+02  0.7561462E-02  0.1315440E+00
         -2   -1    0    0    0  501 -0.00000000000E+00  0.00000000000E+00  0.24763421465E+03  0.24763421465E+03  0.00000000000E+00 0.  1.
          2   -1    0    0  501    0  0.00000000000E+00 -0.00000000000E+00 -0.66723259165E+02  0.66723259165E+02  0.00000000000E+00 0. -1.
         25    2    1    2    0    0  0.59925621018E+02 -0.34718491599E+02  0.87437867738E+02  0.16760760370E+03  0.12510185607E+03 0.  0.
          5    1    3    3  502    0  0.35714273720E+02 -0.26514682767E+02  0.11880495879E+03  0.12692765019E+03  0.41800000000E+01 0.  1.
         -5    1    3    3    0  502  0.24211347298E+02 -0.82038088317E+01 -0.31367091048E+02  0.40679953517E+02  0.41800000000E+01 0.  1.
        -11    1    1    2    0    0  0.16336845941E+02  0.21069042393E+01 -0.57308106302E+01  0.17440578295E+02  0.00000000000E+00 0. -1.
         11    1    1    2    0    0 -0.76262466959E+02  0.32611587360E+02  0.99203898376E+02  0.12930929182E+03  0.00000000000E+00 0.  1.
</event>
<event>
 7    1  0.2601031E-009  0.1126451E+03  0.7561462E-02  0.1255748E+00
          1   -1    0    0  501    0  0.00000000000E+00  0.00000000000E+00  0.60857367903E+03  0.60857367903E+03  0.00000000000E+00 0. -1.
         -1   -1    0    0    0  501 -0.00000000000E+00 -0.00000000000E+00 -0.28945986662E+02  0.28945986662E+02  0.00000000000E+00 0.  1.
         25    2    1    2    0    0 -0.35303605265E+02  0.15125854014E+02  0.15965044300E+03  0.20642471390E+03  0.12509101707E+03 0.  0.
          5    1    3    3  502    0  0.94842678852E+01  0.62986711940E+02  0.63983355749E+02  0.90380415087E+02  0.41800000000E+01 0. -1.
         -5    1    3    3    0  502 -0.44787873151E+02 -0.47860857926E+02  0.95667087253E+02  0.11604429881E+03  0.41800000000E+01 0. -1.
        -11    1    1    2    0    0 -0.91600103997E+01 -0.42556145079E+02  0.22899777657E+03  0.23309850482E+03  0.00000000000E+00 0.  1.
         11    1    1    2    0    0  0.44463615665E+02  0.27430291065E+02  0.19097947279E+03  0.19799644697E+03  0.00000000000E+00 0. -1.
</event>
<event>
 7    1  0.2601031E-009  0.1468584E+03  0.7561462E-02  0.1204387E+00
          1   -1    0    0  501    0  0.00000000000E+00  0.00000000000E+00  0.86568876267E+03  0.86568876267E+03  0.00000000000E+00 0. -1.
         -1   -1    0    0    0  501 -0.00000000000E+00 -0.00000000000E+00 -0.32985014652E+02  0.32985014652E+02  0.00000000000E+00 0.  1.
         25    2    1    2    0    0 -0.12771548065E+03 -0.37645516915E+01  0.49603017707E+03  0.52727437342E+03  0.12508761912E+03 0.  0.
          5    1    3    3  502    0 -0.29142832528E+02  0.42827099810E+02  0.28506942715E+03  0.28976803802E+03  0.41800000000E+01 0.  1.
         -5    1    3    3    0  502 -0.98572648118E+02 -0.46591651501E+02  0.21096074993E+03  0.23750633540E+03  0.41800000000E+01 0.  1.
        -11    1    1    2    0    0  0.10827609644E+03  0.16314798396E+02  0.32943329436E+03  0.34715440533E+03  0.00000000000E+00 0. -1.
         11    1    1    2    0    0  0.19439384204E+02 -0.12550246704E+02  0.72402765865E+01  0.24244998569E+02  0.00000000000E+00 0.  1.
</event>
<event>
 7    1  0.2601031E-009  0.1089134E+03  0.7561462E-02  0.1262595E+00
         -1   -1    0    0    0  501 -0.00000000000E+00  0.00000000000E+00  0.57165695105E+02  0.57165695105E+02  0.00000000000E+00 0.  1.
          1   -1    0    0  501    0  0.00000000000E+00 -0.00000000000E+00 -0.27944601147E+03  0.27944601147E+03  0.00000000000E+00 0. -1.
         25    2    1    2    0    0 -0.19199876998E+02 -0.59339116147E+02 -0.92047324771E+02  0.16736055861E+03  0.12508829121E+03 0.  0.
          5    1    3    3  502    0 -0.26053892461E+02  0.18484254127E+02  0.14371822931E+02  0.35277395842E+02  0.41800000000E+01 0. -1.
         -5    1    3    3    0  502  0.68540154631E+01 -0.77823370275E+02 -0.10641914770E+03  0.13208316277E+03  0.41800000000E+01 0. -1.
        -11    1    1    2    0    0 -0.10268042575E+02 -0.20140366969E+02 -0.35931625056E+02  0.42451722687E+02  0.00000000000E+00 0. -1.
         11    1    1    2    0    0  0.29467919572E+02  0.79479483116E+02 -0.94301366540E+02  0.12679942528E+03  0.00000000000E+00 0.  1.
</event>
<event>
 7    1  0.2601031E-009  0.1295640E+03  0.7561462E-02  0.1228104E+00
         -1   -1    0    0    0  501 -0.00000000000E+00  0.00000000000E+00  0.71945840532E+03  0.71945840532E+03  0.00000000000E+00 0.  1.
          1   -1    0    0  501    0  0.00000000000E+00 -0.00000000000E+00 -0.32225029265E+02  0.32225029265E+02  0.00000000000E+00 0. -1.
         25    2    1    2    0    0  0.76965069493E+02  0.68656230380E+00  0.54340522210E+03  0.56290147262E+03  0.12507893179E+03 0.  0.
          5    1    3    3  502    0  0.83218316859E+02  0.46351149905E+02  0.28904336874E+03  0.30436369489E+03  0.41800000000E+01 0.  1.
         -5    1    3    3    0  502 -0.62532473664E+01 -0.45664587602E+02  0.25436185337E+03  0.25853777773E+03  0.41800000000E+01 0.  1.
        -11    1    1    2    0    0 -0.42204402440E+02  0.43945079583E+02  0.10048953184E+03  0.11751820121E+03  0.00000000000E+00 0.  1.
         11    1    1    2    0    0 -0.34760667053E+02 -0.44631641886E+02  0.43338622112E+02  0.71263760762E+02  0.00000000000E+00 0. -1.
</event>
<event>
 7    1  0.2601031E-009  0.1310545E+03  0.7561462E-02  0.1225899E+00
         -3   -1    0    0    0  501 -0.00000000000E+00  0.00000000000E+00  0.42587236283E+03  0.42587236283E+03  0.00000000000E+00 0.  1.
          3   -1    0    0  501    0  0.00000000000E+00 -0.00000000000E+00 -0.49391682848E+02  0.49391682848E+02  0.00000000000E+00 0. -1.
         25    2    1    2    0    0 -0.10029960867E+02 -0.80919612413E+02  0.12284348475E+03  0.19335558771E+03  0.12508907932E+03 0.  0.
          5    1    3    3  502    0  0.48268920941E+02 -0.70190797039E+02  0.48269190145E+02  0.98000121607E+02  0.41800000000E+01 0.  1.
         -5    1    3    3    0  502 -0.58298881807E+02 -0.10728815374E+02  0.74574294606E+02  0.95355466100E+02  0.41800000000E+01 0.  1.
        -11    1    1    2    0    0  0.45113560313E+01  0.98687349334E+02  0.23769585085E+03  0.25740796950E+03  0.00000000000E+00 0.  1.
         11    1    1    2    0    0  0.55186048353E+01 -0.17767736921E+02  0.15941344389E+02  0.24500488476E+02  0.00000000000E+00 0. -1.
</event>
<event>
 7    1  0.2601031E-009  0.9523772E+02  0.7561462E-02  0.1290642E+00
          2   -1    0    0  501    0  0.00000000000E+00  0.00000000000E+00  0.60820739780E+03  0.60820739780E+03  0.00000000000E+00 0. -1.
         -2   -1    0    0    0  501 -0.00000000000E+00 -0.00000000000E+00 -0.28337135219E+02  0.28337135219E+02  0.00000000000E+00 0.  1.
         25    2    1    2    0    0 -0.11260446420E+02 -0.74340288733E+02  0.34915237709E+03  0.37842795415E+03  0.12508820037E+03 0.  0.
          5    1    3    3  502    0  0.52891551362E+01 -0.63134678893E+02  0.56284567529E+02  0.84849206142E+02  0.41800000000E+01 0.  1.
         -5    1    3    3    0  502 -0.16549601556E+02 -0.11205609839E+02  0.29286780956E+03  0.29357874801E+03  0.41800000000E+01 0.  1.
        -11    1    1    2    0    0 -0.18237351590E+02  0.74871321761E+02  0.20490268487E+03  0.21891419799E+03  0.00000000000E+00 0. -1.
         11    1    1    2    0    0  0.29497798010E+02 -0.53103302800E+00  0.25815200619E+02  0.39202380878E+02  0.00000000000E+00 0.  1.
</event>
<event>
 7    1  0.2601031E-009  0.1736744E+03  0.7561462E-02  0.1174069E+00
         -1   -1    0    0    0  501 -0.00000000000E+00  0.00000000000E+00  0.26544332540E+02  0.26544332540E+02  0.00000000000E+00 0.  1.
          1   -1    0    0  501    0  0.00000000000E+00 -0.00000000000E+00 -0.18466148263E+04  0.18466148263E+04  0.00000000000E+00 0. -1.
         25    2    1    2    0    0 -0.11213659618E+03  0.10559519528E+03 -0.14059768072E+04  0.14199094855E+04  0.12508878155E+03 0.  0.
          5    1    3    3  502    0 -0.62323821781E+02  0.95150540141E+02 -0.51307720794E+03  0.52555073757E+03  0.41800000000E+01 0. -1.
         -5    1    3    3    0  502 -0.49812774400E+02  0.10444655136E+02 -0.89289959925E+03  0.89435874796E+03  0.41800000000E+01 0. -1.
        -11    1    1    2    0    0  0.10715346722E+03 -0.36521232929E+02 -0.28685343375E+03  0.30838378435E+03  0.00000000000E+00 0. -1.
         11    1    1    2    0    0  0.49831289557E+01 -0.69073962348E+02 -0.12724025283E+03  0.14486588898E+03  0.00000000000E+00 0.  1.
</event>
<event>
 7    1  0.2601031E-009  0.7807191E+02  0.7561462E-02  0.1334614E+00
         -1   -1    0    0    0  501 -0.00000000000E+00  0.00000000000E+00  0.28539933333E+02  0.28539933333E+02  0.00000000000E+00 0.  1.
          1   -1    0    0  501    0  0.00000000000E+00 -0.00000000000E+00 -0.57171190901E+03  0.57171190901E+03  0.00000000000E+00 0. -1.
         25    2    1    2    0    0 -0.14788561619E+02 -0.59139521911E+02 -0.31561885514E+03  0.34493402233E+03  0.12509209981E+03 0.  0.
          5    1    3    3  502    0  0.95623130427E+01 -0.15001407353E+02 -0.28545698658E+03  0.28604133205E+03  0.41800000000E+01 0.  1.
         -5    1    3    3    0  502 -0.24350874662E+02 -0.44138114558E+02 -0.30161868559E+02  0.58892690281E+02  0.41800000000E+01 0.  1.
        -11    1    1    2    0    0 -0.31348990433E+01  0.67455319822E+02 -0.22556878014E+03  0.23545981045E+03  0.00000000000E+00 0. -1.
         11    1    1    2    0    0  0.17923460663E+02 -0.83157979115E+01 -0.19843404015E+01  0.19858009564E+02  0.00000000000E+00 0.  1.
</event>
<event>
 7    1  0.2601031E-009  0.1044726E+03  0.7561462E-02  0.1271162E+00
          2   -1    0    0  501    0  0.00000000000E+00  0.00000000000E+00  0.78459020468E+03  0.78459020468E+03  0.00000000000E+00 0. -1.
         -2   -1    0    0    0  501 -0.00000000000E+00 -0.00000000000E+00 -0.15890702434E+02  0.15890702434E+02  0.00000000000E+00 0.  1.
         25    2    1    2    0    0  0.57396330726E+01 -0.24095252097E+02  0.42365519764E+03  0.44243052019E+03  0.12509002416E+03 0.  0.
          5    1    3    3  502    0  0.61528412625E+02 -0.66000651929E+01  0.28883131867E+03  0.29541548616E+03  0.41800000000E+01 0.  1.
         -5    1    3    3    0  502 -0.55788779553E+02 -0.17495186904E+02  0.13482387897E+03  0.14701503403E+03  0.41800000000E+01 0.  1.
        -11    1    1    2    0    0 -0.41994006727E+01  0.56103585514E+02  0.27932429287E+03  0.28493386576E+03  0.00000000000E+00 0. -1.
         11    1    1    2    0    0 -0.15402323999E+01 -0.32008333416E+02  0.65720011739E+02  0.73116521163E+02  0.00000000000E+00 0.  1.
</event>
<event>
 7    1  0.2601031E-009  0.1509112E+03  0.7561462E-02  0.1199358E+00
         -2   -1    0    0    0  501 -0.00000000000E+00  0.00000000000E+00  0.43283672037E+02  0.43283672037E+02  0.00000000000E+00 0.  1.
          2   -1    0    0  501    0  0.00000000000E+00 -0.00000000000E+00 -0.64848429646E+03  0.64848429646E+03  0.00000000000E+00 0. -1.
         25    2    1    2    0    0  0.10721788551E+03 -0.25831746354E+02 -0.45411273945E+03  0.48376650634E+03  0.12509475783E+03 0.  0.
          5    1    3    3  502    0 -0.22019975525E+02 -0.24307350557E+02 -0.14448564672E+03  0.14822044772E+03  0.41800000000E+01 0.  1.
         -5    1    3    3    0  502  0.12923786104E+03 -0.15243957968E+01 -0.30962709273E+03  0.33554605863E+03  0.41800000000E+01 0.  1.
        -11    1    1    2    0    0 -0.81163811904E+02  0.56732308419E+02 -0.84850370395E+02  0.13040592217E+03  0.00000000000E+00 0.  1.
         11    1    1    2    0    0 -0.26054073607E+02 -0.30900562065E+02 -0.66237514574E+02  0.77595539977E+02  0.00000000000E+00 0. -1.
</event>
<event>
 7    1  0.2601031E-009  0.9743188E+02  0.7561462E-02  0.1285791E+00
          1   -1    0    0  501    0  0.00000000000E+00  0.00000000000E+00  0.10072448260E+03  0.10072448260E+03  0.00000000000E+00 0. -1.
         -1   -1    0    0    0  501 -0.00000000000E+00 -0.00000000000E+00 -0.13059067722E+03  0.13059067722E+03  0.00000000000E+00 0.  1.
         25    2    1    2    0    0  0.84110472880E+01  0.32260223433E+02  0.21421153476E+01  0.12945898195E+03  0.12507426440E+03 0.  0.
          5    1    3    3  502    0 -0.43758426283E+02  0.10153834456E+02  0.40729108652E+02  0.60780201682E+02  0.41800000000E+01 0. -1.
         -5    1    3    3    0  502  0.52169473571E+02  0.22106388978E+02 -0.38586993304E+02  0.68678780264E+02  0.41800000000E+01 0. -1.
        -11    1    1    2    0    0  0.36087414450E+02 -0.32307440218E+02 -0.30685121011E+02  0.57338022521E+02  0.00000000000E+00 0.  1.
         11    1    1    2    0    0 -0.44498461738E+02  0.47216784282E-01 -0.13231889547E+01  0.44518155347E+02  0.00000000000E+00 0. -1.
</event>
<event>
 7    1  0.2601031E-009  0.1235042E+03  0.7561462E-02  0.1237426E+00
         -2   -1    0    0    0  501 -0.00000000000E+00  0.00000000000E+00  0.35832654926E+03  0.35832654926E+03  0.00000000000E+00 0.  1.
          2   -1    0    0  501    0  0.00000000000E+00 -0.00000000000E+00 -0.56072087839E+02  0.56072087839E+02  0.00000000000E+00 0. -1.
         25    2    1    2    0    0  0.55669404591E+02  0.67677083115E+02  0.19981925765E+03  0.25150096811E+03  0.12508289669E+03 0.  0.
          5    1    3    3  502    0  0.85868107767E+02  0.28768475131E+02  0.76414711844E+02  0.11856490914E+03  0.41800000000E+01 0. -1.
         -5    1    3    3    0  502 -0.30198703176E+02  0.38908607984E+02  0.12340454581E+03  0.13293605897E+03  0.41800000000E+01 0. -1.
        -11    1    1    2    0    0 -0.58890753083E+02 -0.24758279134E+02  0.15266096480E+02  0.65682165662E+02  0.00000000000E+00 0. -1.
         11    1    1    2    0    0  0.32213484923E+01 -0.42918803981E+02  0.87169107286E+02  0.97215503323E+02  0.00000000000E+00 0.  1.
</event>
<event>
 7    1  0.2601031E-009  0.1202321E+03  0.7561462E-02  0.1242715E+00
         -1   -1    0    0    0  501 -0.00000000000E+00  0.00000000000E+00  0.23784914405E+02  0.23784914405E+02  0.00000000000E+00 0.  1.
          1   -1    0    0  501    0  0.00000000000E+00 -0.00000000000E+00 -0.12687531427E+04  0.12687531427E+04  0.00000000000E+00 0. -1.
         25    2    1    2    0    0  0.96732998432E+02 -0.24501523863E+02 -0.99848434876E+03  0.10112257063E+04  0.12509531056E+03 0.  0.
          5    1    3    3  502    0  0.15861743954E+02  0.77002729726E+01 -0.14018720671E+02  0.22910391842E+02  0.41800000000E+01 0. -1.
         -5    1    3    3    0  502  0.80871254478E+02 -0.32201796836E+02 -0.98446562809E+03  0.98831531446E+03  0.41800000000E+01 0. -1.
        -11    1    1    2    0    0 -0.14199777499E+02  0.47452504460E+02 -0.80281061230E+02  0.94331451027E+02  0.00000000000E+00 0. -1.
         11    1    1    2    0    0 -0.82533220933E+02 -0.22950980597E+02 -0.16620281834E+03  0.18698089980E+03  0.00000000000E+00 0.  1.
</event>
<event>
 7    1  0.2601031E-009  0.3679347E+03  0.7561462E-02  0.1055486E+00
         -2   -1    0    0    0  501 -0.00000000000E+00  0.00000000000E+00  0.13203602587E+03  0.13203602587E+03  0.00000000000E+00 0. -1.
          2   -1    0    0  501    0  0.00000000000E+00 -0.00000000000E+00 -0.10955754492E+04  0.10955754492E+04  0.00000000000E+00 0.  1.
         25    2    1    2    0    0 -0.12195147527E+03 -0.33222211330E+03 -0.62601448684E+03  0.72992172510E+03  0.12509153511E+03 0.  0.
          5    1    3    3  502    0 -0.82065420018E+02 -0.32298808613E+03 -0.57208266705E+03  0.66208163189E+03  0.41800000000E+01 0.  1.
         -5    1    3    3    0  502 -0.39886055251E+02 -0.92340271704E+01 -0.53931819786E+02  0.67840093210E+02  0.41800000000E+01 0.  1.
        -11    1    1    2    0    0  0.22209785148E+02  0.16680737189E+03 -0.19541932269E+03  0.25788890157E+03  0.00000000000E+00 0. -1.
         11    1    1    2    0    0  0.99741690122E+02  0.16541474140E+03 -0.14210561381E+03  0.23980084841E+03  0.00000000000E+00 0.  1.
</event>
<event>
 7    1  0.2601031E-009  0.8856896E+02  0.7561462E-02  0.1306355E+00
          4   -1    0    0  501    0  0.00000000000E+00  0.00000000000E+00  0.31818080910E+03  0.31818080910E+03  0.00000000000E+00 0. -1.
         -4   -1    0    0    0  501 -0.00000000000E+00 -0.00000000000E+00 -0.36590270113E+02  0.36590270113E+02  0.00000000000E+00 0.  1.
         25    2    1    2    0    0 -0.71183737308E+01  0.81822951189E+01  0.15445344364E+03  0.19905130680E+03  0.12509170752E+03 0.  0.
          5    1    3    3  502    0  0.47110213714E+02  0.13164937642E+02  0.18371965800E+02  0.52418406564E+02  0.41800000000E+01 0.  1.
         -5    1    3    3    0  502 -0.54228587445E+02 -0.49826425233E+01  0.13608147784E+03  0.14663290024E+03  0.41800000000E+01 0.  1.
        -11    1    1    2    0    0  0.14832806510E+02 -0.38964983989E+02  0.24655951913E+02  0.48437569004E+02  0.00000000000E+00 0.  1.
         11    1    1    2    0    0 -0.77144327797E+01  0.30782688870E+02  0.10248114344E+03  0.10728220341E+03  0.00000000000E+00 0. -1.
</event>
<event>
 7    1  0.2601031E-009  0.1696830E+03  0.7561462E-02  0.1178179E+00
          1   -1    0    0  501    0  0.00000000000E+00  0.00000000000E+00  0.12947906313E+04  0.12947906313E+04  0.00000000000E+00 0. -1.
         -1   -1    0    0    0  501 -0.00000000000E+00 -0.00000000000E+00 -0.30854505726E+02  0.30854505726E+02  0.00000000000E+00 0.  1.
         25    2    1    2    0    0 -0.72694434403E+02 -0.13142649822E+03  0.90156280334E+03  0.92250733834E+03  0.12508755216E+03 0.  0.
          5    1    3    3  502    0  0.16514762358E+02 -0.35281378298E+02  0.46503900262E+03  0.46668646798E+03  0.41800000000E+01 0. -1.
         -5    1    3    3    0  502 -0.89209196761E+02 -0.96145119922E+02  0.43652380071E+03  0.45582087036E+03  0.41800000000E+01 0. -1.
        -11    1    1    2    0    0  0.75073228181E+02  0.56398300991E+02  0.25814305352E+03  0.27468999623E+03  0.00000000000E+00 0. -1.
         11    1    1    2    0    0 -0.23787937780E+01  0.75028197229E+02  0.10423026869E+03  0.12844780243E+03  0.00000000000E+00 0.  1.
</event>
<event>
 7    1  0.2601031E-009  0.8038590E+02  0.7561462E-02  0.1327960E+00
         -2   -1    0    0    0  501 -0.00000000000E+00  0.00000000000E+00  0.18775130815E+03  0.18775130815E+03  0.00000000000E+00 0.  1.
          2   -1    0    0  501    0  0.00000000000E+00 -0.00000000000E+00 -0.18478261177E+03  0.18478261177E+03  0.00000000000E+00 0. -1.
         25    2    1    2    0    0 -0.56149919584E+02 -0.80504305988E+01  0.14194844860E+03  0.19751828502E+03  0.12508592229E+03 0.  0.
          5    1    3    3  502    0 -0.41881693498E+01 -0.70577871210E+01 -0.22867169723E+02  0.24652240723E+02  0.41800000000E+01 0.  1.
         -5    1    3    3    0  502 -0.51961750234E+02 -0.99264347785E+00  0.16481561832E+03  0.17286604430E+03  0.41800000000E+01 0.  1.
        -11    1    1    2    0    0  0.65639204485E+02  0.32464896435E+02 -0.12611382137E+03  0.14583268017E+03  0.00000000000E+00 0. -1.
         11    1    1    2    0    0 -0.94892849009E+01 -0.24414465836E+02 -0.12865930848E+02  0.29182954726E+02  0.00000000000E+00 0.  1.
</event>
<event>
 7    1  0.2601031E-009  0.1062359E+03  0.7561462E-02  0.1267704E+00
          1   -1    0    0  501    0  0.00000000000E+00  0.00000000000E+00  0.64421929533E+03  0.64421929533E+03  0.00000000000E+00 0. -1.
         -1   -1    0    0    0  501 -0.00000000000E+00 -0.00000000000E+00 -0.18308760987E+02  0.18308760987E+02  0.00000000000E+00 0.  1.
         25    2    1    2    0    0 -0.38323427989E+01 -0.30254177934E+02  0.34412214737E+03  0.36741356162E+03  0.12507066329E+03 0.  0.
          5    1    3    3  502    0 -0.30475994748E+02  0.41167866120E+02  0.16138111857E+03  0.16936622240E+03  0.41800000000E+01 0.  1.
         -5    1    3    3    0  502  0.26643651950E+02 -0.71422044055E+02  0.18274102880E+03  0.19804733922E+03  0.41800000000E+01 0.  1.
        -11    1    1    2    0    0  0.33398181513E+02 -0.99338406617E+01  0.80171332810E+02  0.87416030128E+02  0.00000000000E+00 0.  1.
         11    1    1    2    0    0 -0.29565838714E+02  0.40188018596E+02  0.20161705416E+03  0.20769846457E+03  0.00000000000E+00 0. -1.
</event>
<event>
 7    1  0.2601031E-009  0.1081300E+03  0.7561462E-02  0.1264073E+00
         -2   -1    0    0    0  501 -0.00000000000E+00  0.00000000000E+00  0.38253641951E+02  0.38253641951E+02  0.00000000000E+00 0.  1.
          2   -1    0    0  501    0  0.00000000000E+00 -0.00000000000E+00 -0.38071057566E+03  0.38071057566E+03  0.00000000000E+00 0. -1.
         25    2    1    2    0    0 -0.28788130255E+02 -0.38801435062E+01 -0.27064140008E+03  0.29956013165E+03  0.12508274494E+03 0.  0.
          5    1    3    3  502    0 -0.23460947224E+02 -0.63776806636E+02 -0.14770270969E+03  0.16263904808E+03  0.41800000000E+01 0. -1.
         -5    1    3    3    0  502 -0.53271830304E+01  0.59896663130E+02 -0.12293869038E+03  0.13692108357E+03  0.41800000000E+01 0. -1.
        -11    1    1    2    0    0  0.57239405031E+02 -0.65114714310E+01 -0.67608429339E+02  0.88823693158E+02  0.00000000000E+00 0. -1.
         11    1    1    2    0    0 -0.28451274776E+02  0.10391614937E+02 -0.42071042916E+01  0.30580392802E+02  0.00000000000E+00 0.  1.
</event>
<event>
 7    1  0.2601031E-009  0.8727314E+02  0.7561462E-02  0.1309593E+00
          1   -1    0    0  501    0  0.00000000000E+00  0.00000000000E+00  0.38756366369E+02  0.38756366369E+02  0.00000000000E+00 0. -1.
         -1   -1    0    0    0  501 -0.00000000000E+00 -0.00000000000E+00 -0.34028507571E+03  0.34028507571E+03  0.00000000000E+00 0.  1.
         25    2    1    2    0    0 -0.28871506160E+02 -0.24246507215E+02 -0.19208979077E+03  0.23230736463E+03  0.12508703755E+03 0.  0.
          5    1    3    3  502    0  0.32464185129E+02  0.27636329849E+02 -0.33143040331E+02  0.54162935353E+02  0.41800000000E+01 0. -1.
         -5    1    3    3    0  502 -0.61335691289E+02 -0.51882837064E+02 -0.15894675044E+03  0.17814442928E+03  0.41800000000E+01 0. -1.
        -11    1    1    2    0    0  0.72367997987E+01  0.28335420649E+02 -0.11913788274E+03  0.12267478323E+03  0.00000000000E+00 0.  1.
         11    1    1    2    0    0  0.21634706361E+02 -0.40889134341E+01  0.96989641735E+01  0.24059294222E+02  0.00000000000E+00 0. -1.
</event>
<event>
 7    1  0.2601031E-009  0.1197563E+03  0.7561462E-02  0.1243500E+00
          2   -1    0    0  501    0  0.00000000000E+00  0.00000000000E+00  0.40389398354E+03  0.40389398354E+03  0.00000000000E+00 0.  1.
         -2   -1    0    0    0  501 -0.00000000000E+00 -0.00000000000E+00 -0.50717784833E+02  0.50717784833E+02  0.00000000000E+00 0. -1.
         25    2    1    2    0    0  0.13209728846E+01 -0.78028151209E+02  0.26977537941E+03  0.30743620502E+03  0.12509247567E+03 0.  0.
          5    1    3    3  502    0  0.18481075050E+02  0.17818268672E+02  0.66574197902E+01  0.26848360690E+02  0.41800000000E+01 0.  1.
         -5    1    3    3    0  502 -0.17160102165E+02 -0.95846419881E+02  0.26311795962E+03  0.28058784433E+03  0.41800000000E+01 0.  1.
        -11    1    1    2    0    0  0.36006240241E+02  0.68705822680E+02  0.34345358206E+02  0.84832440945E+02  0.00000000000E+00 0.  1.
         11    1    1    2    0    0 -0.37327213126E+02  0.93223285288E+01  0.49055461093E+02  0.62343122411E+02  0.00000000000E+00 0. -1.
</event>
<event>
 7    1  0.2601031E-009  0.2064345E+03  0.7561462E-02  0.1144421E+00
         -2   -1    0    0    0  501 -0.00000000000E+00  0.00000000000E+00  0.10720038947E+03  0.10720038947E+03  0.00000000000E+00 0.  1.
          2   -1    0    0  501    0  0.00000000000E+00 -0.00000000000E+00 -0.61708879508E+03  0.61708879508E+03  0.00000000000E+00 0. -1.
         25    2    1    2    0    0  0.18890309062E+03 -0.61393376897E+02 -0.87260836562E+02  0.25042912199E+03  0.12508703839E+03 0.  0.
          5    1    3    3  502    0  0.18238599734E+03 -0.75691636092E+02 -0.10717722037E+03  0.22471827866E+03  0.41800000000E+01 0.  1.
         -5    1    3    3    0  502  0.65170932830E+01  0.14298259195E+02  0.19916383807E+02  0.25710843332E+02  0.41800000000E+01 0.  1.
        -11    1    1    2    0    0 -0.20139761878E+02  0.11111324189E+02 -0.97212590591E+01  0.24971471951E+02  0.00000000000E+00 0.  1.
         11    1    1    2    0    0 -0.16876332874E+03  0.50282052708E+02 -0.41290630999E+03  0.44888859061E+03  0.00000000000E+00 0. -1.
</event>
<event>
 7    1  0.2601031E-009  0.9668249E+02  0.7561462E-02  0.1287431E+00
         -2   -1    0    0    0  501 -0.00000000000E+00  0.00000000000E+00  0.59592609803E+02  0.59592609803E+02  0.00000000000E+00 0. -1.
          2   -1    0    0  501    0  0.00000000000E+00 -0.00000000000E+00 -0.19396675210E+03  0.19396675210E+03  0.00000000000E+00 0.  1.
         25    2    1    2    0    0 -0.14722285428E+02 -0.10598497660E+02 -0.82379465790E+02  0.15087360630E+03  0.12508954734E+03 0.  0.
          5    1    3    3  502    0  0.41449272922E+02  0.28256992545E+02 -0.10101990028E+02  0.51342209302E+02  0.41800000000E+01 0. -1.
         -5    1    3    3    0  502 -0.56171558350E+02 -0.38855490205E+02 -0.72277475762E+02  0.99531397002E+02  0.41800000000E+01 0. -1.
        -11    1    1    2    0    0  0.43704837943E+02 -0.96561610541E-01 -0.56537554542E+02  0.71460599335E+02  0.00000000000E+00 0.  1.
         11    1    1    2    0    0 -0.28982552515E+02  0.10695059271E+02  0.45428780321E+01  0.31225156267E+02  0.00000000000E+00 0. -1.
</event>
<event>
 7    1  0.2601031E-009  0.1116124E+03  0.7561462E-02  0.1257613E+00
          2   -1    0    0  501    0  0.00000000000E+00  0.00000000000E+00  0.59477502479E+03  0.59477502479E+03  0.00000000000E+00 0. -1.
         -2   -1    0    0    0  501 -0.00000000000E+00 -0.00000000000E+00 -0.23341310927E+02  0.23341310927E+02  0.00000000000E+00 0.  1.
         25    2    1    2    0    0 -0.21886624229E+02 -0.17473328465E+02  0.23261932731E+03  0.26560065512E+03  0.12509042743E+03 0.  0.
          5    1    3    3  502    0  0.48844037638E+02 -0.24458216821E+02  0.12599510407E+03  0.13739062207E+03  0.41800000000E+01 0. -1.
         -5    1    3    3    0  502 -0.70730661867E+02  0.69848883564E+01  0.10662422324E+03  0.12821003306E+03  0.41800000000E+01 0. -1.
        -11    1    1    2    0    0  0.39537986069E+02 -0.28009663450E+02  0.16156084024E+03  0.16867038474E+03  0.00000000000E+00 0.  1.
         11    1    1    2    0    0 -0.17651361840E+02  0.45482991915E+02  0.17725354631E+03  0.18384529586E+03  0.00000000000E+00 0. -1.
</event>
<event>
 7    1  0.2601031E-009  0.7681586E+02  0.7561462E-02  0.1338338E+00
         -1   -1    0    0    0  501 -0.00000000000E+00  0.00000000000E+00  0.99975444207E+02  0.99975444207E+02  0.00000000000E+00 0.  1.
          1   -1    0    0  501    0  0.00000000000E+00 -0.00000000000E+00 -0.19911999066E+03  0.19911999066E+03  0.00000000000E+00 0. -1.
         25    2    1    2    0    0  0.57358171240E+01  0.53657979177E+02  0.26389746238E+02  0.13876425362E+03  0.12508805318E+03 0.  0.
          5    1    3    3  502    0 -0.52261050896E+01  0.17602087904E+02 -0.50029159533E+02  0.53455915262E+02  0.41800000000E+01 0. -1.
         -5    1    3    3    0  502  0.10961922214E+02  0.36055891274E+02  0.76418905771E+02  0.85308338358E+02  0.41800000000E+01 0. -1.
        -11    1    1    2    0    0 -0.41033886642E+02 -0.13005830494E+02 -0.37247541163E+02  0.56923727939E+02  0.00000000000E+00 0.  1.
         11    1    1    2    0    0  0.35298069518E+02 -0.40652148683E+02 -0.88286751527E+02  0.10340745331E+03  0.00000000000E+00 0. -1.
</event>
<event>
 7    1  0.2601031E-009  0.1211545E+03  0.7561462E-02  0.1241205E+00
         -4   -1    0    0    0  501 -0.00000000000E+00  0.00000000000E+00  0.32068406481E+03  0.32068406481E+03  0.00000000000E+00 0.  1.
          4   -1    0    0  501    0  0.00000000000E+00 -0.00000000000E+00 -0.60487060273E+02  0.60487060273E+02  0.00000000000E+00 0. -1.
         25    2    1    2    0    0  0.32582362552E+02 -0.71921059830E+02  0.18701737047E+03  0.23844963806E+03  0.12509390007E+03 0.  0.
          5    1    3    3  502    0  0.12430879718E+02 -0.10395252231E+03  0.16186973491E+03  0.19282099767E+03  0.41800000000E+01 0. -1.
         -5    1    3    3    0  502  0.20151482834E+02  0.32031462475E+02  0.25147635563E+02  0.45628640382E+02  0.41800000000E+01 0. -1.
        -11    1    1    2    0    0  0.16732054798E+02  0.31610732295E+02  0.70403872943E+02  0.78967748983E+02  0.00000000000E+00 0.  1.
         11    1    1    2    0    0 -0.49314417350E+02  0.40310327535E+02  0.27757611194E+01  0.63753738042E+02  0.00000000000E+00 0. -1.
</event>
<event>
 7    1  0.2601031E-009  0.9474135E+02  0.7561462E-02  0.1291760E+00
         -1   -1    0    0    0  501 -0.00000000000E+00  0.00000000000E+00  0.56692904156E+02  0.56692904156E+02  0.00000000000E+00 0.  1.
          1   -1    0    0  501    0  0.00000000000E+00 -0.00000000000E+00 -0.24446449420E+03  0.24446449420E+03  0.00000000000E+00 0. -1.
         25    2    1    2    0    0  0.18244402427E+02 -0.45118604041E+02 -0.10690350537E+03  0.17158804986E+03  0.12508218396E+03 0.  0.
          5    1    3    3  502    0  0.30129829831E+02 -0.85161258155E+02 -0.59400308868E+02  0.10819480408E+03  0.41800000000E+01 0. -1.
         -5    1    3    3    0  502 -0.11885427404E+02  0.40042654114E+02 -0.47503196502E+02  0.63393245784E+02  0.41800000000E+01 0. -1.
        -11    1    1    2    0    0 -0.18174975358E+02  0.78375000046E+01  0.16206923362E+02  0.25581643819E+02  0.00000000000E+00 0.  1.
         11    1    1    2    0    0 -0.69427068867E-01  0.37281104036E+02 -0.97075008040E+02  0.10398770468E+03  0.00000000000E+00 0. -1.
</event>
<event>
 7    1  0.2601031E-009  0.9783755E+02  0.7561462E-02  0.1284910E+00
         -2   -1    0    0    0  501 -0.00000000000E+00  0.00000000000E+00  0.24952242980E+02  0.24952242980E+02  0.00000000000E+00 0.  1.
          2   -1    0    0  501    0  0.00000000000E+00 -0.00000000000E+00 -0.54147160139E+03  0.54147160139E+03  0.00000000000E+00 0. -1.
         25    2    1    2    0    0  0.14055593283E+02  0.15687365046E+02 -0.20539292415E+03  0.24140892750E+03  0.12509342053E+03 0.  0.
          5    1    3    3  502    0 -0.20189360422E+02  0.51377418502E+02 -0.38864868011E+02  0.67640223031E+02  0.41800000000E+01 0. -1.
         -5    1    3    3    0  502  0.34244953705E+02 -0.35690053456E+02 -0.16652805614E+03  0.17376870447E+03  0.41800000000E+01 0. -1.
        -11    1    1    2    0    0  0.34739561873E+02  0.91495588700E+01 -0.83572412583E+02  0.90966475866E+02  0.00000000000E+00 0. -1.
         11    1    1    2    0    0 -0.48795155156E+02 -0.24836923916E+02 -0.22755402167E+03  0.23404844100E+03  0.00000000000E+00 0.  1.
</event>
<event>
 7    1  0.2601031E-009  0.1458940E+03  0.7561462E-02  0.1205611E+00
         -2   -1    0    0    0  501 -0.00000000000E+00  0.00000000000E+00  0.64574376110E+02  0.64574376110E+02  0.00000000000E+00 0.  1.
          2   -1    0    0  501    0  0.00000000000E+00 -0.00000000000E+00 -0.38104866015E+03  0.38104866015E+03  0.00000000000E+00 0. -1.
         25    2    1    2    0    0 -0.40999949178E+02 -0.10237641278E+03 -0.13238444367E+03  0.21291692997E+03  0.12508418132E+03 0.  0.
          5    1    3    3  502    0  0.26897375237E+02  0.12214239334E+02 -0.43442339579E+02  0.52700718261E+02  0.41800000000E+01 0.  1.
         -5    1    3    3    0  502 -0.67897324414E+02 -0.11459065211E+03 -0.88942104095E+02  0.16021621171E+03  0.41800000000E+01 0.  1.
        -11    1    1    2    0    0  0.50147459452E+02  0.36106465285E+02 -0.13875806800E+03  0.15189551001E+03  0.00000000000E+00 0. -1.
         11    1    1    2    0    0 -0.91475102747E+01  0.66269947495E+02 -0.45331772359E+02  0.80810596276E+02  0.00000000000E+00 0.  1.
</event>
<event>
 7    1  0.2601031E-009  0.1171453E+03  0.7561462E-02  0.1247882E+00
          1   -1    0    0  501    0  0.00000000000E+00  0.00000000000E+00  0.23529461720E+03  0.23529461720E+03  0.00000000000E+00 0. -1.
         -1   -1    0    0    0  501 -0.00000000000E+00 -0.00000000000E+00 -0.89311544641E+02  0.89311544641E+02  0.00000000000E+00 0.  1.
         25    2    1    2    0    0  0.22151527590E+00 -0.89981624427E+02  0.39517015837E+02  0.15907903466E+03  0.12509117844E+03 0.  0.
          5    1    3    3  502    0  0.62308217205E+01 -0.11566950620E+03  0.57912285428E+01  0.11605717786E+03  0.41800000000E+01 0. -1.
         -5    1    3    3    0  502 -0.60093064446E+01  0.25687881776E+02  0.33725787294E+02  0.43021856802E+02  0.41800000000E+01 0. -1.
        -11    1    1    2    0    0 -0.87252613893E+01  0.53580308009E+02  0.11501319493E+03  0.12718103082E+03  0.00000000000E+00 0.  1.
         11    1    1    2    0    0  0.85037461134E+01  0.36401316418E+02 -0.85471382029E+01  0.38346096364E+02  0.00000000000E+00 0. -1.
</event>
<event>
 7    1  0.3251827E-009  0.2388753E+03  0.7561462E-02  0.1120544E+00
         -1   -1    0    0    0  501 -0.00000000000E+00  0.00000000000E+00  0.10072564675E+03  0.10072564675E+03  0.00000000000E+00 0.  1.
          1   -1    0    0  501    0  0.00000000000E+00 -0.00000000000E+00 -0.65688620878E+03  0.65688620878E+03  0.00000000000E+00 0. -1.
         25    2    1    2    0    0  0.22167336659E+03 -0.61903857559E+01 -0.18148498063E+03  0.31266915053E+03  0.12509115544E+03 0.  0.
          5    1    3    3  502    0  0.21969798672E+03 -0.37439536320E+02 -0.15580787906E+03  0.27196046004E+03  0.41800000000E+01 0. -1.
         -5    1    3    3    0  502  0.19753798720E+01  0.31249150564E+02 -0.25677101570E+02  0.40708690493E+02  0.41800000000E+01 0. -1.
        -11    1    1    2    0    0 -0.74383111978E+02 -0.10110964715E+02 -0.56512553847E+02  0.93961416003E+02  0.00000000000E+00 0.  1.
         11    1    1    2    0    0 -0.14729025461E+03  0.16301350471E+02 -0.31816302755E+03  0.35098128900E+03  0.00000000000E+00 0. -1.
</event>
<event>
 7    1  0.2601031E-009  0.1437774E+03  0.7561462E-02  0.1208335E+00
          2   -1    0    0  501    0  0.00000000000E+00  0.00000000000E+00  0.30068067751E+03  0.30068067751E+03  0.00000000000E+00 0. -1.
         -2   -1    0    0    0  501 -0.00000000000E+00 -0.00000000000E+00 -0.89618522647E+02  0.89618522647E+02  0.00000000000E+00 0.  1.
         25    2    1    2    0    0 -0.75700683815E+00 -0.11541470481E+03  0.16248716991E+03  0.23531155193E+03  0.12509324100E+03 0.  0.
          5    1    3    3  502    0 -0.18108080498E+02 -0.12998976484E+03  0.16636648420E+03  0.21194461779E+03  0.41800000000E+01 0. -1.
         -5    1    3    3    0  502  0.17351073660E+02  0.14575060030E+02 -0.38793142979E+01  0.23366934148E+02  0.41800000000E+01 0. -1.
        -11    1    1    2    0    0  0.75681083076E+01 -0.71709868883E+01  0.28801881077E+02  0.30630828749E+02  0.00000000000E+00 0. -1.
         11    1    1    2    0    0 -0.68111014695E+01  0.12258569170E+03  0.19773103876E+02  0.12435681947E+03  0.00000000000E+00 0.  1.
</event>
<event>
 7    1  0.2601031E-009  0.1071547E+03  0.7561462E-02  0.1265932E+00
          1   -1    0    0  501    0  0.00000000000E+00  0.00000000000E+00  0.12476978647E+03  0.12476978647E+03  0.00000000000E+00 0. -1.
         -1   -1    0    0    0  501 -0.00000000000E+00 -0.00000000000E+00 -0.10407963860E+03  0.10407963860E+03  0.00000000000E+00 0.  1.
         25    2    1    2    0    0 -0.21432912506E+02 -0.19708301553E+02  0.32564426223E+02  0.13250173867E+03  0.12509389276E+03 0.  0.
          5    1    3    3  502    0  0.48628530847E+02 -0.39512298916E+01 -0.84593359936E+01  0.49692846522E+02  0.41800000000E+01 0. -1.
         -5    1    3    3    0  502 -0.70061443353E+02 -0.15757071662E+02  0.41023762217E+02  0.82808892146E+02  0.41800000000E+01 0. -1.
        -11    1    1    2    0    0  0.21766352074E+02 -0.33635458050E+02  0.50537030422E+01  0.40381407049E+02  0.00000000000E+00 0. -1.
         11    1    1    2    0    0 -0.33343956850E+00  0.53343759603E+02 -0.16927981399E+02  0.55966279355E+02  0.00000000000E+00 0.  1.
</event>
<event>
 7    1  0.2601031E-009  0.1245249E+03  0.7561462E-02  0.1235814E+00
          1   -1    0    0  501    0  0.00000000000E+00  0.00000000000E+00  0.69776988592E+02  0.69776988592E+02  0.00000000000E+00 0. -1.
         -1   -1    0    0    0  501 -0.00000000000E+00 -0.00000000000E+00 -0.33257402971E+03  0.33257402971E+03  0.00000000000E+00 0.  1.
         25    2    1    2    0    0 -0.97161288821E+02 -0.56708664761E+01 -0.19907802612E+03  0.25446532133E+03  0.12509222400E+03 0.  0.
          5    1    3    3  502    0 -0.42755057939E+01  0.39647700638E+02 -0.14047064091E+02  0.42485438979E+02  0.41800000000E+01 0.  1.
         -5    1    3    3    0  502 -0.92885783027E+02 -0.45318567114E+02 -0.18503096203E+03  0.21197988236E+03  0.41800000000E+01 0.  1.
        -11    1    1    2    0    0  0.62070676023E+02  0.23234913672E+02  0.73699250753E+01  0.66685424426E+02  0.00000000000E+00 0. -1.
         11    1    1    2    0    0  0.35090612798E+02 -0.17564047196E+02 -0.71088940074E+02  0.81200272545E+02  0.00000000000E+00 0.  1.
</event>
<event>
 7    1  0.2601031E-009  0.1994943E+03  0.7561462E-02  0.1150166E+00
          1   -1    0    0  501    0  0.00000000000E+00  0.00000000000E+00  0.12254006852E+04  0.12254006852E+04  0.00000000000E+00 0. -1.
         -1   -1    0    0    0  501 -0.00000000000E+00 -0.00000000000E+00 -0.35319277986E+02  0.35319277986E+02  0.00000000000E+00 0.  1.
         25    2    1    2    0    0 -0.12623610134E+03 -0.12434130794E+03  0.63392036253E+03  0.66999946850E+03  0.12509175677E+03 0.  0.
          5    1    3    3  502    0 -0.11142508721E+03 -0.14171449223E+03  0.61222767445E+03  0.63823094968E+03  0.41800000000E+01 0. -1.
         -5    1    3    3    0  502 -0.14811014124E+02  0.17373184285E+02  0.21692688087E+02  0.31768518820E+02  0.41800000000E+01 0. -1.
        -11    1    1    2    0    0  0.13301789139E+03  0.90360888800E+02  0.49451115037E+03  0.52000012259E+03  0.00000000000E+00 0.  1.
         11    1    1    2    0    0 -0.67817900549E+01  0.33980419140E+02  0.61649894313E+02  0.70720372101E+02  0.00000000000E+00 0. -1.
</event>
<event>
 7    1  0.2601031E-009  0.2666779E+03  0.7561462E-02  0.1103196E+00
          1   -1    0    0  501    0  0.00000000000E+00  0.00000000000E+00  0.95641653000E+03  0.95641653000E+03  0.00000000000E+00 0. -1.
         -1   -1    0    0    0  501 -0.00000000000E+00 -0.00000000000E+00 -0.12166559870E+03  0.12166559870E+03  0.00000000000E+00 0.  1.
         25    2    1    2    0    0 -0.99490300658E+02  0.22394048200E+03  0.75749427257E+03  0.80591141042E+03  0.12509184253E+03 0.  0.
          5    1    3    3  502    0 -0.10539228455E+03  0.23590562078E+03  0.73790877770E+03  0.78184770395E+03  0.41800000000E+01 0. -1.
         -5    1    3    3    0  502  0.59019838936E+01 -0.11965138784E+02  0.19585494869E+02  0.24063706474E+02  0.41800000000E+01 0. -1.
        -11    1    1    2    0    0  0.11300229646E+03 -0.16169633364E+03  0.57258671148E+02  0.20541124297E+03  0.00000000000E+00 0.  1.
         11    1    1    2    0    0 -0.13511995805E+02 -0.62244148362E+02  0.19997987578E+02  0.66759475306E+02  0.00000000000E+00 0. -1.
</event>
<event>
 7    1  0.2601031E-009  0.1097625E+03  0.7561462E-02  0.1261010E+00
          1   -1    0    0  501    0  0.00000000000E+00  0.00000000000E+00  0.60541265402E+03  0.60541265402E+03  0.00000000000E+00 0.  1.
         -1   -1    0    0    0  501 -0.00000000000E+00 -0.00000000000E+00 -0.32116108594E+02  0.32116108594E+02  0.00000000000E+00 0. -1.
         25    2    1    2    0    0 -0.65794613418E+02  0.50666515708E+02  0.38672500019E+03  0.41484880629E+03  0.12508908559E+03 0.  0.
          5    1    3    3  502    0  0.11273396153E+02 -0.73824130437E+01  0.23219501935E+03  0.23262327677E+03  0.41800000000E+01 0. -1.
         -5    1    3    3    0  502 -0.77068009571E+02  0.58048928752E+02  0.15452998084E+03  0.18222552951E+03  0.41800000000E+01 0. -1.
        -11    1    1    2    0    0  0.66041014453E+01 -0.49191367292E+02  0.13613748146E+03  0.14490279027E+03  0.00000000000E+00 0.  1.
         11    1    1    2    0    0  0.59190511973E+02 -0.14751484159E+01  0.50434063773E+02  0.77777166052E+02  0.00000000000E+00 0. -1.
</event>
<event>
 7    1  0.2601031E-009  0.9398475E+02  0.7561462E-02  0.1293479E+00
          1   -1    0    0  501    0  0.00000000000E+00  0.00000000000E+00  0.92802725229E+02  0.92802725229E+02  0.00000000000E+00 0. -1.
         -1   -1    0    0    0  501 -0.00000000000E+00 -0.00000000000E+00 -0.16929747171E+03  0.16929747171E+03  0.00000000000E+00 0.  1.
         25    2    1    2    0    0  0.10665964608E+01  0.61849117849E+02 -0.36666925232E+02  0.14429046166E+03  0.12509525536E+03 0.  0.
          5    1    3    3  502    0  0.36842400817E+02  0.76070436658E+02 -0.55527367987E+02  0.10121677147E+03  0.41800000000E+01 0. -1.
         -5    1    3    3    0  502 -0.35775804356E+02 -0.14221318809E+02  0.18860442755E+02  0.43073690194E+02  0.41800000000E+01 0. -1.
        -11    1    1    2    0    0  0.88226369335E+01 -0.28583105739E+02 -0.67234064671E+02  0.73588397919E+02  0.00000000000E+00 0.  1.
         11    1    1    2    0    0 -0.98892333943E+01 -0.33266012110E+02  0.27406243424E+02  0.44221337355E+02  0.00000000000E+00 0. -1.
</event>
<event>
 7    1  0.2601031E-009  0.1063577E+03  0.7561462E-02  0.1267468E+00
          1   -1    0    0  501    0  0.00000000000E+00  0.00000000000E+00  0.20833584512E+03  0.20833584512E+03  0.00000000000E+00 0. -1.
         -1   -1    0    0    0  501 -0.00000000000E+00 -0.00000000000E+00 -0.96700531329E+02  0.96700531329E+02  0.00000000000E+00 0.  1.
         25    2    1    2    0    0 -0.67124260632E+02 -0.54644030222E+02  0.29226980954E+02  0.15490534121E+03  0.12509920829E+03 0.  0.
          5    1    3    3  502    0 -0.41136297797E+02 -0.15464809313E+02 -0.47484913036E+02  0.64835520276E+02  0.41800000000E+01 0.  1.
         -5    1    3    3    0  502 -0.25987962835E+02 -0.39179220909E+02  0.76711893989E+02  0.90069820932E+02  0.41800000000E+01 0.  1.
        -11    1    1    2    0    0 -0.13436292838E+02 -0.11067877337E+02 -0.98171617646E-01  0.17408087536E+02  0.00000000000E+00 0.  1.
         11    1    1    2    0    0  0.80560553470E+02  0.65711907559E+02  0.82506504460E+02  0.13272294771E+03  0.00000000000E+00 0. -1.
</event>
<event>
 7    1  0.2601031E-009  0.1669669E+03  0.7561462E-02  0.1181048E+00
          2   -1    0    0  501    0  0.00000000000E+00  0.00000000000E+00  0.51006187698E+03  0.51006187698E+03  0.00000000000E+00 0. -1.
         -2   -1    0    0    0  501 -0.00000000000E+00 -0.00000000000E+00 -0.74799798318E+02  0.74799798318E+02  0.00000000000E+00 0.  1.
         25    2    1    2    0    0 -0.14449690906E+03 -0.14756928559E+02  0.11938589816E+03  0.22582676392E+03  0.12509041113E+03 0.  0.
          5    1    3    3  502    0 -0.10722181834E+03  0.44858673915E+02  0.48847267390E+02  0.12614415121E+03  0.41800000000E+01 0. -1.
         -5    1    3    3    0  502 -0.37275090716E+02 -0.59615602474E+02  0.70538630769E+02  0.99682612711E+02  0.41800000000E+01 0. -1.
        -11    1    1    2    0    0  0.10477776570E+03 -0.13608706406E+00  0.12313339224E+03  0.16167940806E+03  0.00000000000E+00 0. -1.
         11    1    1    2    0    0  0.39719143358E+02  0.14893015623E+02  0.19274278826E+03  0.19735550332E+03  0.00000000000E+00 0.  1.
</event>
<event>
 7    1  0.2601031E-009  0.8899847E+02  0.7561462E-02  0.1305295E+00
         -1   -1    0    0    0  501 -0.00000000000E+00  0.00000000000E+00  0.48725262670E+03  0.48725262670E+03  0.00000000000E+00 0.  1.
          1   -1    0    0  501    0  0.00000000000E+00 -0.00000000000E+00 -0.49191440317E+02  0.49191440317E+02  0.00000000000E+00 0. -1.
         25    2    1    2    0    0  0.51800556606E+02 -0.54024021030E+02  0.37063850840E+03  0.39827070088E+03  0.12507899406E+03 0.  0.
          5    1    3    3  502    0  0.79753921099E+01 -0.13220782313E+01 -0.88051546318E+01  0.12663250698E+02  0.41800000000E+01 0.  1.
         -5    1    3    3    0  502  0.43825164496E+02 -0.52701942799E+02  0.37944366304E+03  0.38560745018E+03  0.41800000000E+01 0.  1.
        -11    1    1    2    0    0 -0.67615348344E+02  0.49431898109E+02  0.81234011943E+02  0.11668038644E+03  0.00000000000E+00 0.  1.
         11    1    1    2    0    0  0.15814791738E+02  0.45921229208E+01 -0.13811333963E+02  0.21492979702E+02  0.00000000000E+00 0. -1.
</event>
<event>
 7    1  0.2601031E-009  0.1167279E+03  0.7561462E-02  0.1248595E+00
          1   -1    0    0  501    0  0.00000000000E+00  0.00000000000E+00  0.46036609437E+02  0.46036609437E+02  0.00000000000E+00 0. -1.
         -1   -1    0    0    0  501 -0.00000000000E+00 -0.00000000000E+00 -0.53001858471E+03  0.53001858471E+03  0.00000000000E+00 0.  1.
         25    2    1    2    0    0 -0.36179598635E+02 -0.10290586990E+03 -0.31909138153E+03  0.35967291895E+03  0.12508683961E+03 0.  0.
          5    1    3    3  502    0 -0.10094101086E+02 -0.92103319545E+02 -0.31784851688E+03  0.33110431050E+03  0.41800000000E+01 0. -1.
         -5    1    3    3    0  502 -0.26085497548E+02 -0.10802550359E+02 -0.12428646525E+01  0.28568608456E+02  0.41800000000E+01 0. -1.
        -11    1    1    2    0    0  0.58199075537E+01  0.55934374479E+02 -0.17750509398E+02  0.58971231597E+02  0.00000000000E+00 0. -1.
         11    1    1    2    0    0  0.30359691081E+02  0.46971495426E+02 -0.14714008434E+03  0.15741104359E+03  0.00000000000E+00 0.  1.
</event>
<event>
 7    1  0.2601031E-009  0.8635076E+02  0.7561462E-02  0.1311937E+00
         -2   -1    0    0    0  501 -0.00000000000E+00  0.00000000000E+00  0.53140877254E+02  0.53140877254E+02  0.00000000000E+00 0.  1.
          2   -1    0    0  501    0  0.00000000000E+00 -0.00000000000E+00 -0.27729550722E+03  0.27729550722E+03  0.00000000000E+00 0. -1.
         25    2    1    2    0    0  0.80478504439E+01 -0.52417897641E+02 -0.12971991095E+03  0.18785071244E+03  0.12509288940E+03 0.  0.
          5    1    3    3  502    0 -0.49509234506E+02 -0.20772638773E+02 -0.15523285052E+02  0.56045620719E+02  0.41800000000E+01 0.  1.
         -5    1    3    3    0  502  0.57557084950E+02 -0.31645258869E+02 -0.11419662590E+03  0.13180509172E+03  0.41800000000E+01 0.  1.
        -11    1    1    2    0    0 -0.30152313278E+01  0.18765793543E+02 -0.10519519050E+03  0.10689843185E+03  0.00000000000E+00 0. -1.
         11    1    1    2    0    0 -0.50326191161E+01  0.33652104098E+02  0.10760471487E+02  0.35687240185E+02  0.00000000000E+00 0.  1.
</event>
<event>
 7    1  0.2601031E-009  0.9583149E+02  0.7561462E-02  0.1289314E+00
         -2   -1    0    0    0  501 -0.00000000000E+00  0.00000000000E+00  0.33093370834E+02  0.33093370834E+02  0.00000000000E+00 0.  1.
          2   -1    0    0  501    0  0.00000000000E+00 -0.00000000000E+00 -0.47384785945E+03  0.47384785945E+03  0.00000000000E+00 0. -1.
         25    2    1    2    0    0 -0.27907892786E+02 -0.43066652093E+02 -0.17609641543E+03  0.22201589811E+03  0.12509006549E+03 0.  0.
          5    1    3    3  502    0 -0.48989580208E+02 -0.42817689808E+02 -0.18691036804E+03  0.19795527680E+03  0.41800000000E+01 0. -1.
         -5    1    3    3    0  502  0.21081687422E+02 -0.24896228466E+00  0.10813952613E+02  0.24060621311E+02  0.41800000000E+01 0. -1.
        -11    1    1    2    0    0 -0.28949529591E+02 -0.63527419747E+01 -0.88650123756E+02  0.93473402827E+02  0.00000000000E+00 0. -1.
         11    1    1    2    0    0  0.56857422378E+02  0.49419394067E+02 -0.17600794943E+03  0.19145192935E+03  0.00000000000E+00 0.  1.
</event>
<event>
 7    1  0.2700508E-009  0.1125566E+03  0.7561462E-02  0.1255907E+00
         -1   -1    0    0    0  501 -0.00000000000E+00  0.00000000000E+00  0.16405611276E+03  0.16405611276E+03  0.00000000000E+00 0.  1.
          1   -1    0    0  501    0  0.00000000000E+00 -0.00000000000E+00 -0.94139541183E+02  0.94139541183E+02  0.00000000000E+00 0. -1.
         25    2    1    2    0    0  0.56220592141E+02 -0.85386406758E+01  0.17412210704E+02  0.13850467615E+03  0.12508675737E+03 0.  0.
          5    1    3    3  502    0  0.81828671745E+02 -0.37773616515E+02 -0.99798526949E+01  0.90773605657E+02  0.41800000000E+01 0.  1.
         -5    1    3    3    0  502 -0.25608079604E+02  0.29234975840E+02  0.27392063399E+02  0.47731070495E+02  0.41800000000E+01 0.  1.
        -11    1    1    2    0    0 -0.58777209210E+02 -0.23762589235E+02  0.59044485358E+02  0.86635282771E+02  0.00000000000E+00 0.  1.
         11    1    1    2    0    0  0.25566170688E+01  0.32301229911E+02 -0.65401244902E+01  0.33055695015E+02  0.00000000000E+00 0. -1.
</event>
<event>
 7    1  0.4162653E-009  0.2820617E+03  0.7561462E-02  0.1094568E+00
          2   -1    0    0  501    0  0.00000000000E+00  0.00000000000E+00  0.21201854601E+04  0.21201854601E+04  0.00000000000E+00 0. -1.
         -2   -1    0    0    0  501 -0.00000000000E+00 -0.00000000000E+00 -0.39478578927E+02  0.39478578927E+02  0.00000000000E+00 0.  1.
         25    2    1    2    0    0 -0.59504098491E+02 -0.25970736709E+03  0.11680497075E+04  0.12045656551E+04  0.12509853683E+03 0.  0.
          5    1    3    3  502    0  0.35991328151E+02 -0.76002567371E+02  0.26400996262E+03  0.27711098627E+03  0.41800000000E+01 0.  1.
         -5    1    3    3    0  502 -0.95495426642E+02 -0.18370479972E+03  0.90403974492E+03  0.92745466884E+03  0.41800000000E+01 0.  1.
        -11    1    1    2    0    0  0.50838343295E+02  0.93667057561E+02  0.47774770170E+03  0.48949047110E+03  0.00000000000E+00 0. -1.
         11    1    1    2    0    0  0.86657551957E+01  0.16604030953E+03  0.43490947193E+03  0.46560791282E+03  0.00000000000E+00 0.  1.
</event>
<event>
 7    1  0.2601031E-009  0.1061627E+03  0.7561462E-02  0.1267846E+00
          2   -1    0    0  501    0  0.00000000000E+00  0.00000000000E+00  0.44401829599E+03  0.44401829599E+03  0.00000000000E+00 0. -1.
         -2   -1    0    0    0  501 -0.00000000000E+00 -0.00000000000E+00 -0.31469085539E+02  0.31469085539E+02  0.00000000000E+00 0.  1.
         25    2    1    2    0    0 -0.22550544643E+02  0.37977363450E+02  0.18325846628E+03  0.22623368403E+03  0.12508879697E+03 0.  0.
          5    1    3    3  502    0  0.28760672693E+01  0.81720006847E+02  0.11163606130E+03  0.13844317919E+03  0.41800000000E+01 0.  1.
         -5    1    3    3    0  502 -0.25426611913E+02 -0.43742643397E+02  0.71622404978E+02  0.87790504836E+02  0.41800000000E+01 0.  1.
        -11    1    1    2    0    0  0.41148778773E+02 -0.45140373162E+01  0.18976150131E+03  0.19422416407E+03  0.00000000000E+00 0. -1.
         11    1    1    2    0    0 -0.18598234130E+02 -0.33463326134E+02  0.39529242856E+02  0.55029533430E+02  0.00000000000E+00 0.  1.
</event>
<event>
 7    1  0.2601031E-009  0.9547685E+02  0.7561462E-02  0.1290106E+00
         -2   -1    0    0    0  501 -0.00000000000E+00  0.00000000000E+00  0.32229349985E+03  0.32229349985E+03  0.00000000000E+00 0.  1.
          2   -1    0    0  501    0  0.00000000000E+00 -0.00000000000E+00 -0.41801821991E+02  0.41801821991E+02  0.00000000000E+00 0. -1.
         25    2    1    2    0    0 -0.48810507749E+02  0.73187200251E+01  0.18618140233E+03  0.22966533254E+03  0.12508645438E+03 0.  0.
          5    1    3    3  502    0 -0.82552685549E+02  0.11680511879E+02  0.17451843992E+03  0.19345681306E+03  0.41800000000E+01 0. -1.
         -5    1    3    3    0  502  0.33742177800E+02 -0.43617918539E+01  0.11662962414E+02  0.36208519482E+02  0.41800000000E+01 0. -1.
        -11    1    1    2    0    0  0.23129690521E+01 -0.23763208878E+02  0.79390478911E+02  0.82902883326E+02  0.00000000000E+00 0.  1.
         11    1    1    2    0    0  0.46497538697E+02  0.16444488853E+02  0.14919796618E+02  0.51527105970E+02  0.00000000000E+00 0. -1.
</event>
<event>
 7    1  0.2601031E-009  0.1015481E+03  0.7561462E-02  0.1277074E+00
         -1   -1    0    0    0  501 -0.00000000000E+00  0.00000000000E+00  0.23944386780E+03  0.23944386780E+03  0.00000000000E+00 0.  1.
          1   -1    0    0  501    0  0.00000000000E+00 -0.00000000000E+00 -0.84161418413E+02  0.84161418413E+02  0.00000000000E+00 0. -1.
         25    2    1    2    0    0 -0.59343643782E+01  0.73888456681E+02  0.22565975450E+02  0.14714562921E+03  0.12509153543E+03 0.  0.
          5    1    3    3  502    0 -0.28339692909E+02 -0.49434117266E+01 -0.36042641464E+02  0.46304642504E+02  0.41800000000E+01 0.  1.
         -5    1    3    3    0  502  0.22405328531E+02  0.78831868408E+02  0.58608616914E+02  0.10084098671E+03  0.41800000000E+01 0.  1.
        -11    1    1    2    0    0  0.28197527010E+02 -0.22886312382E+02  0.43830986213E+01  0.36579986023E+02  0.00000000000E+00 0. -1.
         11    1    1    2    0    0 -0.22263162632E+02 -0.51002144300E+02  0.12833337531E+03  0.13987967098E+03  0.00000000000E+00 0.  1.
</event>
<event>
 7    1  0.2601031E-009  0.1320086E+03  0.7561462E-02  0.1224505E+00
         -2   -1    0    0    0  501 -0.00000000000E+00  0.00000000000E+00  0.10288215967E+03  0.10288215967E+03  0.00000000000E+00 0. -1.
          2   -1    0    0  501    0  0.00000000000E+00 -0.00000000000E+00 -0.30790375212E+03  0.30790375212E+03  0.00000000000E+00 0.  1.
         25    2    1    2    0    0 -0.87835973873E+02 -0.14099514978E+02  0.17864989219E+02  0.15453299521E+03  0.12508930466E+03 0.  0.
          5    1    3    3  502    0  0.25967710898E+02 -0.28413954972E+02  0.42092394703E+01  0.38946950373E+02  0.41800000000E+01 0. -1.
         -5    1    3    3    0  502 -0.11380368477E+03  0.14314439994E+02  0.13655749749E+02  0.11558604484E+03  0.41800000000E+01 0. -1.
        -11    1    1    2    0    0  0.66524862822E+00  0.22898553627E+02 -0.11506158211E+03  0.11731987893E+03  0.00000000000E+00 0.  1.
         11    1    1    2    0    0  0.87170725245E+02 -0.87990386487E+01 -0.10782499957E+03  0.13893303766E+03  0.00000000000E+00 0. -1.
</event>
<event>
 7    1  0.2601031E-009  0.2295728E+03  0.7561462E-02  0.1126941E+00
          1   -1    0    0  501    0  0.00000000000E+00  0.00000000000E+00  0.63386404401E+03  0.63386404401E+03  0.00000000000E+00 0. -1.
         -1   -1    0    0    0  501 -0.00000000000E+00 -0.00000000000E+00 -0.87119291360E+02  0.87119291360E+02  0.00000000000E+00 0.  1.
         25    2    1    2    0    0 -0.85357413360E+02  0.18906618803E+03  0.26630090235E+03  0.35999359473E+03  0.12508919291E+03 0.  0.
          5    1    3    3  502    0 -0.59057006575E+02  0.19600720932E+03  0.26139223861E+03  0.33203905032E+03  0.41800000000E+01 0. -1.
         -5    1    3    3    0  502 -0.26300406785E+02 -0.69410212941E+01  0.49086637459E+01  0.27954544415E+02  0.41800000000E+01 0. -1.
        -11    1    1    2    0    0 -0.66152155444E+01 -0.95296833888E+02  0.12909015215E+03  0.16059114237E+03  0.00000000000E+00 0. -1.
         11    1    1    2    0    0  0.91972628905E+02 -0.93769354141E+02  0.15135369814E+03  0.20039859826E+03  0.00000000000E+00 0.  1.
</event>
<event>
 7    1  0.2736557E-009  0.1021504E+03  0.7561462E-02  0.1275838E+00
         -2   -1    0    0    0  501 -0.00000000000E+00  0.00000000000E+00  0.40820316022E+02  0.40820316022E+02  0.00000000000E+00 0.  1.
          2   -1    0    0  501    0  0.00000000000E+00 -0.00000000000E+00 -0.33658426802E+03  0.33658426802E+03  0.00000000000E+00 0. -1.
         25    2    1    2    0    0 -0.93968478850E+01 -0.84320868440E+01 -0.97851318264E+02  0.15931081084E+03  0.12508258523E+03 0.  0.
          5    1    3    3  502    0 -0.63518985304E+02 -0.12185200447E+01 -0.25528631922E+02  0.68595406063E+02  0.41800000000E+01 0.  1.
         -5    1    3    3    0  502  0.54122137419E+02 -0.72135667993E+01 -0.72322686342E+02  0.90715404780E+02  0.41800000000E+01 0.  1.
        -11    1    1    2    0    0 -0.17937967817E+02  0.40165503023E+02 -0.63061723647E+02  0.76888356152E+02  0.00000000000E+00 0.  1.
         11    1    1    2    0    0  0.27334815702E+02 -0.31733416179E+02 -0.13485091009E+03  0.14120541705E+03  0.00000000000E+00 0. -1.
</event>
<event>
 7    1  0.2601031E-009  0.9908178E+02  0.7561462E-02  0.1282239E+00
         -1   -1    0    0    0  501 -0.00000000000E+00  0.00000000000E+00  0.10485595574E+04  0.10485595574E+04  0.00000000000E+00 0.  1.
          1   -1    0    0  501    0  0.00000000000E+00 -0.00000000000E+00 -0.17812738325E+02  0.17812738325E+02  0.00000000000E+00 0. -1.
         25    2    1    2    0    0 -0.30977392860E+02 -0.76477446873E+02  0.55711754943E+03  0.57691959768E+03  0.12509140479E+03 0.  0.
          5    1    3    3  502    0  0.98096098472E+01 -0.75268504098E+01 -0.97761899328E+00  0.13088546953E+02  0.41800000000E+01 0. -1.
         -5    1    3    3    0  502 -0.40787002707E+02 -0.68950596463E+02  0.55809516842E+03  0.56383105072E+03  0.41800000000E+01 0. -1.
        -11    1    1    2    0    0  0.51373343280E+02  0.53666887099E+02  0.42872200687E+03  0.43511138154E+03  0.00000000000E+00 0.  1.
         11    1    1    2    0    0 -0.20395950421E+02  0.22810559773E+02  0.44907262810E+02  0.54341316545E+02  0.00000000000E+00 0. -1.
</event>
<event>
 7    1  0.2601031E-009  0.6404007E+02  0.7561462E-02  0.1381619E+00
          1   -1    0    0  501    0  0.00000000000E+00  0.00000000000E+00  0.13124834710E+03  0.13124834710E+03  0.00000000000E+00 0. -1.
         -1   -1    0    0    0  501 -0.00000000000E+00 -0.00000000000E+00 -0.90194204266E+02  0.90194204266E+02  0.00000000000E+00 0.  1.
         25    2    1    2    0    0  0.64887690490E+01 -0.39314068536E+01  0.29854931085E+02  0.12882902408E+03  0.12509212786E+03 0.  0.
          5    1    3    3  502    0 -0.22389265125E+02  0.27443561114E+02  0.64516781522E+02  0.73717811534E+02  0.41800000000E+01 0.  1.
         -5    1    3    3    0  502  0.28878034174E+02 -0.31374967967E+02 -0.34661850437E+02  0.55111212547E+02  0.41800000000E+01 0.  1.
        -11    1    1    2    0    0 -0.87588577507E+01  0.25973965071E+02  0.44707115748E+02  0.52441306707E+02  0.00000000000E+00 0. -1.
         11    1    1    2    0    0  0.22700887017E+01 -0.22042558218E+02 -0.33507904001E+02  0.40172220577E+02  0.00000000000E+00 0.  1.
</event>
<event>
 7    1  0.2601031E-009  0.1817294E+03  0.7561462E-02  0.1166140E+00
          2   -1    0    0  501    0  0.00000000000E+00  0.00000000000E+00  0.22846450334E+03  0.22846450334E+03  0.00000000000E+00 0. -1.
         -2   -1    0    0    0  501 -0.00000000000E+00 -0.00000000000E+00 -0.23689449567E+03  0.23689449567E+03  0.00000000000E+00 0.  1.
         25    2    1    2    0    0 -0.14412471702E+03 -0.27639528652E+02  0.13888207464E+03  0.23763540202E+03  0.12508587464E+03 0.  0.
          5    1    3    3  502    0 -0.12224586400E+03  0.33126254479E+02  0.10506504379E+03  0.16461329177E+03  0.41800000000E+01 0. -1.
         -5    1    3    3    0  502 -0.21878853018E+02 -0.60765783130E+02  0.33817030854E+02  0.73022110245E+02  0.41800000000E+01 0. -1.
        -11    1    1    2    0    0  0.52975700434E+02  0.55479247884E+02 -0.81378015488E+02  0.11183359597E+03  0.00000000000E+00 0.  1.
         11    1    1    2    0    0  0.91149016588E+02 -0.27839719232E+02 -0.65934051489E+02  0.11589000103E+03  0.00000000000E+00 0. -1.
</event>
<event>
 7    1  0.2601031E-009  0.1016731E+03  0.7561462E-02  0.1276816E+00
          3   -1    0    0  501    0  0.00000000000E+00  0.00000000000E+00  0.45547683913E+02  0.45547683913E+02  0.00000000000E+00 0. -1.
         -3   -1    0    0    0  501 -0.00000000000E+00 -0.00000000000E+00 -0.35227676849E+03  0.35227676849E+03  0.00000000000E+00 0.  1.
         25    2    1    2    0    0  0.57656286451E+02  0.30601990137E+02 -0.18575807011E+03  0.23326945351E+03  0.12509135927E+03 0.  0.
          5    1    3    3  502    0  0.27626472147E+02 -0.28426871779E+02 -0.15515406574E+03  0.16019227671E+03  0.41800000000E+01 0. -1.
         -5    1    3    3    0  502  0.30029814304E+02  0.59028861916E+02 -0.30604004377E+02  0.73077176808E+02  0.41800000000E+01 0. -1.
        -11    1    1    2    0    0 -0.13155035061E+02  0.23586501042E+02 -0.77458567018E+02  0.82031747412E+02  0.00000000000E+00 0.  1.
         11    1    1    2    0    0 -0.44501251390E+02 -0.54188491179E+02 -0.43512447445E+02  0.82523251477E+02  0.00000000000E+00 0. -1.
</event>
<event>
 7    1  0.2601031E-009  0.1292274E+03  0.7561462E-02  0.1228607E+00
         -2   -1    0    0    0  501 -0.00000000000E+00  0.00000000000E+00  0.17026690411E+02  0.17026690411E+02  0.00000000000E+00 0.  1.
          2   -1    0    0  501    0  0.00000000000E+00 -0.00000000000E+00 -0.10081285930E+04  0.10081285930E+04  0.00000000000E+00 0. -1.
         25    2    1    2    0    0  0.69274517601E+02 -0.25213857175E+02 -0.52797511966E+03  0.54757623842E+03  0.12508921824E+03 0.  0.
          5    1    3    3  502    0 -0.23908908723E+02  0.25989367822E+02 -0.87922817004E+02  0.94841854190E+02  0.41800000000E+01 0.  1.
         -5    1    3    3    0  502  0.93183426324E+02 -0.51203224997E+02 -0.44005230266E+03  0.45273438423E+03  0.41800000000E+01 0.  1.
        -11    1    1    2    0    0 -0.77801536642E+02  0.48505901968E+02 -0.37280993915E+03  0.38391815841E+03  0.00000000000E+00 0. -1.
         11    1    1    2    0    0  0.85270190418E+01 -0.23292044793E+02 -0.90316843740E+02  0.93660886541E+02  0.00000000000E+00 0.  1.
</event>
<event>
 7    1  0.2929236E-009  0.1318003E+03  0.7561462E-02  0.1224809E+00
          2   -1    0    0  501    0  0.00000000000E+00  0.00000000000E+00  0.22276872412E+03  0.22276872412E+03  0.00000000000E+00 0. -1.
         -2   -1    0    0    0  501 -0.00000000000E+00 -0.00000000000E+00 -0.99270547672E+02  0.99270547672E+02  0.00000000000E+00 0.  1.
         25    2    1    2    0    0 -0.17006187567E+02  0.99188188474E+02  0.52742576735E+02  0.16898661323E+03  0.12508872413E+03 0.  0.
          5    1    3    3  502    0 -0.70295292448E+02  0.70912123752E+02  0.29466889924E+02  0.10419082223E+03  0.41800000000E+01 0.  1.
         -5    1    3    3    0  502  0.53289104881E+02  0.28276064722E+02  0.23275686811E+02  0.64795791003E+02  0.41800000000E+01 0.  1.
        -11    1    1    2    0    0  0.91539517554E+01 -0.96145708736E+01  0.61206806805E+02  0.62629928989E+02  0.00000000000E+00 0. -1.
         11    1    1    2    0    0  0.78522358118E+01 -0.89573617601E+02  0.95487929112E+01  0.90422729573E+02  0.00000000000E+00 0.  1.
</event>
<event>
 7    1  0.2601031E-009  0.1156357E+03  0.7561462E-02  0.1250475E+00
          2   -1    0    0  501    0  0.00000000000E+00  0.00000000000E+00  0.44491284627E+03  0.44491284627E+03  0.00000000000E+00 0. -1.
         -2   -1    0    0    0  501 -0.00000000000E+00 -0.00000000000E+00 -0.31571608356E+02  0.31571608356E+02  0.00000000000E+00 0.  1.
         25    2    1    2    0    0 -0.26587534094E+02  0.42004629385E+02  0.22703683779E+03  0.26394026414E+03  0.12508977361E+03 0.  0.
          5    1    3    3  502    0 -0.14090434262E+02  0.84878438790E+02  0.17630373794E+03  0.19622275638E+03  0.41800000000E+01 0. -1.
         -5    1    3    3    0  502 -0.12497099832E+02 -0.42873809404E+02  0.50733099854E+02  0.67717507764E+02  0.41800000000E+01 0. -1.
        -11    1    1    2    0    0 -0.27067985212E+02  0.66205959567E+01  0.72336420165E+02  0.77518164300E+02  0.00000000000E+00 0.  1.
         11    1    1    2    0    0  0.53655519306E+02 -0.48625225342E+02  0.11396797996E+03  0.13502602618E+03  0.00000000000E+00 0. -1.
</event>
<event>
 7    1  0.2601031E-009  0.6789920E+02  0.7561462E-02  0.1367386E+00
          3   -1    0    0  501    0  0.00000000000E+00  0.00000000000E+00  0.23903558109E+02  0.23903558109E+02  0.00000000000E+00 0. -1.
         -3   -1    0    0    0  501 -0.00000000000E+00 -0.00000000000E+00 -0.98224936399E+03  0.98224936399E+03  0.00000000000E+00 0.  1.
         25    2    1    2    0    0 -0.88450071550E+01  0.64481963571E+02 -0.79203560240E+03  0.80449031442E+03  0.12509241683E+03 0.  0.
          5    1    3    3  502    0  0.32378364578E+01  0.33641829744E+02 -0.75017214563E+03  0.75094472284E+03  0.41800000000E+01 0.  1.
         -5    1    3    3    0  502 -0.12082843613E+02  0.30840133827E+02 -0.41863456776E+02  0.53545591579E+02  0.41800000000E+01 0.  1.
        -11    1    1    2    0    0 -0.23841169023E+01 -0.49884517971E+02 -0.17450073687E+03  0.18150662885E+03  0.00000000000E+00 0.  1.
         11    1    1    2    0    0  0.11229124057E+02 -0.14597445600E+02  0.81905333961E+01  0.20155978826E+02  0.00000000000E+00 0. -1.
</event>
<event>
 7    1  0.2601031E-009  0.1815215E+03  0.7561462E-02  0.1166339E+00
         -1   -1    0    0    0  501 -0.00000000000E+00  0.00000000000E+00  0.58317554802E+02  0.58317554802E+02  0.00000000000E+00 0.  1.
          1   -1    0    0  501    0  0.00000000000E+00 -0.00000000000E+00 -0.59530532758E+03  0.59530532758E+03  0.00000000000E+00 0. -1.
         25    2    1    2    0    0 -0.13894891898E+03 -0.54785138692E+02 -0.31873751257E+03  0.37356338700E+03  0.12509112151E+03 0.  0.
          5    1    3    3  502    0  0.25378365953E+00  0.29928565094E+02 -0.34178209023E+02  0.45622426358E+02  0.41800000000E+01 0.  1.
         -5    1    3    3    0  502 -0.13920270264E+03 -0.84713703786E+02 -0.28455930355E+03  0.32794096064E+03  0.41800000000E+01 0.  1.
        -11    1    1    2    0    0  0.12130605725E+03  0.10043190077E+02 -0.18551040671E+03  0.22187865195E+03  0.00000000000E+00 0. -1.
         11    1    1    2    0    0  0.17642861723E+02  0.44741948615E+02 -0.32739853496E+02  0.58180843433E+02  0.00000000000E+00 0.  1.
</event>
<event>
 7    1  0.2601031E-009  0.1855030E+03  0.7561462E-02  0.1162581E+00
         -1   -1    0    0    0  501 -0.00000000000E+00  0.00000000000E+00  0.13354001413E+03  0.13354001413E+03  0.00000000000E+00 0.  1.
          1   -1    0    0  501    0  0.00000000000E+00 -0.00000000000E+00 -0.33887637012E+03  0.33887637012E+03  0.00000000000E+00 0. -1.
         25    2    1    2    0    0  0.14939586730E+03 -0.74728934546E+02 -0.19026023064E+03  0.28240020223E+03  0.12508948810E+03 0.  0.
          5    1    3    3  502    0 -0.54991401883E+01 -0.16558922458E+02  0.11597154621E+02  0.21363633845E+02  0.41800000000E+01 0. -1.
         -5    1    3    3    0  502  0.15489500748E+03 -0.58170012088E+02 -0.20185738526E+03  0.26103656838E+03  0.41800000000E+01 0. -1.
        -11    1    1    2    0    0 -0.90284086617E+02 -0.24759404690E+01  0.60192769251E+01  0.90518386376E+02  0.00000000000E+00 0.  1.
         11    1    1    2    0    0 -0.59111780679E+02  0.77204875015E+02 -0.21095402272E+02  0.99497795644E+02  0.00000000000E+00 0. -1.
</event>
<event>
 7    1  0.2601031E-009  0.1351290E+03  0.7561462E-02  0.1220038E+00
          1   -1    0    0  501    0  0.00000000000E+00  0.00000000000E+00  0.49185661532E+03  0.49185661532E+03  0.00000000000E+00 0. -1.
         -1   -1    0    0    0  501 -0.00000000000E+00 -0.00000000000E+00 -0.45952485502E+02  0.45952485502E+02  0.00000000000E+00 0.  1.
         25    2    1    2    0    0 -0.31820499628E+02  0.99130510545E+02  0.23087843238E+03  0.28247337068E+03  0.12508777833E+03 0.  0.
          5    1    3    3  502    0 -0.98464117194E+01 -0.29916701262E+02  0.45786897001E+02  0.55730361341E+02  0.41800000000E+01 0.  1.
         -5    1    3    3    0  502 -0.21974087909E+02  0.12904721181E+03  0.18509153538E+03  0.22674300934E+03  0.41800000000E+01 0.  1.
        -11    1    1    2    0    0  0.13922527422E+02 -0.80443818382E+02  0.68581111087E+02  0.10662276250E+03  0.00000000000E+00 0.  1.
         11    1    1    2    0    0  0.17897972206E+02 -0.18686692163E+02  0.14644458635E+03  0.14871296764E+03  0.00000000000E+00 0. -1.
</event>
<event>
 7    1  0.2601031E-009  0.1515029E+03  0.7561462E-02  0.1198638E+00
          1   -1    0    0  501    0  0.00000000000E+00  0.00000000000E+00  0.12099146467E+04  0.12099146467E+04  0.00000000000E+00 0. -1.
         -1   -1    0    0    0  501 -0.00000000000E+00 -0.00000000000E+00 -0.37652670912E+02  0.37652670912E+02  0.00000000000E+00 0.  1.
         25    2    1    2    0    0  0.59608068765E+02 -0.10868439547E+03  0.10036538658E+04  0.10189872377E+04  0.12509391934E+03 0.  0.
          5    1    3    3  502    0  0.16689364408E+02 -0.11883261242E+03  0.53826500745E+03  0.55149471013E+03  0.41800000000E+01 0.  1.
         -5    1    3    3    0  502  0.42918704357E+02  0.10148216949E+02  0.46538885831E+03  0.46749252757E+03  0.41800000000E+01 0.  1.
        -11    1    1    2    0    0 -0.47877794538E+02  0.24773284909E+02  0.19965809189E+02  0.57485932118E+02  0.00000000000E+00 0.  1.
         11    1    1    2    0    0 -0.11730274228E+02  0.83911110561E+02  0.14864230079E+03  0.17109414775E+03  0.00000000000E+00 0. -1.
</event>
<event>
 7    1  0.2601031E-009  0.1969868E+03  0.7561462E-02  0.1152306E+00
         -2   -1    0    0    0  501 -0.00000000000E+00  0.00000000000E+00  0.11432999461E+03  0.11432999461E+03  0.00000000000E+00 0.  1.
          2   -1    0    0  501    0  0.00000000000E+00 -0.00000000000E+00 -0.58730774899E+03  0.58730774899E+03  0.00000000000E+00 0. -1.
         25    2    1    2    0    0  0.12518523949E+03  0.13805611318E+03 -0.43495207711E+03  0.48945113174E+03  0.12509303100E+03 0.  0.
          5    1    3    3  502    0  0.87199939537E+02  0.48898894411E+02 -0.10293810894E+03  0.14355715935E+03  0.41800000000E+01 0. -1.
         -5    1    3    3    0  502  0.37985299953E+02  0.89157218774E+02 -0.33201396817E+03  0.34589397238E+03  0.41800000000E+01 0. -1.
        -11    1    1    2    0    0 -0.10247050512E+03 -0.67294558533E+02 -0.57430117484E+02  0.13537717836E+03  0.00000000000E+00 0. -1.
         11    1    1    2    0    0 -0.22714734372E+02 -0.70761554652E+02  0.19404440210E+02  0.76809433498E+02  0.00000000000E+00 0.  1.
</event>
<event>
 7    1  0.2601031E-009  0.8886178E+02  0.7561462E-02  0.1305632E+00
         -1   -1    0    0    0  501 -0.00000000000E+00  0.00000000000E+00  0.16609307385E+02  0.16609307385E+02  0.00000000000E+00 0.  1.
          1   -1    0    0  501    0  0.00000000000E+00 -0.00000000000E+00 -0.99674239593E+03  0.99674239593E+03  0.00000000000E+00 0. -1.
         25    2    1    2    0    0 -0.59283465591E+02  0.18352441995E+02 -0.65938069382E+03  0.67400334500E+03  0.12508504413E+03 0.  0.
          5    1    3    3  502    0 -0.33977004239E+02 -0.16184836952E+02 -0.48127615097E+02  0.61238268257E+02  0.41800000000E+01 0.  1.
         -5    1    3    3    0  502 -0.25306461352E+02  0.34537278947E+02 -0.61125307873E+03  0.61276507674E+03  0.41800000000E+01 0.  1.
        -11    1    1    2    0    0  0.32203405806E+02  0.28315494996E+02 -0.64339374918E+02  0.77319995908E+02  0.00000000000E+00 0.  1.
         11    1    1    2    0    0  0.27080059785E+02 -0.46667936991E+02 -0.25641301980E+03  0.26202836240E+03  0.00000000000E+00 0. -1.
</event>
<event>
 7    1  0.2601031E-009  0.9938077E+02  0.7561462E-02  0.1281604E+00
          1   -1    0    0  501    0  0.00000000000E+00  0.00000000000E+00  0.21697143440E+02  0.21697143440E+02  0.00000000000E+00 0. -1.
         -1   -1    0    0    0  501 -0.00000000000E+00 -0.00000000000E+00 -0.68763107592E+03  0.68763107592E+03  0.00000000000E+00 0.  1.
         25    2    1    2    0    0  0.10166145847E+02 -0.52095542136E+02 -0.32812521053E+03  0.35514776885E+03  0.12508592208E+03 0.  0.
          5    1    3    3  502    0  0.83226547711E+01  0.24300942234E+02 -0.98920239738E+01  0.27841101167E+02  0.41800000000E+01 0.  1.
         -5    1    3    3    0  502  0.18434910757E+01 -0.76396484370E+02 -0.31823318656E+03  0.32730666769E+03  0.41800000000E+01 0.  1.
        -11    1    1    2    0    0  0.25319678924E+02  0.55051852269E+02 -0.27839313126E+03  0.28491143907E+03  0.00000000000E+00 0.  1.
         11    1    1    2    0    0 -0.35485824770E+02 -0.29563101327E+01 -0.59415590688E+02  0.69269011441E+02  0.00000000000E+00 0. -1.
</event>
<event>
 7    1  0.2601031E-009  0.9060854E+02  0.7561462E-02  0.1301385E+00
          1   -1    0    0  501    0  0.00000000000E+00  0.00000000000E+00  0.69715533029E+02  0.69715533029E+02  0.00000000000E+00 0. -1.
         -1   -1    0    0    0  501 -0.00000000000E+00 -0.00000000000E+00 -0.21125341690E+03  0.21125341690E+03  0.00000000000E+00 0.  1.
         25    2    1    2    0    0 -0.11411163235E+02 -0.53079747602E+02 -0.77712352101E+02  0.15694794117E+03  0.12508306168E+03 0.  0.
          5    1    3    3  502    0 -0.71733793131E+01  0.94847989051E+01 -0.91700652868E+02  0.92562956508E+02  0.41800000000E+01 0.  1.
         -5    1    3    3    0  502 -0.42377839223E+01 -0.62564546507E+02  0.13988300767E+02  0.64384984667E+02  0.41800000000E+01 0.  1.
        -11    1    1    2    0    0  0.40081598548E+01 -0.26016212884E+02 -0.10492809091E+02  0.28337390862E+02  0.00000000000E+00 0. -1.
         11    1    1    2    0    0  0.74030033805E+01  0.79095960486E+02 -0.53332722676E+02  0.95683617889E+02  0.00000000000E+00 0.  1.
</event>
<event>
 7    1  0.2601031E-009  0.1552239E+03  0.7561462E-02  0.1194197E+00
         -1   -1    0    0    0  501 -0.00000000000E+00  0.00000000000E+00  0.23735587803E+03  0.23735587803E+03  0.00000000000E+00 0.  1.
          1   -1    0    0  501    0  0.00000000000E+00 -0.00000000000E+00 -0.14363786505E+03  0.14363786505E+03  0.00000000000E+00 0. -1.
         25    2    1    2    0    0 -0.11202934574E+03 -0.32952890362E+02  0.14589250075E+03  0.22487766041E+03  0.12509545590E+03 0.  0.
          5    1    3    3  502    0 -0.10425350914E+03 -0.70531213196E+02  0.82171513651E+02  0.15037644848E+03  0.41800000000E+01 0.  1.
         -5    1    3    3    0  502 -0.77758366044E+01  0.37578322834E+02  0.63720987100E+02  0.74501211929E+02  0.41800000000E+01 0.  1.
        -11    1    1    2    0    0  0.25822056452E+02  0.51604414525E+02 -0.10859159138E+02  0.58717250745E+02  0.00000000000E+00 0. -1.
         11    1    1    2    0    0  0.86207289293E+02 -0.18651524163E+02 -0.41315328628E+02  0.97398831925E+02  0.00000000000E+00 0.  1.
</event>
<event>
 7    1  0.2601031E-009  0.5071993E+02  0.7561462E-02  0.1441497E+00
         -1   -1    0    0    0  501 -0.00000000000E+00  0.00000000000E+00  0.14054852582E+03  0.14054852582E+03  0.00000000000E+00 0.  1.
          1   -1    0    0  501    0  0.00000000000E+00 -0.00000000000E+00 -0.10638698325E+03  0.10638698325E+03  0.00000000000E+00 0. -1.
         25    2    1    2    0    0 -0.14789209378E+02 -0.14102830815E+02  0.70766006255E+02  0.14516414863E+03  0.12508873593E+03 0.  0.
          5    1    3    3  502    0 -0.24512928221E+02  0.14567573734E+02  0.99272626596E+02  0.10337129508E+03  0.41800000000E+01 0. -1.
         -5    1    3    3    0  502  0.97237188434E+01 -0.28670404550E+02 -0.28506620341E+02  0.41792853557E+02  0.41800000000E+01 0. -1.
        -11    1    1    2    0    0  0.17795362652E+01  0.25015097594E+02 -0.64449807315E+02  0.69157064136E+02  0.00000000000E+00 0. -1.
         11    1    1    2    0    0  0.13009673112E+02 -0.10912266778E+02  0.27845343631E+02  0.32614296292E+02  0.00000000000E+00 0.  1.
</event>
<event>
 7    1  0.2601031E-009  0.1036356E+03  0.7561462E-02  0.1272831E+00
         -1   -1    0    0    0  501 -0.00000000000E+00  0.00000000000E+00  0.26426580236E+03  0.26426580236E+03  0.00000000000E+00 0.  1.
          1   -1    0    0  501    0  0.00000000000E+00 -0.00000000000E+00 -0.14813463424E+03  0.14813463424E+03  0.00000000000E+00 0. -1.
         25    2    1    2    0    0  0.70779188162E+02 -0.50344854796E+01  0.21530772487E+03  0.25891942676E+03  0.12508722415E+03 0.  0.
          5    1    3    3  502    0  0.95442555471E+02 -0.27533146769E+02  0.10955100028E+03  0.14794002037E+03  0.41800000000E+01 0. -1.
         -5    1    3    3    0  502 -0.24663367309E+02  0.22498661289E+02  0.10575672459E+03  0.11097940639E+03  0.41800000000E+01 0. -1.
        -11    1    1    2    0    0 -0.39535016462E+02 -0.80238253535E+01  0.79611346480E+01  0.41119082734E+02  0.00000000000E+00 0.  1.
         11    1    1    2    0    0 -0.31244171700E+02  0.13058310833E+02 -0.10713769139E+03  0.11236192710E+03  0.00000000000E+00 0. -1.
</event>
<event>
 7    1  0.2601031E-009  0.2701118E+03  0.7561462E-02  0.1101216E+00
         -3   -1    0    0    0  501 -0.00000000000E+00  0.00000000000E+00  0.11318404287E+03  0.11318404287E+03  0.00000000000E+00 0.  1.
          3   -1    0    0  501    0  0.00000000000E+00 -0.00000000000E+00 -0.75648568822E+03  0.75648568822E+03  0.00000000000E+00 0. -1.
         25    2    1    2    0    0 -0.23774183665E+03  0.89114268066E+02 -0.18646509286E+03  0.33893883573E+03  0.12509104622E+03 0.  0.
          5    1    3    3  502    0 -0.21309005836E+03  0.36553986686E+02 -0.17808439343E+03  0.28013405808E+03  0.41800000000E+01 0. -1.
         -5    1    3    3    0  502 -0.24651778291E+02  0.52560281380E+02 -0.83806994334E+01  0.58804777652E+02  0.41800000000E+01 0. -1.
        -11    1    1    2    0    0  0.11621255515E+03 -0.85352155189E+02 -0.29455903793E+03  0.32795636172E+03  0.00000000000E+00 0.  1.
         11    1    1    2    0    0  0.12152928150E+03 -0.37621128769E+01 -0.16227751457E+03  0.20277453363E+03  0.00000000000E+00 0. -1.
</event>
<event>
 7    1  0.2601031E-009  0.1317086E+03  0.7561462E-02  0.1224942E+00
          2   -1    0    0  501    0  0.00000000000E+00  0.00000000000E+00  0.18436969259E+03  0.18436969259E+03  0.00000000000E+00 0.  1.
         -2   -1    0    0    0  501 -0.00000000000E+00 -0.00000000000E+00 -0.13252660380E+03  0.13252660380E+03  0.00000000000E+00 0. -1.
         25    2    1    2    0    0  0.40901727231E+02  0.83294604868E+02  0.87979433338E+02  0.17888363187E+03  0.12509208836E+03 0.  0.
          5    1    3    3  502    0  0.27333954936E+02  0.10797590287E+03  0.31811771413E+02  0.11591118105E+03  0.41800000000E+01 0.  1.
         -5    1    3    3    0  502  0.13567772295E+02 -0.24681297999E+02  0.56167661925E+02  0.62972450819E+02  0.41800000000E+01 0.  1.
        -11    1    1    2    0    0 -0.41655945721E+01  0.16565256387E+02  0.12355354520E+02  0.21081145192E+02  0.00000000000E+00 0.  1.
         11    1    1    2    0    0 -0.36736132659E+02 -0.99859861255E+02 -0.48491699071E+02  0.11693151932E+03  0.00000000000E+00 0. -1.
</event>
<event>
 7    1  0.2601031E-009  0.1727840E+03  0.7561462E-02  0.1174975E+00
         -2   -1    0    0    0  501 -0.00000000000E+00  0.00000000000E+00  0.39309742619E+02  0.39309742619E+02  0.00000000000E+00 0.  1.
          2   -1    0    0  501    0  0.00000000000E+00 -0.00000000000E+00 -0.80900599377E+03  0.80900599377E+03  0.00000000000E+00 0. -1.
         25    2    1    2    0    0 -0.20323468547E+02 -0.11468089362E+03 -0.47386764894E+03  0.50375036369E+03  0.12509648064E+03 0.  0.
          5    1    3    3  502    0  0.49473468538E+02 -0.23565710088E+02 -0.12760743049E+03  0.13893917913E+03  0.41800000000E+01 0. -1.
         -5    1    3    3    0  502 -0.69796937085E+02 -0.91115183529E+02 -0.34626021846E+03  0.36481118456E+03  0.41800000000E+01 0. -1.
        -11    1    1    2    0    0  0.72706473798E+02  0.95379691365E+02 -0.18505045619E+03  0.22051573230E+03  0.00000000000E+00 0. -1.
         11    1    1    2    0    0 -0.52383005251E+02  0.19301202253E+02 -0.11077814601E+03  0.12404964039E+03  0.00000000000E+00 0.  1.
</event>
<event>
 7    1  0.2601031E-009  0.1338538E+03  0.7561462E-02  0.1221847E+00
          2   -1    0    0  501    0  0.00000000000E+00  0.00000000000E+00  0.20453847816E+03  0.20453847816E+03  0.00000000000E+00 0. -1.
         -2   -1    0    0    0  501 -0.00000000000E+00 -0.00000000000E+00 -0.14555957217E+03  0.14555957217E+03  0.00000000000E+00 0.  1.
         25    2    1    2    0    0  0.14265923767E+01  0.10569888388E+03  0.11060972946E+03  0.19762646678E+03  0.12508964346E+03 0.  0.
          5    1    3    3  502    0 -0.53575484158E+02  0.75960620400E+02  0.34974289344E+02  0.99403328261E+02  0.41800000000E+01 0.  1.
         -5    1    3    3    0  502  0.55002076535E+02  0.29738263479E+02  0.75635440120E+02  0.98223138517E+02  0.41800000000E+01 0.  1.
        -11    1    1    2    0    0 -0.13030898303E+02 -0.95970818424E+02 -0.76456063385E+02  0.12339259268E+03  0.00000000000E+00 0.  1.
         11    1    1    2    0    0  0.11604305927E+02 -0.97280654541E+01  0.24825239908E+02  0.29078990870E+02  0.00000000000E+00 0. -1.
</event>
<event>
 7    1  0.2601031E-009  0.6865096E+02  0.7561462E-02  0.1364742E+00
          1   -1    0    0  501    0  0.00000000000E+00  0.00000000000E+00  0.12401155606E+03  0.12401155606E+03  0.00000000000E+00 0. -1.
         -1   -1    0    0    0  501 -0.00000000000E+00 -0.00000000000E+00 -0.14146309762E+03  0.14146309762E+03  0.00000000000E+00 0.  1.
         25    2    1    2    0    0  0.25865548009E+02 -0.40135841632E+02 -0.69351130894E+02  0.15078276026E+03  0.12508376825E+03 0.  0.
          5    1    3    3  502    0  0.21804674722E+02  0.12319851297E+02  0.29379190441E+02  0.38830810018E+02  0.41800000000E+01 0.  1.
         -5    1    3    3    0  502  0.40608732868E+01 -0.52455692929E+02 -0.98730321334E+02  0.11195195024E+03  0.41800000000E+01 0.  1.
        -11    1    1    2    0    0 -0.11689755369E+02  0.43094115514E+02  0.75083347699E+02  0.87357096302E+02  0.00000000000E+00 0. -1.
         11    1    1    2    0    0 -0.14175792640E+02 -0.29582738818E+01 -0.23183758365E+02  0.27334797114E+02  0.00000000000E+00 0.  1.
</event>
<event>
 7    1  0.2601031E-009  0.1235474E+03  0.7561462E-02  0.1237357E+00
         -2   -1    0    0    0  501 -0.00000000000E+00  0.00000000000E+00  0.52912982223E+02  0.52912982223E+02  0.00000000000E+00 0.  1.
          2   -1    0    0  501    0  0.00000000000E+00 -0.00000000000E+00 -0.42098455262E+03  0.42098455262E+03  0.00000000000E+00 0. -1.
         25    2    1    2    0    0  0.91472197563E+02 -0.40417632237E+00 -0.12603685732E+03  0.19974957153E+03  0.12508907082E+03 0.  0.
          5    1    3    3  502    0  0.86361138859E+02 -0.53057899060E+02 -0.75356213637E+02  0.12637016377E+03  0.41800000000E+01 0.  1.
         -5    1    3    3    0  502  0.51110587045E+01  0.52653722737E+02 -0.50680643682E+02  0.73379407760E+02  0.41800000000E+01 0.  1.
        -11    1    1    2    0    0 -0.54044503963E+02  0.72744064401E+01 -0.37687327495E+02  0.66287706638E+02  0.00000000000E+00 0.  1.
         11    1    1    2    0    0 -0.37427693600E+02 -0.68702301178E+01 -0.20434738558E+03  0.20786025667E+03  0.00000000000E+00 0. -1.
</event>
<event>
 7    1  0.2601031E-009  0.9326938E+02  0.7561462E-02  0.1295122E+00
         -1   -1    0    0    0  501 -0.00000000000E+00  0.00000000000E+00  0.27853574643E+03  0.27853574643E+03  0.00000000000E+00 0.  1.
          1   -1    0    0  501    0  0.00000000000E+00 -0.00000000000E+00 -0.42730295177E+02  0.42730295177E+02  0.00000000000E+00 0. -1.
         25    2    1    2    0    0  0.15646738370E+02  0.10953793660E+02  0.11977974104E+03  0.17424168858E+03  0.12509266029E+03 0.  0.
          5    1    3    3  502    0  0.68922625414E+02  0.12761258173E+02  0.85873330592E+02  0.11092736052E+03  0.41800000000E+01 0.  1.
         -5    1    3    3    0  502 -0.53275887045E+02 -0.18074645129E+01  0.33906410446E+02  0.63314328060E+02  0.41800000000E+01 0.  1.
        -11    1    1    2    0    0 -0.37327284409E+02  0.23702616530E+01  0.11567801558E+03  0.12157445287E+03  0.00000000000E+00 0.  1.
         11    1    1    2    0    0  0.21680546039E+02 -0.13324055313E+02  0.34769463170E+00  0.25449900159E+02  0.00000000000E+00 0. -1.
</event>
<event>
 7    1  0.2601031E-009  0.4697617E+02  0.7561462E-02  0.1462369E+00
          1   -1    0    0  501    0  0.00000000000E+00  0.00000000000E+00  0.15151719451E+03  0.15151719451E+03  0.00000000000E+00 0. -1.
         -1   -1    0    0    0  501 -0.00000000000E+00 -0.00000000000E+00 -0.96943916242E+02  0.96943916242E+02  0.00000000000E+00 0.  1.
         25    2    1    2    0    0 -0.55644147964E+01  0.27262374363E+01 -0.24097986663E+02  0.12754034902E+03  0.12508969816E+03 0.  0.
          5    1    3    3  502    0 -0.27462909834E+02 -0.10113108383E+02 -0.69404895376E+02  0.75438705449E+02  0.41800000000E+01 0.  1.
         -5    1    3    3    0  502  0.21898495038E+02  0.12839345819E+02  0.45306908713E+02  0.52101643574E+02  0.41800000000E+01 0.  1.
        -11    1    1    2    0    0 -0.14975125002E+02 -0.86400423312E+01 -0.16187264182E+02  0.23684007727E+02  0.00000000000E+00 0.  1.
         11    1    1    2    0    0  0.20539539798E+02  0.59138048949E+01  0.94858529116E+02  0.97236754006E+02  0.00000000000E+00 0. -1.
</event>
<event>
 7    1  0.2601031E-009  0.9825773E+02  0.7561462E-02  0.1284003E+00
         -2   -1    0    0    0  501 -0.00000000000E+00  0.00000000000E+00  0.20537572902E+02  0.20537572902E+02  0.00000000000E+00 0.  1.
          2   -1    0    0  501    0  0.00000000000E+00 -0.00000000000E+00 -0.64745796083E+03  0.64745796083E+03  0.00000000000E+00 0. -1.
         25    2    1    2    0    0  0.62877108861E+02 -0.70964521589E+01 -0.41863053482E+03  0.44147800797E+03  0.12508963343E+03 0.  0.
          5    1    3    3  502    0  0.68680108692E+02  0.38766099360E+02 -0.15681323912E+03  0.17557799450E+03  0.41800000000E+01 0.  1.
         -5    1    3    3    0  502 -0.58029998308E+01 -0.45862551519E+02 -0.26181729569E+03  0.26590001347E+03  0.41800000000E+01 0.  1.
        -11    1    1    2    0    0 -0.62211449463E+01  0.12748297511E+02 -0.44376686458E+01  0.14863197398E+02  0.00000000000E+00 0.  1.
         11    1    1    2    0    0 -0.56655963915E+02 -0.56518453519E+01 -0.20385218447E+03  0.21165432836E+03  0.00000000000E+00 0. -1.
</event>
<event>
 7    1  0.2601031E-009  0.9571094E+02  0.7561462E-02  0.1289583E+00
         -1   -1    0    0    0  501 -0.00000000000E+00  0.00000000000E+00  0.11260539333E+03  0.11260539333E+03  0.00000000000E+00 0.  1.
          1   -1    0    0  501    0  0.00000000000E+00 -0.00000000000E+00 -0.11903345084E+03  0.11903345084E+03  0.00000000000E+00 0. -1.
         25    2    1    2    0    0 -0.18316276024E+02 -0.31416364602E+00 -0.40655415133E+02  0.13279722391E+03  0.12508659094E+03 0.  0.
          5    1    3    3  502    0  0.40898448836E+02 -0.97759174518E+01 -0.56573750158E+02  0.70613832116E+02  0.41800000000E+01 0. -1.
         -5    1    3    3    0  502 -0.59214724861E+02  0.94617538058E+01  0.15918335024E+02  0.62183391797E+02  0.41800000000E+01 0. -1.
        -11    1    1    2    0    0  0.57749193979E+01  0.43602977846E+02  0.31494350643E+01  0.44096352597E+02  0.00000000000E+00 0. -1.
         11    1    1    2    0    0  0.12541356626E+02 -0.43288814200E+02  0.31077922560E+02  0.54745267663E+02  0.00000000000E+00 0.  1.
</event>
<event>
 7    1  0.2601031E-009  0.1407030E+03  0.7561462E-02  0.1212386E+00
          3   -1    0    0  501    0  0.00000000000E+00  0.00000000000E+00  0.11830794338E+04  0.11830794338E+04  0.00000000000E+00 0.  1.
         -3   -1    0    0    0  501 -0.00000000000E+00 -0.00000000000E+00 -0.20130192317E+02  0.20130192317E+02  0.00000000000E+00 0. -1.
         25    2    1    2    0    0  0.99351771908E+02 -0.14260458863E+01  0.78328169074E+03  0.79940541490E+03  0.12508398035E+03 0.  0.
          5    1    3    3  502    0  0.82695895014E+02  0.48442255555E+02  0.34940894133E+03  0.36233871426E+03  0.41800000000E+01 0. -1.
         -5    1    3    3    0  502  0.16655876894E+02 -0.49868301441E+02  0.43387274941E+03  0.43706670064E+03  0.41800000000E+01 0.  1.
        -11    1    1    2    0    0 -0.32088400199E+02 -0.41860850139E+02  0.20526879931E+03  0.21193696273E+03  0.00000000000E+00 0.  1.
         11    1    1    2    0    0 -0.67263371709E+02  0.43286896025E+02  0.17439875149E+03  0.19186724854E+03  0.00000000000E+00 0. -1.
</event>
<event>
 7    1  0.2601031E-009  0.2046929E+03  0.7561462E-02  0.1145839E+00
         -1   -1    0    0    0  501 -0.00000000000E+00  0.00000000000E+00  0.90968535137E+02  0.90968535137E+02  0.00000000000E+00 0.  1.
          1   -1    0    0  501    0  0.00000000000E+00 -0.00000000000E+00 -0.67165052071E+03  0.67165052071E+03  0.00000000000E+00 0. -1.
         25    2    1    2    0    0 -0.53933724961E+02  0.17347112347E+03 -0.10285421176E+03  0.24336703305E+03  0.12508975392E+03 0.  0.
          5    1    3    3  502    0  0.31305229508E+02  0.49249831426E+02 -0.66030610620E+02  0.88221750316E+02  0.41800000000E+01 0.  1.
         -5    1    3    3    0  502 -0.85238954469E+02  0.12422129204E+03 -0.36823601139E+02  0.15514528274E+03  0.41800000000E+01 0.  1.
        -11    1    1    2    0    0  0.12984666497E+02 -0.15448666124E+03 -0.32836982996E+03  0.36312735409E+03  0.00000000000E+00 0. -1.
         11    1    1    2    0    0  0.40949058464E+02 -0.18984462229E+02 -0.14945794386E+03  0.15612466870E+03  0.00000000000E+00 0.  1.
</event>
<event>
 7    1  0.2601031E-009  0.1261393E+03  0.7561462E-02  0.1233299E+00
          2   -1    0    0  501    0  0.00000000000E+00  0.00000000000E+00  0.17781144411E+03  0.17781144411E+03  0.00000000000E+00 0. -1.
         -2   -1    0    0    0  501 -0.00000000000E+00 -0.00000000000E+00 -0.15179027304E+03  0.15179027304E+03  0.00000000000E+00 0.  1.
         25    2    1    2    0    0  0.35992024948E+01 -0.11447780001E+03 -0.30357489685E+02  0.17230379520E+03  0.12509556230E+03 0.  0.
          5    1    3    3  502    0  0.23402210952E+02 -0.69371403094E+02 -0.75575101674E+02  0.10530490700E+03  0.41800000000E+01 0.  1.
         -5    1    3    3    0  502 -0.19803008457E+02 -0.45106396912E+02  0.45217611989E+02  0.66998888202E+02  0.41800000000E+01 0.  1.
        -11    1    1    2    0    0 -0.28462811155E+02  0.90864487045E+02  0.47715251519E+01  0.95337579564E+02  0.00000000000E+00 0. -1.
         11    1    1    2    0    0  0.24863608661E+02  0.23613312961E+02  0.51607135595E+02  0.61960342389E+02  0.00000000000E+00 0.  1.
</event>
<event>
 7    1  0.2754576E-009  0.8273304E+02  0.7561462E-02  0.1321470E+00
         -1   -1    0    0    0  501 -0.00000000000E+00  0.00000000000E+00  0.19570268013E+02  0.19570268013E+02  0.00000000000E+00 0.  1.
          1   -1    0    0  501    0  0.00000000000E+00 -0.00000000000E+00 -0.82399248651E+03  0.82399248651E+03  0.00000000000E+00 0. -1.
         25    2    1    2    0    0 -0.24226991880E+02  0.58080416868E+02 -0.49636982119E+03  0.51574038128E+03  0.12507941292E+03 0.  0.
          5    1    3    3  502    0 -0.22832506870E+02  0.33940380887E+02 -0.48812439803E+03  0.48985321595E+03  0.41800000000E+01 0. -1.
         -5    1    3    3    0  502 -0.13944850101E+01  0.24140035981E+02 -0.82454231554E+01  0.25887165326E+02  0.41800000000E+01 0. -1.
        -11    1    1    2    0    0 -0.28223384606E+02 -0.25678531166E+02 -0.52273996731E+02  0.64718754126E+02  0.00000000000E+00 0. -1.
         11    1    1    2    0    0  0.52450376486E+02 -0.32401885702E+02 -0.25577840058E+03  0.26310361912E+03  0.00000000000E+00 0.  1.
</event>
<event>
 7    1  0.2601031E-009  0.1113410E+03  0.7561462E-02  0.1258106E+00
          2   -1    0    0  501    0  0.00000000000E+00  0.00000000000E+00  0.32294039248E+03  0.32294039248E+03  0.00000000000E+00 0. -1.
         -2   -1    0    0    0  501 -0.00000000000E+00 -0.00000000000E+00 -0.57738076272E+02  0.57738076272E+02  0.00000000000E+00 0.  1.
         25    2    1    2    0    0  0.15901422177E+00  0.52303438892E+02  0.24892978931E+03  0.28345862258E+03  0.12508827165E+03 0.  0.
          5    1    3    3  502    0  0.53535487057E+02  0.60981128656E+02  0.15431923820E+03  0.17440368719E+03  0.41800000000E+01 0.  1.
         -5    1    3    3    0  502 -0.53376472836E+02 -0.86776897640E+01  0.94610551110E+02  0.10905493539E+03  0.41800000000E+01 0.  1.
        -11    1    1    2    0    0 -0.34230905368E+02 -0.35071816905E+02 -0.11088733784E+02  0.50246862990E+02  0.00000000000E+00 0. -1.
         11    1    1    2    0    0  0.34071891146E+02 -0.17231621986E+02  0.27361260677E+02  0.46972983176E+02  0.00000000000E+00 0.  1.
</event>
<event>
 7    1  0.2601031E-009  0.1452383E+03  0.7561462E-02  0.1206449E+00
          2   -1    0    0  501    0  0.00000000000E+00  0.00000000000E+00  0.68238523428E+02  0.68238523428E+02  0.00000000000E+00 0. -1.
         -2   -1    0    0    0  501 -0.00000000000E+00 -0.00000000000E+00 -0.34247424129E+03  0.34247424129E+03  0.00000000000E+00 0.  1.
         25    2    1    2    0    0  0.98321547457E+02  0.35587848083E+02 -0.11485272544E+03  0.19942922104E+03  0.12508894451E+03 0.  0.
          5    1    3    3  502    0  0.39271502655E+02  0.72117637832E+02 -0.25287492917E+02  0.86024033301E+02  0.41800000000E+01 0.  1.
         -5    1    3    3    0  502  0.59050044802E+02 -0.36529789749E+02 -0.89565232520E+02  0.11340518774E+03  0.41800000000E+01 0.  1.
        -11    1    1    2    0    0 -0.60570940232E+02  0.26431351512E+02 -0.77124387275E+02  0.10156587151E+03  0.00000000000E+00 0. -1.
         11    1    1    2    0    0 -0.37750607225E+02 -0.62019199595E+02 -0.82258605153E+02  0.10971767217E+03  0.00000000000E+00 0.  1.
</event>
<event>
 7    1  0.2601031E-009  0.1164738E+03  0.7561462E-02  0.1249030E+00
          1   -1    0    0  501    0  0.00000000000E+00  0.00000000000E+00  0.11485175356E+04  0.11485175356E+04  0.00000000000E+00 0. -1.
         -1   -1    0    0    0  501 -0.00000000000E+00 -0.00000000000E+00 -0.15957369336E+02  0.15957369336E+02  0.00000000000E+00 0.  1.
         25    2    1    2    0    0  0.78288308254E+02 -0.16735614255E+02  0.61025558014E+03  0.62806591287E+03  0.12508308365E+03 0.  0.
          5    1    3    3  502    0  0.59069377989E+02  0.34571505280E+02  0.15479158145E+03  0.16929939894E+03  0.41800000000E+01 0.  1.
         -5    1    3    3    0  502  0.19218930265E+02 -0.51307119535E+02  0.45546399869E+03  0.45876651392E+03  0.41800000000E+01 0.  1.
        -11    1    1    2    0    0 -0.15246999310E+02 -0.28168942557E+02  0.63493637426E+02  0.71115415392E+02  0.00000000000E+00 0.  1.
         11    1    1    2    0    0 -0.63041308944E+02  0.44904556811E+02  0.45881094866E+03  0.46529357664E+03  0.00000000000E+00 0. -1.
</event>
<event>
 7    1  0.2601031E-009  0.1139384E+03  0.7561462E-02  0.1253446E+00
          3   -1    0    0  501    0  0.00000000000E+00  0.00000000000E+00  0.22695813397E+03  0.22695813397E+03  0.00000000000E+00 0. -1.
         -3   -1    0    0    0  501 -0.00000000000E+00 -0.00000000000E+00 -0.94751857141E+02  0.94751857141E+02  0.00000000000E+00 0.  1.
         25    2    1    2    0    0  0.87557497217E+02  0.19283877607E+02  0.23181839974E+02  0.15563829795E+03  0.12509076237E+03 0.  0.
          5    1    3    3  502    0  0.22515666288E+01  0.23101072872E+02 -0.41974655099E+02  0.48146372561E+02  0.41800000000E+01 0. -1.
         -5    1    3    3    0  502  0.85305930588E+02 -0.38171952641E+01  0.65156495074E+02  0.10749192539E+03  0.41800000000E+01 0. -1.
        -11    1    1    2    0    0  0.13231945218E+02 -0.11805332290E+02  0.45047132315E+00  0.17738465806E+02  0.00000000000E+00 0.  1.
         11    1    1    2    0    0 -0.10078944244E+03 -0.74785453178E+01  0.10857396553E+03  0.14833322735E+03  0.00000000000E+00 0. -1.
</event>
<event>
 7    1  0.2601031E-009  0.1899618E+03  0.7561462E-02  0.1158496E+00
         -1   -1    0    0    0  501 -0.00000000000E+00  0.00000000000E+00  0.14284944888E+03  0.14284944888E+03  0.00000000000E+00 0.  1.
          1   -1    0    0  501    0  0.00000000000E+00 -0.00000000000E+00 -0.26276538963E+03  0.26276538963E+03  0.00000000000E+00 0. -1.
         25    2    1    2    0    0  0.57902558182E+02 -0.14960017333E+03 -0.53484468259E+02  0.21033631693E+03  0.12509140567E+03 0.  0.
          5    1    3    3  502    0  0.75604705913E+02 -0.28862976035E+02 -0.26834462656E+02  0.85362191442E+02  0.41800000000E+01 0. -1.
         -5    1    3    3    0  502 -0.17702147731E+02 -0.12073719729E+03 -0.26650005604E+02  0.12497412549E+03  0.41800000000E+01 0. -1.
        -11    1    1    2    0    0  0.15348673682E+02  0.55247340050E+02  0.24487196535E+01  0.57392042953E+02  0.00000000000E+00 0.  1.
         11    1    1    2    0    0 -0.73251231864E+02  0.94352833276E+02 -0.68880192148E+02  0.13788647862E+03  0.00000000000E+00 0. -1.
</event>
<event>
 7    1  0.2601031E-009  0.2410445E+03  0.7561462E-02  0.1119099E+00
         -1   -1    0    0    0  501 -0.00000000000E+00  0.00000000000E+00  0.10703024496E+04  0.10703024496E+04  0.00000000000E+00 0.  1.
          1   -1    0    0  501    0  0.00000000000E+00 -0.00000000000E+00 -0.69724000439E+02  0.69724000439E+02  0.00000000000E+00 0. -1.
         25    2    1    2    0    0  0.20484572749E+03 -0.75239502051E+02  0.25642090947E+03  0.35919733165E+03  0.12509310736E+03 0.  0.
          5    1    3    3  502    0  0.21662475204E+03 -0.57675084577E+02  0.20647814614E+03  0.30480058367E+03  0.41800000000E+01 0. -1.
         -5    1    3    3    0  502 -0.11779024547E+02 -0.17564417473E+02  0.49942763338E+02  0.54396747976E+02  0.41800000000E+01 0. -1.
        -11    1    1    2    0    0 -0.16138506635E+03  0.96398689887E+02  0.60325187391E+03  0.63186285729E+03  0.00000000000E+00 0.  1.
         11    1    1    2    0    0 -0.43460661146E+02 -0.21159187837E+02  0.14090566581E+03  0.14896626113E+03  0.00000000000E+00 0. -1.
</event>
<event>
 7    1  0.2601031E-009  0.1262375E+03  0.7561462E-02  0.1233148E+00
         -2   -1    0    0    0  501 -0.00000000000E+00  0.00000000000E+00  0.42937019297E+03  0.42937019297E+03  0.00000000000E+00 0. -1.
          2   -1    0    0  501    0  0.00000000000E+00 -0.00000000000E+00 -0.53834212002E+02  0.53834212002E+02  0.00000000000E+00 0.  1.
         25    2    1    2    0    0  0.93526657513E+02  0.23692581448E+02  0.12933466414E+03  0.20416558029E+03  0.12509018645E+03 0.  0.
          5    1    3    3  502    0 -0.17588473830E+02 -0.20722508262E+02 -0.55756328703E+00  0.27505636461E+02  0.41800000000E+01 0. -1.
         -5    1    3    3    0  502  0.11111513134E+03  0.44415089710E+02  0.12989222742E+03  0.17665994382E+03  0.41800000000E+01 0. -1.
        -11    1    1    2    0    0 -0.71508411498E+02  0.18292432965E+01  0.71584746868E+02  0.10119869085E+03  0.00000000000E+00 0.  1.
         11    1    1    2    0    0 -0.22018246014E+02 -0.25521824744E+02  0.17461656996E+03  0.17784013383E+03  0.00000000000E+00 0. -1.
</event>
<event>
 7    1  0.2601031E-009  0.1079905E+03  0.7561462E-02  0.1264337E+00
         -3   -1    0    0    0  501 -0.00000000000E+00  0.00000000000E+00  0.49769889780E+02  0.49769889780E+02  0.00000000000E+00 0.  1.
          3   -1    0    0  501    0  0.00000000000E+00 -0.00000000000E+00 -0.28569573917E+03  0.28569573917E+03  0.00000000000E+00 0. -1.
         25    2    1    2    0    0 -0.46372198106E+02  0.28071797161E+02 -0.10762166398E+03  0.17369215144E+03  0.12509250322E+03 0.  0.
          5    1    3    3  502    0 -0.68095282802E+02 -0.14797047408E+02 -0.10407805512E+03  0.12532212139E+03  0.41800000000E+01 0. -1.
         -5    1    3    3    0  502  0.21723084696E+02  0.42868844569E+02 -0.35436088634E+01  0.48370030052E+02  0.41800000000E+01 0. -1.
        -11    1    1    2    0    0  0.69689000830E+02 -0.15311557651E+02 -0.85174404534E+02  0.11111111476E+03  0.00000000000E+00 0.  1.
         11    1    1    2    0    0 -0.23316802724E+02 -0.12760239510E+02 -0.43129780872E+02  0.50662362753E+02  0.00000000000E+00 0. -1.
</event>
<event>
 7    1  0.2601031E-009  0.2007079E+03  0.7561462E-02  0.1149143E+00
         -2   -1    0    0    0  501 -0.00000000000E+00  0.00000000000E+00  0.37825473851E+03  0.37825473851E+03  0.00000000000E+00 0.  1.
          2   -1    0    0  501    0  0.00000000000E+00 -0.00000000000E+00 -0.13872279282E+03  0.13872279282E+03  0.00000000000E+00 0. -1.
         25    2    1    2    0    0  0.13810929324E+03  0.11582429769E+03  0.22560035062E+03  0.31469190417E+03  0.12508409786E+03 0.  0.
          5    1    3    3  502    0  0.15906095103E+03  0.11748156719E+03  0.19958486121E+03  0.28098735558E+03  0.41800000000E+01 0. -1.
         -5    1    3    3    0  502 -0.20951657794E+02 -0.16572694983E+01  0.26015489407E+02  0.33704548589E+02  0.41800000000E+01 0. -1.
        -11    1    1    2    0    0 -0.14292005757E+02 -0.24435768425E+02  0.37092852955E+02  0.46660989568E+02  0.00000000000E+00 0.  1.
         11    1    1    2    0    0 -0.12381728748E+03 -0.91388529263E+02 -0.23161257884E+02  0.15562463760E+03  0.00000000000E+00 0. -1.
</event>
<event>
 7    1  0.2601031E-009  0.8196447E+02  0.7561462E-02  0.1323567E+00
          1   -1    0    0  501    0  0.00000000000E+00  0.00000000000E+00  0.28078331870E+03  0.28078331870E+03  0.00000000000E+00 0. -1.
         -1   -1    0    0    0  501 -0.00000000000E+00 -0.00000000000E+00 -0.43328492025E+02  0.43328492025E+02  0.00000000000E+00 0.  1.
         25    2    1    2    0    0  0.49825169514E+02  0.16060942903E+02  0.10233089470E+03  0.16988196168E+03  0.12509103681E+03 0.  0.
          5    1    3    3  502    0  0.68103047346E+02  0.25631804380E+02  0.12132040702E+03  0.14153136759E+03  0.41800000000E+01 0.  1.
         -5    1    3    3    0  502 -0.18277877832E+02 -0.95708614766E+01 -0.18989512315E+02  0.28350594092E+02  0.41800000000E+01 0.  1.
        -11    1    1    2    0    0 -0.21670666097E+02  0.16285389706E+02  0.28636133751E+02  0.39431711137E+02  0.00000000000E+00 0. -1.
         11    1    1    2    0    0 -0.28154503417E+02 -0.32346332610E+02  0.10648779823E+03  0.11479813791E+03  0.00000000000E+00 0.  1.
</event>
<event>
 7    1  0.2601031E-009  0.1227806E+03  0.7561462E-02  0.1238579E+00
         -2   -1    0    0    0  501 -0.00000000000E+00  0.00000000000E+00  0.43006135115E+02  0.43006135115E+02  0.00000000000E+00 0.  1.
          2   -1    0    0  501    0  0.00000000000E+00 -0.00000000000E+00 -0.14297696911E+04  0.14297696911E+04  0.00000000000E+00 0. -1.
         25    2    1    2    0    0 -0.51452433563E+02  0.43880750819E+02 -0.13337101088E+04  0.13412692300E+04  0.12509044640E+03 0.  0.
          5    1    3    3  502    0 -0.73092090977E+02 -0.14402109302E+02 -0.54215579332E+03  0.54726616115E+03  0.41800000000E+01 0. -1.
         -5    1    3    3    0  502  0.21639657414E+02  0.58282860122E+02 -0.79155431548E+03  0.79400306883E+03  0.41800000000E+01 0. -1.
        -11    1    1    2    0    0  0.69526936581E+02 -0.10009623300E+02 -0.55987610531E+01  0.70466542375E+02  0.00000000000E+00 0.  1.
         11    1    1    2    0    0 -0.18074503019E+02 -0.33871127520E+02 -0.47454686145E+02  0.61040053866E+02  0.00000000000E+00 0. -1.
</event>
<event>
 7    1  0.2601031E-009  0.1376102E+03  0.7561462E-02  0.1216581E+00
          1   -1    0    0  501    0  0.00000000000E+00  0.00000000000E+00  0.43801049970E+03  0.43801049970E+03  0.00000000000E+00 0. -1.
         -1   -1    0    0    0  501 -0.00000000000E+00 -0.00000000000E+00 -0.56564834323E+02  0.56564834323E+02  0.00000000000E+00 0.  1.
         25    2    1    2    0    0  0.54178374680E+02 -0.85640096412E+02  0.28367964170E+03  0.32617752013E+03  0.12509241834E+03 0.  0.
          5    1    3    3  502    0  0.13331240916E+02  0.31608582977E+02  0.41596418072E+02  0.54079190995E+02  0.41800000000E+01 0.  1.
         -5    1    3    3    0  502  0.40847133765E+02 -0.11724867939E+03  0.24208322363E+03  0.27209832913E+03  0.41800000000E+01 0.  1.
        -11    1    1    2    0    0 -0.51494665739E+02  0.27781881461E+02  0.93528262697E+02  0.11032257004E+03  0.00000000000E+00 0. -1.
         11    1    1    2    0    0 -0.26837089419E+01  0.57858214950E+02  0.42377609825E+01  0.58075243857E+02  0.00000000000E+00 0.  1.
</event>
<event>
 7    1  0.2601031E-009  0.1301597E+03  0.7561462E-02  0.1227219E+00
          1   -1    0    0  501    0  0.00000000000E+00  0.00000000000E+00  0.20083035003E+03  0.20083035003E+03  0.00000000000E+00 0. -1.
         -1   -1    0    0    0  501 -0.00000000000E+00 -0.00000000000E+00 -0.13109929084E+03  0.13109929084E+03  0.00000000000E+00 0.  1.
         25    2    1    2    0    0  0.83775089732E+02 -0.61380707102E+02 -0.25394009767E+02  0.16455810211E+03  0.12509458970E+03 0.  0.
          5    1    3    3  502    0  0.12022152332E+02 -0.80218998782E+02  0.10750480342E+02  0.81930855847E+02  0.41800000000E+01 0.  1.
         -5    1    3    3    0  502  0.71752937400E+02  0.18838291680E+02 -0.36144490109E+02  0.82627246258E+02  0.41800000000E+01 0.  1.
        -11    1    1    2    0    0 -0.55515602701E+02  0.48584515833E+02  0.71869558023E+01  0.74122126627E+02  0.00000000000E+00 0.  1.
         11    1    1    2    0    0 -0.28259487031E+02  0.12796191270E+02  0.87938113160E+02  0.93249412140E+02  0.00000000000E+00 0. -1.
</event>
<event>
 7    1  0.2601031E-009  0.9659526E+02  0.7561462E-02  0.1287623E+00
          2   -1    0    0  501    0  0.00000000000E+00  0.00000000000E+00  0.33533048049E+03  0.33533048049E+03  0.00000000000E+00 0. -1.
         -2   -1    0    0    0  501 -0.00000000000E+00 -0.00000000000E+00 -0.38875947976E+02  0.38875947976E+02  0.00000000000E+00 0.  1.
         25    2    1    2    0    0  0.46695299696E+02  0.28510040285E+02  0.20053102226E+03  0.24260597660E+03  0.12510673676E+03 0.  0.
          5    1    3    3  502    0 -0.28403459191E+02  0.22540706079E+02  0.14337982558E+03  0.14795298817E+03  0.41800000000E+01 0. -1.
         -5    1    3    3    0  502  0.75098758887E+02  0.59693342059E+01  0.57151196685E+02  0.94652988436E+02  0.41800000000E+01 0. -1.
        -11    1    1    2    0    0 -0.16897001660E+02 -0.44372531339E+02  0.26428841926E+02  0.54340720350E+02  0.00000000000E+00 0.  1.
         11    1    1    2    0    0 -0.29798298035E+02  0.15862491054E+02  0.69494668328E+02  0.77259731518E+02  0.00000000000E+00 0. -1.
</event>
<event>
 7    1  0.2601031E-009  0.1049834E+03  0.7561462E-02  0.1270152E+00
          1   -1    0    0  501    0  0.00000000000E+00  0.00000000000E+00  0.79900270055E+03  0.79900270055E+03  0.00000000000E+00 0. -1.
         -1   -1    0    0    0  501 -0.00000000000E+00 -0.00000000000E+00 -0.18660469941E+02  0.18660469941E+02  0.00000000000E+00 0.  1.
         25    2    1    2    0    0 -0.50777019426E+02  0.24947517799E+02  0.41380818614E+03  0.43598827954E+03  0.12509148905E+03 0.  0.
          5    1    3    3  502    0 -0.61866460884E+02  0.48163759424E+02  0.13659856965E+03  0.15755585783E+03  0.41800000000E+01 0. -1.
         -5    1    3    3    0  502  0.11089441458E+02 -0.23216241625E+02  0.27720961649E+03  0.27843242171E+03  0.41800000000E+01 0. -1.
        -11    1    1    2    0    0  0.76020263708E+02 -0.11823876192E+02  0.28973325726E+03  0.29977365613E+03  0.00000000000E+00 0. -1.
         11    1    1    2    0    0 -0.25243244282E+02 -0.13123641607E+02  0.76800787206E+02  0.81901234828E+02  0.00000000000E+00 0.  1.
</event>
<event>
 7    1  0.2601031E-009  0.1176067E+03  0.7561462E-02  0.1247098E+00
         -3   -1    0    0    0  501 -0.00000000000E+00  0.00000000000E+00  0.43769540907E+03  0.43769540907E+03  0.00000000000E+00 0.  1.
          3   -1    0    0  501    0  0.00000000000E+00 -0.00000000000E+00 -0.35132087161E+02  0.35132087161E+02  0.00000000000E+00 0. -1.
         25    2    1    2    0    0  0.46773246819E+02  0.14831888403E+01  0.15418351313E+03  0.20398538185E+03  0.12509014278E+03 0.  0.
          5    1    3    3  502    0 -0.43100053569E+02 -0.50058386011E+00  0.56149815679E+02  0.70909374576E+02  0.41800000000E+01 0.  1.
         -5    1    3    3    0  502  0.89873300389E+02  0.19837727005E+01  0.98033697451E+02  0.13307600728E+03  0.41800000000E+01 0.  1.
        -11    1    1    2    0    0 -0.74325231467E+02 -0.21402227787E+01  0.16383349912E+03  0.17991730328E+03  0.00000000000E+00 0. -1.
         11    1    1    2    0    0  0.27551984648E+02  0.65703393840E+00  0.84546309663E+02  0.88924811100E+02  0.00000000000E+00 0.  1.
</event>
<event>
 7    1  0.2601031E-009  0.1510568E+03  0.7561462E-02  0.1199180E+00
          1   -1    0    0  501    0  0.00000000000E+00  0.00000000000E+00  0.49575879304E+03  0.49575879304E+03  0.00000000000E+00 0. -1.
         -1   -1    0    0    0  501 -0.00000000000E+00 -0.00000000000E+00 -0.80752292967E+02  0.80752292967E+02  0.00000000000E+00 0.  1.
         25    2    1    2    0    0  0.63126684377E+02  0.11763214122E+03  0.71490198234E+02  0.19642384016E+03  0.12509667305E+03 0.  0.
          5    1    3    3  502    0  0.18245863185E+02  0.88795030663E+02 -0.17658489900E+02  0.92448708262E+02  0.41800000000E+01 0.  1.
         -5    1    3    3    0  502  0.44880821192E+02  0.28837110561E+02  0.89148688134E+02  0.10397513189E+03  0.41800000000E+01 0.  1.
        -11    1    1    2    0    0 -0.82327577962E+02 -0.76146683170E+02  0.19791676415E+03  0.22748009359E+03  0.00000000000E+00 0.  1.
         11    1    1    2    0    0  0.19200893585E+02 -0.41485458054E+02  0.14559953769E+03  0.15260715226E+03  0.00000000000E+00 0. -1.
</event>
<event>
 7    1  0.2601031E-009  0.2121681E+03  0.7561462E-02  0.1139860E+00
         -1   -1    0    0    0  501 -0.00000000000E+00  0.00000000000E+00  0.40084620887E+02  0.40084620887E+02  0.00000000000E+00 0.  1.
          1   -1    0    0  501    0  0.00000000000E+00 -0.00000000000E+00 -0.11483981542E+04  0.11483981542E+04  0.00000000000E+00 0. -1.
         25    2    1    2    0    0 -0.14431271339E+03 -0.11227262649E+03 -0.55346860658E+03  0.59615980791E+03  0.12509083177E+03 0.  0.
          5    1    3    3  502    0  0.20955391210E+02 -0.11739994990E+02 -0.10388818614E+03  0.10671074699E+03  0.41800000000E+01 0. -1.
         -5    1    3    3    0  502 -0.16526810460E+03 -0.10053263150E+03 -0.44958042045E+03  0.48944906093E+03  0.41800000000E+01 0. -1.
        -11    1    1    2    0    0  0.74434070967E+02  0.11448296303E+03 -0.34036092295E+03  0.36673196972E+03  0.00000000000E+00 0.  1.
         11    1    1    2    0    0  0.69878642420E+02 -0.22103365419E+01 -0.21448400375E+03  0.22559099743E+03  0.00000000000E+00 0. -1.
</event>
<event>
 7    1  0.2601031E-009  0.9567162E+02  0.7561462E-02  0.1289671E+00
          3   -1    0    0  501    0  0.00000000000E+00  0.00000000000E+00  0.25476683117E+03  0.25476683117E+03  0.00000000000E+00 0. -1.
         -3   -1    0    0    0  501 -0.00000000000E+00 -0.00000000000E+00 -0.58606965134E+02  0.58606965134E+02  0.00000000000E+00 0.  1.
         25    2    1    2    0    0  0.48286326083E+02  0.18051730442E+01  0.14977726930E+03  0.20103600190E+03  0.12508963077E+03 0.  0.
          5    1    3    3  502    0  0.86770026696E+02 -0.17513189137E+02  0.11692788310E+03  0.14671520567E+03  0.41800000000E+01 0.  1.
         -5    1    3    3    0  502 -0.38483700613E+02  0.19318362181E+02  0.32849386198E+02  0.54320796237E+02  0.41800000000E+01 0.  1.
        -11    1    1    2    0    0 -0.41621014996E+02  0.12686067381E+02 -0.17198009751E+02  0.46786929097E+02  0.00000000000E+00 0.  1.
         11    1    1    2    0    0 -0.66653110874E+01 -0.14491240425E+02  0.63580606482E+02  0.65550865300E+02  0.00000000000E+00 0. -1.
</event>
<event>
 7    1  0.2601031E-009  0.1258912E+03  0.7561462E-02  0.1233683E+00
         -1   -1    0    0    0  501 -0.00000000000E+00  0.00000000000E+00  0.47840898237E+02  0.47840898237E+02  0.00000000000E+00 0.  1.
          1   -1    0    0  501    0  0.00000000000E+00 -0.00000000000E+00 -0.36813329154E+03  0.36813329154E+03  0.00000000000E+00 0. -1.
         25    2    1    2    0    0  0.62255036080E+02 -0.40369641360E+02 -0.14940754243E+03  0.20850762010E+03  0.12508963365E+03 0.  0.
          5    1    3    3  502    0  0.26264867324E+02  0.39247038516E+02 -0.18132212049E+02  0.50758475170E+02  0.41800000000E+01 0.  1.
         -5    1    3    3    0  502  0.35990168756E+02 -0.79616679875E+02 -0.13127533038E+03  0.15774914493E+03  0.41800000000E+01 0.  1.
        -11    1    1    2    0    0 -0.83490926298E+02  0.16781345003E+02 -0.11359664882E+03  0.14197375440E+03  0.00000000000E+00 0.  1.
         11    1    1    2    0    0  0.21235890218E+02  0.23588296356E+02 -0.57288202056E+02  0.65492815278E+02  0.00000000000E+00 0. -1.
</event>
<event>
 7    1  0.2601031E-009  0.2002853E+03  0.7561462E-02  0.1149499E+00
          1   -1    0    0  501    0  0.00000000000E+00  0.00000000000E+00  0.31000883343E+03  0.31000883343E+03  0.00000000000E+00 0. -1.
         -1   -1    0    0    0  501 -0.00000000000E+00 -0.00000000000E+00 -0.14263126578E+03  0.14263126578E+03  0.00000000000E+00 0.  1.
         25    2    1    2    0    0 -0.86309869796E+02 -0.15874776233E+03  0.89278293055E+02  0.23720888756E+03  0.12508875673E+03 0.  0.
          5    1    3    3  502    0 -0.93465410413E+02 -0.17575242277E+03  0.72403406003E+02  0.21185944080E+03  0.41800000000E+01 0. -1.
         -5    1    3    3    0  502  0.71555406167E+01  0.17004660447E+02  0.16874887052E+02  0.25349446768E+02  0.41800000000E+01 0. -1.
        -11    1    1    2    0    0  0.66460269470E+02  0.96168599710E+02  0.47548323641E+01  0.11699562137E+03  0.00000000000E+00 0.  1.
         11    1    1    2    0    0  0.19849600326E+02  0.62579162615E+02  0.73344442229E+02  0.98435590274E+02  0.00000000000E+00 0. -1.
</event>
<event>
 7    1  0.2601031E-009  0.1659477E+03  0.7561462E-02  0.1182141E+00
         -3   -1    0    0    0  501 -0.00000000000E+00  0.00000000000E+00  0.13556498299E+03  0.13556498299E+03  0.00000000000E+00 0.  1.
          3   -1    0    0  501    0  0.00000000000E+00 -0.00000000000E+00 -0.26923369600E+03  0.26923369600E+03  0.00000000000E+00 0. -1.
         25    2    1    2    0    0 -0.12813474830E+03  0.64219133118E+02 -0.14499407268E+03  0.23919335468E+03  0.12509024355E+03 0.  0.
          5    1    3    3  502    0  0.17630099502E+01  0.32666159602E+02 -0.87702323603E+02  0.93698218514E+02  0.41800000000E+01 0.  1.
         -5    1    3    3    0  502 -0.12989775825E+03  0.31552973516E+02 -0.57291749076E+02  0.14549513616E+03  0.41800000000E+01 0.  1.
        -11    1    1    2    0    0  0.99927724993E+02 -0.84147903748E+02  0.10479344648E+02  0.13105814203E+03  0.00000000000E+00 0.  1.
         11    1    1    2    0    0  0.28207023304E+02  0.19928770630E+02  0.84601502990E+00  0.34547182286E+02  0.00000000000E+00 0. -1.
</event>
<event>
 7    1  0.2601031E-009  0.1255962E+03  0.7561462E-02  0.1234141E+00
          4   -1    0    0  501    0  0.00000000000E+00  0.00000000000E+00  0.15716547643E+03  0.15716547643E+03  0.00000000000E+00 0. -1.
         -4   -1    0    0    0  501 -0.00000000000E+00 -0.00000000000E+00 -0.16660953033E+03  0.16660953033E+03  0.00000000000E+00 0.  1.
         25    2    1    2    0    0 -0.37298463159E+02  0.23693444728E+02 -0.10677839441E+03  0.17029637016E+03  0.12508666396E+03 0.  0.
          5    1    3    3  502    0  0.20659840042E+02  0.60279721714E+02 -0.47603716551E+02  0.79649608096E+02  0.41800000000E+01 0.  1.
         -5    1    3    3    0  502 -0.57958303201E+02 -0.36586276985E+02 -0.59174677855E+02  0.90646762065E+02  0.41800000000E+01 0.  1.
        -11    1    1    2    0    0  0.20817059015E+02 -0.68147072577E+02  0.58323405593E+02  0.92081448114E+02  0.00000000000E+00 0.  1.
         11    1    1    2    0    0  0.16481404144E+02  0.44453627848E+02  0.39010934908E+02  0.61397188485E+02  0.00000000000E+00 0. -1.
</event>
<event>
 7    1  0.2601031E-009  0.7754550E+02  0.7561462E-02  0.1336165E+00
          1   -1    0    0  501    0  0.00000000000E+00  0.00000000000E+00  0.89866003980E+03  0.89866003980E+03  0.00000000000E+00 0. -1.
         -1   -1    0    0    0  501 -0.00000000000E+00 -0.00000000000E+00 -0.12998574618E+02  0.12998574618E+02  0.00000000000E+00 0.  1.
         25    2    1    2    0    0  0.15986327156E+02 -0.27623147280E+02  0.61710559377E+03  0.63046440289E+03  0.12508976192E+03 0.  0.
          5    1    3    3  502    0  0.17531240641E+02 -0.49277301390E+02  0.60056741024E+03  0.60285510985E+03  0.41800000000E+01 0.  1.
         -5    1    3    3    0  502 -0.15449134854E+01  0.21654154110E+02  0.16538183524E+02  0.27609293040E+02  0.41800000000E+01 0.  1.
        -11    1    1    2    0    0  0.28232174046E+02  0.22297152233E+02  0.84753084415E+02  0.92072275778E+02  0.00000000000E+00 0.  1.
         11    1    1    2    0    0 -0.44218501202E+02  0.53259950468E+01  0.18380278700E+03  0.18912193575E+03  0.00000000000E+00 0. -1.
</event>
<event>
 7    1  0.2601031E-009  0.2386537E+03  0.7561462E-02  0.1120693E+00
         -2   -1    0    0    0  501 -0.00000000000E+00  0.00000000000E+00  0.37999363131E+02  0.37999363131E+02  0.00000000000E+00 0.  1.
          2   -1    0    0  501    0  0.00000000000E+00 -0.00000000000E+00 -0.18955472852E+04  0.18955472852E+04  0.00000000000E+00 0. -1.
         25    2    1    2    0    0 -0.15973441483E+02  0.23107496799E+03 -0.12375030052E+04  0.12651925717E+04  0.12509102305E+03 0.  0.
          5    1    3    3  502    0 -0.36264619305E+02  0.13511441259E+03 -0.97384374831E+03  0.98384965600E+03  0.41800000000E+01 0. -1.
         -5    1    3    3    0  502  0.20291177823E+02  0.95960555407E+02 -0.26365925690E+03  0.28134291574E+03  0.41800000000E+01 0. -1.
        -11    1    1    2    0    0  0.37429542501E+02 -0.17869571229E+03 -0.37804762106E+03  0.41982512078E+03  0.00000000000E+00 0.  1.
         11    1    1    2    0    0 -0.21456101018E+02 -0.52379255698E+02 -0.24199729577E+03  0.24852895577E+03  0.00000000000E+00 0. -1.
</event>
<event>
 7    1  0.2601031E-009  0.9064816E+02  0.7561462E-02  0.1301290E+00
          1   -1    0    0  501    0  0.00000000000E+00  0.00000000000E+00  0.44733477431E+02  0.44733477431E+02  0.00000000000E+00 0. -1.
         -1   -1    0    0    0  501 -0.00000000000E+00 -0.00000000000E+00 -0.32593941022E+03  0.32593941022E+03  0.00000000000E+00 0.  1.
         25    2    1    2    0    0  0.12634168887E+02 -0.28150870364E+02 -0.23157278263E+03  0.26499623815E+03  0.12507980992E+03 0.  0.
          5    1    3    3  502    0 -0.31636866081E+02  0.22635350755E+02 -0.16721159980E+03  0.17172781344E+03  0.41800000000E+01 0.  1.
         -5    1    3    3    0  502  0.44271034969E+02 -0.50786221119E+02 -0.64361182828E+02  0.93268424710E+02  0.41800000000E+01 0.  1.
        -11    1    1    2    0    0  0.19577379700E+02  0.36477127289E+02  0.50110277988E+01  0.41700899400E+02  0.00000000000E+00 0. -1.
         11    1    1    2    0    0 -0.32211548587E+02 -0.83262569246E+01 -0.54644177955E+02  0.63975750102E+02  0.00000000000E+00 0.  1.
</event>
<event>
 7    1  0.2601031E-009  0.1095881E+03  0.7561462E-02  0.1261335E+00
          4   -1    0    0  501    0  0.00000000000E+00  0.00000000000E+00  0.30812080876E+03  0.30812080876E+03  0.00000000000E+00 0. -1.
         -4   -1    0    0    0  501 -0.00000000000E+00 -0.00000000000E+00 -0.50218367231E+02  0.50218367231E+02  0.00000000000E+00 0.  1.
         25    2    1    2    0    0 -0.19541407477E+02 -0.63216160965E+02  0.17758315276E+03  0.22707357403E+03  0.12509389380E+03 0.  0.
          5    1    3    3  502    0 -0.20058574125E+02  0.28616589749E+02  0.11115269737E+02  0.36909039897E+02  0.41800000000E+01 0. -1.
         -5    1    3    3    0  502  0.51716664832E+00 -0.91832750714E+02  0.16646788302E+03  0.19016453413E+03  0.41800000000E+01 0. -1.
        -11    1    1    2    0    0  0.31619262363E+02  0.70972596405E+02  0.37830664966E+02  0.86417859293E+02  0.00000000000E+00 0. -1.
         11    1    1    2    0    0 -0.12077854886E+02 -0.77564354403E+01  0.42488623802E+02  0.44847742664E+02  0.00000000000E+00 0.  1.
</event>
<event>
 7    1  0.2601031E-009  0.1392955E+03  0.7561462E-02  0.1214280E+00
          2   -1    0    0  501    0  0.00000000000E+00  0.00000000000E+00  0.15653812090E+03  0.15653812090E+03  0.00000000000E+00 0.  1.
         -2   -1    0    0    0  501 -0.00000000000E+00 -0.00000000000E+00 -0.13182402010E+03  0.13182402010E+03  0.00000000000E+00 0. -1.
         25    2    1    2    0    0 -0.42151612728E+02  0.82796057021E+02  0.21084538441E+02  0.15723702868E+03  0.12508788875E+03 0.  0.
          5    1    3    3  502    0  0.34297047596E+02  0.69437116932E+02  0.39965994975E+01  0.77661096368E+02  0.41800000000E+01 0. -1.
         -5    1    3    3    0  502 -0.76448660324E+02  0.13358940089E+02  0.17087938944E+02  0.79575932310E+02  0.41800000000E+01 0. -1.
        -11    1    1    2    0    0 -0.16048144934E+02  0.60089480316E+01  0.16965604850E+02  0.24113941200E+02  0.00000000000E+00 0.  1.
         11    1    1    2    0    0  0.58199757662E+02 -0.88805005053E+02 -0.13336042489E+02  0.10701117112E+03  0.00000000000E+00 0. -1.
</event>
<event>
 7    1  0.2601031E-009  0.2021384E+03  0.7561462E-02  0.1147947E+00
          2   -1    0    0  501    0  0.00000000000E+00  0.00000000000E+00  0.41374261084E+03  0.41374261084E+03  0.00000000000E+00 0.  1.
         -2   -1    0    0    0  501 -0.00000000000E+00 -0.00000000000E+00 -0.12237013558E+03  0.12237013558E+03  0.00000000000E+00 0. -1.
         25    2    1    2    0    0  0.41934054062E+02  0.16928427678E+03  0.26718944719E+03  0.34271556829E+03  0.12509248101E+03 0.  0.
          5    1    3    3  502    0  0.71119426096E+02  0.17002482240E+03  0.23977124715E+03  0.30244691495E+03  0.41800000000E+01 0.  1.
         -5    1    3    3    0  502 -0.29185372034E+02 -0.74054562558E+00  0.27418200046E+02  0.40268653346E+02  0.41800000000E+01 0.  1.
        -11    1    1    2    0    0  0.22201987360E+02 -0.56281729528E+02 -0.32820918164E+01  0.60591529508E+02  0.00000000000E+00 0. -1.
         11    1    1    2    0    0 -0.64136041422E+02 -0.11300254725E+03  0.27465119884E+02  0.13280564862E+03  0.00000000000E+00 0.  1.
</event>
<event>
 7    1  0.2601031E-009  0.9344522E+02  0.7561462E-02  0.1294717E+00
          2   -1    0    0  501    0  0.00000000000E+00  0.00000000000E+00  0.16460351257E+02  0.16460351257E+02  0.00000000000E+00 0. -1.
         -2   -1    0    0    0  501 -0.00000000000E+00 -0.00000000000E+00 -0.87930237150E+03  0.87930237150E+03  0.00000000000E+00 0.  1.
         25    2    1    2    0    0  0.98513569932E+01  0.28244257780E+02 -0.67705777644E+03  0.68916529847E+03  0.12508712421E+03 0.  0.
          5    1    3    3  502    0 -0.21799675991E+02  0.71312422297E+02 -0.41768517877E+03  0.42431010878E+03  0.41800000000E+01 0. -1.
         -5    1    3    3    0  502  0.31651032984E+02 -0.43068164517E+02 -0.25937259767E+03  0.26485518969E+03  0.41800000000E+01 0. -1.
        -11    1    1    2    0    0  0.13938728799E+02 -0.31627712377E+02 -0.17802075316E+03  0.18134494453E+03  0.00000000000E+00 0.  1.
         11    1    1    2    0    0 -0.23790085792E+02  0.33834545971E+01 -0.77634906412E+01  0.25252479758E+02  0.00000000000E+00 0. -1.
</event>
<event>
 7    1  0.2601031E-009  0.1010082E+03  0.7561462E-02  0.1278190E+00
         -1   -1    0    0    0  501 -0.00000000000E+00  0.00000000000E+00  0.11211680949E+03  0.11211680949E+03  0.00000000000E+00 0. -1.
          1   -1    0    0  501    0  0.00000000000E+00 -0.00000000000E+00 -0.15030674270E+03  0.15030674270E+03  0.00000000000E+00 0.  1.
         25    2    1    2    0    0 -0.59640281557E+02  0.37556775956E+02 -0.12936657204E+02  0.14416039762E+03  0.12508952210E+03 0.  0.
          5    1    3    3  502    0 -0.69232608513E+02  0.42195841704E+02  0.39644274705E+02  0.90348127016E+02  0.41800000000E+01 0. -1.
         -5    1    3    3    0  502  0.95923269558E+01 -0.46390657471E+01 -0.52580931908E+02  0.53812270606E+02  0.41800000000E+01 0. -1.
        -11    1    1    2    0    0  0.95564540831E+01 -0.55399554179E+02 -0.31971531849E+02  0.64673141772E+02  0.00000000000E+00 0.  1.
         11    1    1    2    0    0  0.50083827474E+02  0.17842778223E+02  0.67182558405E+01  0.53590012788E+02  0.00000000000E+00 0. -1.
</event>
<event>
 7    1  0.2601031E-009  0.1465914E+03  0.7561462E-02  0.1204725E+00
         -2   -1    0    0    0  501 -0.00000000000E+00  0.00000000000E+00  0.21409729399E+02  0.21409729399E+02  0.00000000000E+00 0. -1.
          2   -1    0    0  501    0  0.00000000000E+00 -0.00000000000E+00 -0.18576665743E+04  0.18576665743E+04  0.00000000000E+00 0.  1.
         25    2    1    2    0    0 -0.10981398969E+03 -0.27413188695E+02 -0.15303814122E+04  0.15396510356E+04  0.12508976552E+03 0.  0.
          5    1    3    3  502    0 -0.13149230800E+03 -0.41456402510E+02 -0.11247265439E+04  0.11331531808E+04  0.41800000000E+01 0.  1.
         -5    1    3    3    0  502  0.21678318309E+02  0.14043213816E+02 -0.40565486833E+03  0.40649785477E+03  0.41800000000E+01 0.  1.
        -11    1    1    2    0    0  0.23211944076E+01 -0.13773751004E+02 -0.15469844652E+01  0.14053374013E+02  0.00000000000E+00 0. -1.
         11    1    1    2    0    0  0.10749279528E+03  0.41186939699E+02 -0.30432844820E+03  0.32537189403E+03  0.00000000000E+00 0.  1.
</event>
<event>
 7    1  0.3301359E-009  0.1650401E+03  0.7561462E-02  0.1183121E+00
         -2   -1    0    0    0  501 -0.00000000000E+00  0.00000000000E+00  0.32628581751E+02  0.32628581751E+02  0.00000000000E+00 0.  1.
          2   -1    0    0  501    0  0.00000000000E+00 -0.00000000000E+00 -0.10814423976E+04  0.10814423976E+04  0.00000000000E+00 0. -1.
         25    2    1    2    0    0  0.99861880257E+02 -0.75637827859E+02 -0.81076733348E+03  0.82987139428E+03  0.12509750547E+03 0.  0.
          5    1    3    3  502    0  0.17934552124E+02  0.34282024639E+02 -0.14562039724E+03  0.15073048088E+03  0.41800000000E+01 0.  1.
         -5    1    3    3    0  502  0.81927328133E+02 -0.10991985250E+03 -0.66514693623E+03  0.67914091340E+03  0.41800000000E+01 0.  1.
        -11    1    1    2    0    0 -0.10261879432E+03  0.28107635791E+02 -0.14711863791E+03  0.18156142145E+03  0.00000000000E+00 0. -1.
         11    1    1    2    0    0  0.27569140671E+01  0.47530192067E+02 -0.90927844434E+02  0.10263816360E+03  0.00000000000E+00 0.  1.
</event>
<event>
 7    1  0.2601031E-009  0.1188115E+03  0.7561462E-02  0.1245071E+00
          1   -1    0    0  501    0  0.00000000000E+00  0.00000000000E+00  0.26448770983E+02  0.26448770983E+02  0.00000000000E+00 0. -1.
         -1   -1    0    0    0  501 -0.00000000000E+00 -0.00000000000E+00 -0.12379178700E+04  0.12379178700E+04  0.00000000000E+00 0.  1.
         25    2    1    2    0    0 -0.66239364329E+02  0.52411494197E+02 -0.10205264889E+04  0.10316282592E+04  0.12509169643E+03 0.  0.
          5    1    3    3  502    0  0.21271533467E+00  0.71752739395E+02 -0.33613202303E+03  0.34373057787E+03  0.41800000000E+01 0. -1.
         -5    1    3    3    0  502 -0.66452079664E+02 -0.19341245198E+02 -0.68439446585E+03  0.68789768130E+03  0.41800000000E+01 0. -1.
        -11    1    1    2    0    0  0.34844459593E+02  0.54568547984E+00 -0.16016030134E+03  0.16390776755E+03  0.00000000000E+00 0.  1.
         11    1    1    2    0    0  0.31394904736E+02 -0.52957179677E+02 -0.30782308775E+02  0.68830614237E+02  0.00000000000E+00 0. -1.
</event>
<event>
 7    1  0.2601031E-009  0.2582580E+03  0.7561462E-02  0.1108194E+00
          2   -1    0    0  501    0  0.00000000000E+00  0.00000000000E+00  0.28881345236E+03  0.28881345236E+03  0.00000000000E+00 0. -1.
         -2   -1    0    0    0  501 -0.00000000000E+00 -0.00000000000E+00 -0.25968403303E+03  0.25968403303E+03  0.00000000000E+00 0.  1.
         25    2    1    2    0    0  0.74615333164E+02  0.23270589342E+03  0.71628027917E+02  0.28372062864E+03  0.12508932790E+03 0.  0.
          5    1    3    3  502    0  0.10362696338E+03  0.14930074838E+03  0.71421982870E+02  0.19531470258E+03  0.41800000000E+01 0. -1.
         -5    1    3    3    0  502 -0.29011630219E+02  0.83405145045E+02  0.20604504661E+00  0.88405926060E+02  0.41800000000E+01 0. -1.
        -11    1    1    2    0    0 -0.56115364438E+02 -0.12470800514E+03  0.20664320839E+02  0.13830413886E+03  0.00000000000E+00 0.  1.
         11    1    1    2    0    0 -0.18499968727E+02 -0.10799788829E+03 -0.63162929422E+02  0.12647271789E+03  0.00000000000E+00 0. -1.
</event>
<event>
 7    1  0.2601031E-009  0.3404333E+03  0.7561462E-02  0.1066612E+00
         -1   -1    0    0    0  501 -0.00000000000E+00  0.00000000000E+00  0.91982746300E+02  0.91982746300E+02  0.00000000000E+00 0.  1.
          1   -1    0    0  501    0  0.00000000000E+00 -0.00000000000E+00 -0.13582010112E+04  0.13582010112E+04  0.00000000000E+00 0. -1.
         25    2    1    2    0    0  0.24075869510E+03 -0.21917784217E+03 -0.46875020000E+03  0.58427585958E+03  0.12509138391E+03 0.  0.
          5    1    3    3  502    0  0.23198198041E+03 -0.14744068891E+03 -0.39183471624E+03  0.47865051262E+03  0.41800000000E+01 0.  1.
         -5    1    3    3    0  502  0.87767146828E+01 -0.71737153263E+02 -0.76915483764E+02  0.10562534697E+03  0.41800000000E+01 0.  1.
        -11    1    1    2    0    0 -0.19415020531E+03  0.13218036043E+03 -0.49829666416E+03  0.55087704201E+03  0.00000000000E+00 0. -1.
         11    1    1    2    0    0 -0.46608489786E+02  0.86997481742E+02 -0.29917140069E+03  0.31503085585E+03  0.00000000000E+00 0.  1.
</event>
<event>
 7    1  0.2601031E-009  0.8578845E+02  0.7561462E-02  0.1313383E+00
         -2   -1    0    0    0  501 -0.00000000000E+00  0.00000000000E+00  0.47016418522E+02  0.47016418522E+02  0.00000000000E+00 0. -1.
          2   -1    0    0  501    0  0.00000000000E+00 -0.00000000000E+00 -0.30462365489E+03  0.30462365489E+03  0.00000000000E+00 0.  1.
         25    2    1    2    0    0 -0.44046361933E+02 -0.10895791982E+02 -0.17114193515E+03  0.21678391445E+03  0.12508758257E+03 0.  0.
          5    1    3    3  502    0 -0.49683739086E+02 -0.38937881695E+02 -0.17640164279E+03  0.18740236001E+03  0.41800000000E+01 0.  1.
         -5    1    3    3    0  502  0.56373771532E+01  0.28042089713E+02  0.52597076353E+01  0.29381554435E+02  0.41800000000E+01 0.  1.
        -11    1    1    2    0    0  0.24285493025E+02 -0.27216994794E+02  0.19922947643E+01  0.36531071919E+02  0.00000000000E+00 0. -1.
         11    1    1    2    0    0  0.19760868908E+02  0.38112786776E+02 -0.88457595985E+02  0.98325087049E+02  0.00000000000E+00 0.  1.
</event>
<event>
 7    1  0.2601031E-009  0.1143050E+03  0.7561462E-02  0.1252799E+00
         -2   -1    0    0    0  501 -0.00000000000E+00  0.00000000000E+00  0.19716830697E+03  0.19716830697E+03  0.00000000000E+00 0.  1.
          2   -1    0    0  501    0  0.00000000000E+00 -0.00000000000E+00 -0.12696286030E+03  0.12696286030E+03  0.00000000000E+00 0. -1.
         25    2    1    2    0    0 -0.43625780348E+02 -0.74223409351E+02 -0.39910307134E+02  0.15701408679E+03  0.12509303590E+03 0.  0.
          5    1    3    3  502    0 -0.40617077864E+02  0.18658689871E+02 -0.45373743895E+02  0.63829011875E+02  0.41800000000E+01 0. -1.
         -5    1    3    3    0  502 -0.30087024839E+01 -0.92882099222E+02  0.54634367611E+01  0.93185074919E+02  0.41800000000E+01 0. -1.
        -11    1    1    2    0    0  0.16810877139E+02  0.68030479873E+01  0.90019770610E+02  0.91828351574E+02  0.00000000000E+00 0.  1.
         11    1    1    2    0    0  0.26814903209E+02  0.67420361364E+02  0.20095983192E+02  0.75288728910E+02  0.00000000000E+00 0. -1.
</event>
<event>
 7    1  0.2601031E-009  0.7886190E+02  0.7561462E-02  0.1332313E+00
         -2   -1    0    0    0  501 -0.00000000000E+00  0.00000000000E+00  0.40437820950E+02  0.40437820950E+02  0.00000000000E+00 0.  1.
          2   -1    0    0  501    0  0.00000000000E+00 -0.00000000000E+00 -0.32325308682E+03  0.32325308682E+03  0.00000000000E+00 0. -1.
         25    2    1    2    0    0  0.63975823063E+01 -0.30761953639E+02 -0.13089910250E+03  0.18377127460E+03  0.12510027770E+03 0.  0.
          5    1    3    3  502    0  0.24677125483E+02 -0.58105723309E+02 -0.17526145770E+02  0.65649629008E+02  0.41800000000E+01 0. -1.
         -5    1    3    3    0  502 -0.18279543177E+02  0.27343769670E+02 -0.11337295673E+03  0.11812164559E+03  0.41800000000E+01 0. -1.
        -11    1    1    2    0    0 -0.28451834513E+02  0.78838978459E+01 -0.54209044414E+01  0.30017477199E+02  0.00000000000E+00 0.  1.
         11    1    1    2    0    0  0.22054252207E+02  0.22878055793E+02 -0.14649525893E+03  0.14990215597E+03  0.00000000000E+00 0. -1.
</event>
<event>
 7    1  0.2601031E-009  0.9373501E+02  0.7561462E-02  0.1294051E+00
         -2   -1    0    0    0  501 -0.00000000000E+00  0.00000000000E+00  0.10412244610E+03  0.10412244610E+03  0.00000000000E+00 0.  1.
          2   -1    0    0  501    0  0.00000000000E+00 -0.00000000000E+00 -0.15687907112E+03  0.15687907112E+03  0.00000000000E+00 0. -1.
         25    2    1    2    0    0  0.46444718184E+02  0.48650970758E+02 -0.38766616096E+02  0.14722331479E+03  0.12509126705E+03 0.  0.
          5    1    3    3  502    0  0.31369881012E+01  0.28221219653E+02 -0.79308485942E+02  0.84342078913E+02  0.41800000000E+01 0. -1.
         -5    1    3    3    0  502  0.43307730083E+02  0.20429751105E+02  0.40541869846E+02  0.62881235879E+02  0.41800000000E+01 0. -1.
        -11    1    1    2    0    0 -0.68249317814E+02 -0.13858892028E+02  0.21107405716E+01  0.69674195338E+02  0.00000000000E+00 0.  1.
         11    1    1    2    0    0  0.21804599630E+02 -0.34792078730E+02 -0.16100749494E+02  0.44104007093E+02  0.00000000000E+00 0. -1.
</event>
<event>
 7    1  0.3783356E-009  0.9955284E+02  0.7561462E-02  0.1281239E+00
         -3   -1    0    0    0  501 -0.00000000000E+00  0.00000000000E+00  0.35965372509E+02  0.35965372509E+02  0.00000000000E+00 0.  1.
          3   -1    0    0  501    0  0.00000000000E+00 -0.00000000000E+00 -0.46132999277E+03  0.46132999277E+03  0.00000000000E+00 0. -1.
         25    2    1    2    0    0 -0.42048669042E+02 -0.25901852362E+02 -0.33028978196E+03  0.35662345885E+03  0.12509977943E+03 0.  0.
          5    1    3    3  502    0  0.11846061266E+02 -0.64015035802E+02 -0.12589002365E+03  0.14178866115E+03  0.41800000000E+01 0. -1.
         -5    1    3    3    0  502 -0.53894730307E+02  0.38113183440E+02 -0.20439975831E+03  0.21483479771E+03  0.41800000000E+01 0. -1.
        -11    1    1    2    0    0  0.21821641844E+02 -0.11899518975E+02 -0.94585078168E+02  0.97796316989E+02  0.00000000000E+00 0. -1.
         11    1    1    2    0    0  0.20227027198E+02  0.37801371337E+02 -0.48976012967E+00  0.42875589433E+02  0.00000000000E+00 0.  1.
</event>
<event>
 7    1  0.4223121E-009  0.1411888E+03  0.7561462E-02  0.1211738E+00
         -1   -1    0    0    0  501 -0.00000000000E+00  0.00000000000E+00  0.26138789030E+02  0.26138789030E+02  0.00000000000E+00 0.  1.
          1   -1    0    0  501    0  0.00000000000E+00 -0.00000000000E+00 -0.10337780174E+04  0.10337780174E+04  0.00000000000E+00 0. -1.
         25    2    1    2    0    0  0.88369047019E+02  0.84870165510E+02 -0.57524515991E+03  0.60130345720E+03  0.12508725028E+03 0.  0.
          5    1    3    3  502    0  0.10468692949E+03  0.43830648960E+02 -0.50941359706E+03  0.52191969139E+03  0.41800000000E+01 0.  1.
         -5    1    3    3    0  502 -0.16317882474E+02  0.41039516550E+02 -0.65831562848E+02  0.79383765810E+02  0.41800000000E+01 0.  1.
        -11    1    1    2    0    0 -0.32935068579E+02 -0.46685705897E+02 -0.71638151899E+02  0.91631319345E+02  0.00000000000E+00 0. -1.
         11    1    1    2    0    0 -0.55433978440E+02 -0.38184459613E+02 -0.36075591660E+03  0.36698202992E+03  0.00000000000E+00 0.  1.
</event>
<event>
 7    1  0.2601031E-009  0.1046387E+03  0.7561462E-02  0.1270833E+00
          3   -1    0    0  501    0  0.00000000000E+00  0.00000000000E+00  0.17263506698E+03  0.17263506698E+03  0.00000000000E+00 0. -1.
         -3   -1    0    0    0  501 -0.00000000000E+00 -0.00000000000E+00 -0.84509924040E+02  0.84509924040E+02  0.00000000000E+00 0.  1.
         25    2    1    2    0    0  0.34074411630E+02  0.53008798849E+01  0.65375209478E+01  0.12992282200E+03  0.12509210863E+03 0.  0.
          5    1    3    3  502    0  0.23585297455E+02 -0.56146660676E+02  0.23134839999E+02  0.65279452992E+02  0.41800000000E+01 0.  1.
         -5    1    3    3    0  502  0.10489114175E+02  0.61447540561E+02 -0.16597319051E+02  0.64643369009E+02  0.41800000000E+01 0.  1.
        -11    1    1    2    0    0  0.14683848904E+02 -0.28273790619E+02  0.62304058647E+02  0.69977270441E+02  0.00000000000E+00 0. -1.
         11    1    1    2    0    0 -0.48758260534E+02  0.22972910734E+02  0.19283563347E+02  0.57244898578E+02  0.00000000000E+00 0.  1.
</event>
<event>
 7    1  0.2601031E-009  0.1606980E+03  0.7561462E-02  0.1187911E+00
          1   -1    0    0  501    0  0.00000000000E+00  0.00000000000E+00  0.16876472493E+03  0.16876472493E+03  0.00000000000E+00 0. -1.
         -1   -1    0    0    0  501 -0.00000000000E+00 -0.00000000000E+00 -0.20736525132E+03  0.20736525132E+03  0.00000000000E+00 0.  1.
         25    2    1    2    0    0 -0.11438611094E+03  0.97037587303E+02  0.47002348059E+01  0.19537147065E+03  0.12508974224E+03 0.  0.
          5    1    3    3  502    0 -0.77803136683E+02  0.51269015431E+02 -0.57697905292E+02  0.10967388338E+03  0.41800000000E+01 0.  1.
         -5    1    3    3    0  502 -0.36582974259E+02  0.45768571871E+02  0.62398140098E+02  0.85697587273E+02  0.41800000000E+01 0.  1.
        -11    1    1    2    0    0  0.62247807706E+02 -0.35598670925E+01 -0.39192904462E+02  0.73644728108E+02  0.00000000000E+00 0.  1.
         11    1    1    2    0    0  0.52138303236E+02 -0.93477720210E+02 -0.41078567328E+01  0.10711377748E+03  0.00000000000E+00 0. -1.
</event>
<event>
 7    1  0.2601031E-009  0.1154526E+03  0.7561462E-02  0.1250793E+00
          1   -1    0    0  501    0  0.00000000000E+00  0.00000000000E+00  0.34734298355E+02  0.34734298355E+02  0.00000000000E+00 0. -1.
         -1   -1    0    0    0  501 -0.00000000000E+00 -0.00000000000E+00 -0.59208422059E+03  0.59208422059E+03  0.00000000000E+00 0.  1.
         25    2    1    2    0    0  0.60207992574E+02  0.60029854356E+02 -0.38397994339E+03  0.41269425617E+03  0.12508943348E+03 0.  0.
          5    1    3    3  502    0  0.65605457682E+02  0.75999565388E+02 -0.38225379320E+03  0.39524099589E+03  0.41800000000E+01 0.  1.
         -5    1    3    3    0  502 -0.53974651084E+01 -0.15969711032E+02 -0.17261501907E+01  0.17453260283E+02  0.41800000000E+01 0.  1.
        -11    1    1    2    0    0 -0.32282701905E+01  0.16962846593E+02 -0.74464658350E+02  0.76440468576E+02  0.00000000000E+00 0.  1.
         11    1    1    2    0    0 -0.56979722383E+02 -0.76992700950E+02 -0.98905320503E+02  0.13768379420E+03  0.00000000000E+00 0. -1.
</event>
<event>
 7    1  0.2601031E-009  0.1095321E+03  0.7561462E-02  0.1261439E+00
         -2   -1    0    0    0  501 -0.00000000000E+00  0.00000000000E+00  0.46657487191E+02  0.46657487191E+02  0.00000000000E+00 0.  1.
          2   -1    0    0  501    0  0.00000000000E+00 -0.00000000000E+00 -0.42760901987E+03  0.42760901987E+03  0.00000000000E+00 0. -1.
         25    2    1    2    0    0  0.59616987898E+01  0.46597980792E+02 -0.77934908923E+02  0.15468460054E+03  0.12508621807E+03 0.  0.
          5    1    3    3  502    0  0.90772242879E+01  0.84806550549E+02 -0.78680537065E+02  0.11611479806E+03  0.41800000000E+01 0. -1.
         -5    1    3    3    0  502 -0.31155254981E+01 -0.38208569757E+02  0.74562814214E+00  0.38569802480E+02  0.41800000000E+01 0. -1.
        -11    1    1    2    0    0  0.28528316896E+02 -0.52848116366E+02 -0.24074626092E+03  0.24812406254E+03  0.00000000000E+00 0. -1.
         11    1    1    2    0    0 -0.34490015686E+02  0.62501355738E+01 -0.62270362835E+02  0.71457843967E+02  0.00000000000E+00 0.  1.
</event>
<event>
 7    1  0.2601031E-009  0.1078241E+03  0.7561462E-02  0.1264653E+00
         -1   -1    0    0    0  501 -0.00000000000E+00  0.00000000000E+00  0.11620431385E+03  0.11620431385E+03  0.00000000000E+00 0.  1.
          1   -1    0    0  501    0  0.00000000000E+00 -0.00000000000E+00 -0.13333097531E+03  0.13333097531E+03  0.00000000000E+00 0. -1.
         25    2    1    2    0    0 -0.42761620593E+02 -0.18973936730E+02  0.26682864269E+02  0.13619083139E+03  0.12508957126E+03 0.  0.
          5    1    3    3  502    0 -0.84436044961E+02 -0.10823614555E+02  0.35992755113E+02  0.92517820669E+02  0.41800000000E+01 0. -1.
         -5    1    3    3    0  502  0.41674424367E+02 -0.81503221750E+01 -0.93098908445E+01  0.43673010721E+02  0.41800000000E+01 0. -1.
        -11    1    1    2    0    0 -0.11289299052E+02  0.30465938221E+02  0.12160964844E+02  0.34691652177E+02  0.00000000000E+00 0.  1.
         11    1    1    2    0    0  0.54050919645E+02 -0.11492001492E+02 -0.55970490571E+02  0.78652805593E+02  0.00000000000E+00 0. -1.
</event>
<event>
 7    1  0.2601031E-009  0.2620790E+03  0.7561462E-02  0.1105901E+00
          2   -1    0    0  501    0  0.00000000000E+00  0.00000000000E+00  0.11892156412E+04  0.11892156412E+04  0.00000000000E+00 0. -1.
         -2   -1    0    0    0  501 -0.00000000000E+00 -0.00000000000E+00 -0.66745681743E+02  0.66745681743E+02  0.00000000000E+00 0.  1.
         25    2    1    2    0    0  0.16933235042E+03  0.18802596705E+03  0.70091420347E+03  0.75561589815E+03  0.12508979063E+03 0.  0.
          5    1    3    3  502    0  0.58836606029E+01  0.50306175730E+02  0.53366646532E+02  0.73693962716E+02  0.41800000000E+01 0.  1.
         -5    1    3    3    0  502  0.16344868982E+03  0.13771979132E+03  0.64754755694E+03  0.68192193543E+03  0.41800000000E+01 0.  1.
        -11    1    1    2    0    0 -0.20811452734E+02 -0.59899003301E+02  0.52186035990E+02  0.82124232196E+02  0.00000000000E+00 0.  1.
         11    1    1    2    0    0 -0.14852089769E+03 -0.12812696375E+03  0.36936972000E+03  0.41822119261E+03  0.00000000000E+00 0. -1.
</event>
<event>
 7    1  0.2601031E-009  0.1145592E+03  0.7561462E-02  0.1252353E+00
         -1   -1    0    0    0  501 -0.00000000000E+00  0.00000000000E+00  0.10156147009E+03  0.10156147009E+03  0.00000000000E+00 0.  1.
          1   -1    0    0  501    0  0.00000000000E+00 -0.00000000000E+00 -0.23897911102E+03  0.23897911102E+03  0.00000000000E+00 0. -1.
         25    2    1    2    0    0  0.15582125444E+02 -0.10920448675E+03 -0.51314658295E+02  0.17449924405E+03  0.12509344291E+03 0.  0.
          5    1    3    3  502    0  0.18951936927E+02 -0.28614319886E+02  0.39812401664E+02  0.52730019364E+02  0.41800000000E+01 0. -1.
         -5    1    3    3    0  502 -0.33698114830E+01 -0.80590166865E+02 -0.91127059960E+02  0.12176922469E+03  0.41800000000E+01 0. -1.
        -11    1    1    2    0    0 -0.23655974203E+02  0.86538694226E+02 -0.10303567992E+03  0.13661955223E+03  0.00000000000E+00 0. -1.
         11    1    1    2    0    0  0.80738487590E+01  0.22665792525E+02  0.16932697294E+02  0.29421784824E+02  0.00000000000E+00 0.  1.
</event>
<event>
 7    1  0.2601031E-009  0.5010996E+02  0.7561462E-02  0.1444749E+00
          1   -1    0    0  501    0  0.00000000000E+00  0.00000000000E+00  0.37268083739E+03  0.37268083739E+03  0.00000000000E+00 0. -1.
         -1   -1    0    0    0  501 -0.00000000000E+00 -0.00000000000E+00 -0.34278988483E+02  0.34278988483E+02  0.00000000000E+00 0.  1.
         25    2    1    2    0    0 -0.27754456639E+01  0.77289114150E+01  0.12877620235E+03  0.17970988648E+03  0.12507955003E+03 0.  0.
          5    1    3    3  502    0 -0.92219612045E+01 -0.13506845955E+01  0.15267425252E+03  0.15301558319E+03  0.41800000000E+01 0. -1.
         -5    1    3    3    0  502  0.64465155405E+01  0.90795960105E+01 -0.23898050167E+02  0.26694303290E+02  0.41800000000E+01 0. -1.
        -11    1    1    2    0    0  0.39340176846E+02  0.44040454634E+01  0.15770546489E+03  0.16259784373E+03  0.00000000000E+00 0. -1.
         11    1    1    2    0    0 -0.36564731182E+02 -0.12132956878E+02  0.51920181672E+02  0.64652095665E+02  0.00000000000E+00 0.  1.
</event>
<event>
 7    1  0.2601031E-009  0.1061600E+03  0.7561462E-02  0.1267851E+00
         -1   -1    0    0    0  501 -0.00000000000E+00  0.00000000000E+00  0.65919927070E+02  0.65919927070E+02  0.00000000000E+00 0.  1.
          1   -1    0    0  501    0  0.00000000000E+00 -0.00000000000E+00 -0.25962710533E+03  0.25962710533E+03  0.00000000000E+00 0. -1.
         25    2    1    2    0    0 -0.31561507185E+02  0.75917014069E+00 -0.18777630978E+03  0.22782609309E+03  0.12509229034E+03 0.  0.
          5    1    3    3  502    0 -0.71285321299E+02 -0.18697397131E+02 -0.15785319217E+03  0.17425926767E+03  0.41800000000E+01 0. -1.
         -5    1    3    3    0  502  0.39723814114E+02  0.19456567272E+02 -0.29923117615E+02  0.53566825419E+02  0.41800000000E+01 0. -1.
        -11    1    1    2    0    0 -0.18747977644E+02  0.29803528599E+02  0.10251350028E+02  0.36671885145E+02  0.00000000000E+00 0.  1.
         11    1    1    2    0    0  0.50309484829E+02 -0.30562698739E+02 -0.16182218500E+02  0.61049054158E+02  0.00000000000E+00 0. -1.
</event>
<event>
 7    1  0.2601031E-009  0.1082822E+03  0.7561462E-02  0.1263785E+00
          3   -1    0    0  501    0  0.00000000000E+00  0.00000000000E+00  0.16278080660E+03  0.16278080660E+03  0.00000000000E+00 0. -1.
         -3   -1    0    0    0  501 -0.00000000000E+00 -0.00000000000E+00 -0.81758076802E+02  0.81758076802E+02  0.00000000000E+00 0.  1.
         25    2    1    2    0    0 -0.33928620809E+02  0.16538971576E+02  0.58114815929E+02  0.14300663539E+03  0.12509547172E+03 0.  0.
          5    1    3    3  502    0 -0.79997773077E+02  0.10484798120E+02  0.21226946784E+02  0.83532211503E+02  0.41800000000E+01 0. -1.
         -5    1    3    3    0  502  0.46069152267E+02  0.60541734561E+01  0.36887869145E+02  0.59474423889E+02  0.41800000000E+01 0. -1.
        -11    1    1    2    0    0  0.32902960048E+02 -0.47697833627E+02  0.35448788531E+02  0.67928673775E+02  0.00000000000E+00 0. -1.
         11    1    1    2    0    0  0.10256607619E+01  0.31158862050E+02 -0.12540874659E+02  0.33603574237E+02  0.00000000000E+00 0.  1.
</event>
<event>
 7    1  0.3147705E-009  0.1210183E+03  0.7561462E-02  0.1241427E+00
         -1   -1    0    0    0  501 -0.00000000000E+00  0.00000000000E+00  0.36471098727E+02  0.36471098727E+02  0.00000000000E+00 0.  1.
          1   -1    0    0  501    0  0.00000000000E+00 -0.00000000000E+00 -0.67060224198E+03  0.67060224198E+03  0.00000000000E+00 0. -1.
         25    2    1    2    0    0  0.61661481227E+02 -0.88607135815E+02 -0.41116211696E+03  0.44311951140E+03  0.12508897705E+03 0.  0.
          5    1    3    3  502    0  0.17347879850E+02 -0.65250455974E+02 -0.37535921440E+03  0.38140606075E+03  0.41800000000E+01 0. -1.
         -5    1    3    3    0  502  0.44313601377E+02 -0.23356679841E+02 -0.35802902557E+02  0.61713450655E+02  0.41800000000E+01 0. -1.
        -11    1    1    2    0    0 -0.39886208498E+02  0.80695316180E+01 -0.14191505679E+03  0.14763438052E+03  0.00000000000E+00 0. -1.
         11    1    1    2    0    0 -0.21775272729E+02  0.80537604197E+02 -0.81053969512E+02  0.11631944879E+03  0.00000000000E+00 0.  1.
</event>
<event>
 7    1  0.2601031E-009  0.1034412E+03  0.7561462E-02  0.1273222E+00
         -1   -1    0    0    0  501 -0.00000000000E+00  0.00000000000E+00  0.63995133910E+03  0.63995133910E+03  0.00000000000E+00 0.  1.
          1   -1    0    0  501    0  0.00000000000E+00 -0.00000000000E+00 -0.33685017856E+02  0.33685017856E+02  0.00000000000E+00 0. -1.
         25    2    1    2    0    0  0.12257423272E+02 -0.37993013389E+02  0.53868656717E+03  0.55445783951E+03  0.12508622889E+03 0.  0.
          5    1    3    3  502    0  0.42202111353E+02  0.21316650324E+02  0.99347135654E+02  0.11010333122E+03  0.41800000000E+01 0.  1.
         -5    1    3    3    0  502 -0.29944688081E+02 -0.59309663714E+02  0.43933943152E+03  0.44435450829E+03  0.41800000000E+01 0.  1.
        -11    1    1    2    0    0  0.14389513881E+02 -0.22520685903E+02  0.38687449412E+02  0.47020826718E+02  0.00000000000E+00 0.  1.
         11    1    1    2    0    0 -0.26646937153E+02  0.60513699292E+02  0.28892304660E+02  0.72157690721E+02  0.00000000000E+00 0. -1.
</event>
<event>
 7    1  0.2601031E-009  0.2248874E+03  0.7561462E-02  0.1130291E+00
          2   -1    0    0  501    0  0.00000000000E+00  0.00000000000E+00  0.16186725709E+04  0.16186725709E+04  0.00000000000E+00 0. -1.
         -2   -1    0    0    0  501 -0.00000000000E+00 -0.00000000000E+00 -0.44104191854E+02  0.44104191854E+02  0.00000000000E+00 0.  1.
         25    2    1    2    0    0 -0.20947204408E+03 -0.54305835836E+02  0.45679484950E+03  0.52070787030E+03  0.12508993009E+03 0.  0.
          5    1    3    3  502    0 -0.23925910276E+02 -0.17399192527E+02  0.19728515858E+03  0.19953467689E+03  0.41800000000E+01 0. -1.
         -5    1    3    3    0  502 -0.18554613380E+03 -0.36906643309E+02  0.25950969092E+03  0.32117319342E+03  0.41800000000E+01 0. -1.
        -11    1    1    2    0    0  0.13245224817E+01 -0.12111019312E+02  0.26897562591E+02  0.29528122560E+02  0.00000000000E+00 0.  1.
         11    1    1    2    0    0  0.20814752159E+03  0.66416855148E+02  0.10908759669E+04  0.11125407699E+04  0.00000000000E+00 0. -1.
</event>
<event>
 7    1  0.2601031E-009  0.7801916E+02  0.7561462E-02  0.1334769E+00
          2   -1    0    0  501    0  0.00000000000E+00  0.00000000000E+00  0.45960182518E+02  0.45960182518E+02  0.00000000000E+00 0. -1.
         -2   -1    0    0    0  501 -0.00000000000E+00 -0.00000000000E+00 -0.36382553038E+03  0.36382553038E+03  0.00000000000E+00 0.  1.
         25    2    1    2    0    0  0.35852689245E+02  0.40546746581E+02 -0.10701326704E+03  0.17329063145E+03  0.12509336369E+03 0.  0.
          5    1    3    3  502    0  0.52340024781E+01  0.15841300487E+02 -0.12755649922E+03  0.12871081725E+03  0.41800000000E+01 0. -1.
         -5    1    3    3    0  502  0.30618686767E+02  0.24705446094E+02  0.20543232177E+02  0.44579814202E+02  0.41800000000E+01 0. -1.
        -11    1    1    2    0    0 -0.28224792497E+02  0.22297246873E+02 -0.12339566854E+03  0.12853130803E+03  0.00000000000E+00 0.  1.
         11    1    1    2    0    0 -0.76278967481E+01 -0.62843993454E+02 -0.87456412280E+02  0.10796377342E+03  0.00000000000E+00 0. -1.
</event>
<event>
 7    1  0.2601031E-009  0.1020595E+03  0.7561462E-02  0.1276024E+00
         -1   -1    0    0    0  501 -0.00000000000E+00  0.00000000000E+00  0.52326798806E+02  0.52326798806E+02  0.00000000000E+00 0.  1.
          1   -1    0    0  501    0  0.00000000000E+00 -0.00000000000E+00 -0.47633367988E+03  0.47633367988E+03  0.00000000000E+00 0. -1.
         25    2    1    2    0    0  0.91384290149E+02  0.29725847206E+01 -0.11626636819E+03  0.19372697335E+03  0.12510934052E+03 0.  0.
          5    1    3    3  502    0 -0.74401096481E+01  0.59136944171E+01 -0.91007268657E+02  0.91597611113E+02  0.41800000000E+01 0. -1.
         -5    1    3    3    0  502  0.98824399797E+02 -0.29411096966E+01 -0.25259099532E+02  0.10212936224E+03  0.41800000000E+01 0. -1.
        -11    1    1    2    0    0 -0.18477672571E+02  0.95595935601E+01 -0.26141387986E+01  0.20967687863E+02  0.00000000000E+00 0.  1.
         11    1    1    2    0    0 -0.72906617578E+02 -0.12532178281E+02 -0.30512637409E+03  0.31396581748E+03  0.00000000000E+00 0. -1.
</event>
<event>
 7    1  0.2601031E-009  0.9091593E+02  0.7561462E-02  0.1300649E+00
         -2   -1    0    0    0  501 -0.00000000000E+00  0.00000000000E+00  0.59253326605E+02  0.59253326605E+02  0.00000000000E+00 0.  1.
          2   -1    0    0  501    0  0.00000000000E+00 -0.00000000000E+00 -0.31981424784E+03  0.31981424784E+03  0.00000000000E+00 0. -1.
         25    2    1    2    0    0 -0.60102541613E+02 -0.56055971553E+02 -0.11032502733E+03  0.18593713940E+03  0.12508565344E+03 0.  0.
          5    1    3    3  502    0 -0.21093616982E+02 -0.17827950018E+02 -0.12592175403E+03  0.12898270046E+03  0.41800000000E+01 0. -1.
         -5    1    3    3    0  502 -0.39008924631E+02 -0.38228021535E+02  0.15596726699E+02  0.56954438941E+02  0.41800000000E+01 0. -1.
        -11    1    1    2    0    0  0.50519686910E+02  0.67425552036E+02 -0.64479639498E+02  0.10609461694E+03  0.00000000000E+00 0.  1.
         11    1    1    2    0    0  0.95828547027E+01 -0.11369580482E+02 -0.85756254407E+02  0.87035818113E+02  0.00000000000E+00 0. -1.
</event>
<event>
 7    1  0.2601031E-009  0.1370563E+03  0.7561462E-02  0.1217346E+00
          2   -1    0    0  501    0  0.00000000000E+00  0.00000000000E+00  0.86667369799E+03  0.86667369799E+03  0.00000000000E+00 0.  1.
         -2   -1    0    0    0  501 -0.00000000000E+00 -0.00000000000E+00 -0.26778832488E+02  0.26778832488E+02  0.00000000000E+00 0. -1.
         25    2    1    2    0    0 -0.98874194645E+02  0.20550365609E+02  0.33615671332E+03  0.37262412989E+03  0.12509589272E+03 0.  0.
          5    1    3    3  502    0 -0.12568731958E+03  0.18997862338E+01  0.28823176464E+03  0.31447723930E+03  0.41800000000E+01 0.  1.
         -5    1    3    3    0  502  0.26813124932E+02  0.18650579375E+02  0.47924948678E+02  0.58146890591E+02  0.41800000000E+01 0.  1.
        -11    1    1    2    0    0  0.73168468483E+02  0.11778388048E+02  0.42974200932E+03  0.43608548449E+03  0.00000000000E+00 0.  1.
         11    1    1    2    0    0  0.25705726162E+02 -0.32328753657E+02  0.73996142863E+02  0.84742916100E+02  0.00000000000E+00 0. -1.
</event>
<event>
 7    1  0.2601031E-009  0.1710285E+03  0.7561462E-02  0.1176779E+00
         -2   -1    0    0    0  501 -0.00000000000E+00  0.00000000000E+00  0.18762584147E+02  0.18762584147E+02  0.00000000000E+00 0. -1.
          2   -1    0    0  501    0  0.00000000000E+00 -0.00000000000E+00 -0.23167859245E+04  0.23167859245E+04  0.00000000000E+00 0.  1.
         25    2    1    2    0    0 -0.14836449238E+03  0.58598238093E+02 -0.16315442777E+04  0.16440893140E+04  0.12508863299E+03 0.  0.
          5    1    3    3  502    0  0.67214263983E+01 -0.84021566430E+01 -0.15993467351E+02  0.19724026135E+02  0.41800000000E+01 0.  1.
         -5    1    3    3    0  502 -0.15508591878E+03  0.67000394736E+02 -0.16155508103E+04  0.16243652878E+04  0.41800000000E+01 0.  1.
        -11    1    1    2    0    0  0.12668876525E+03 -0.59200183024E+02 -0.64815873857E+03  0.66307198349E+03  0.00000000000E+00 0.  1.
         11    1    1    2    0    0  0.21675727131E+02  0.60194493055E+00 -0.18320324089E+02  0.28387211189E+02  0.00000000000E+00 0. -1.
</event>
<event>
 7    1  0.2601031E-009  0.1064758E+03  0.7561462E-02  0.1267239E+00
         -1   -1    0    0    0  501 -0.00000000000E+00  0.00000000000E+00  0.52562813471E+02  0.52562813471E+02  0.00000000000E+00 0.  1.
          1   -1    0    0  501    0  0.00000000000E+00 -0.00000000000E+00 -0.27219706267E+03  0.27219706267E+03  0.00000000000E+00 0. -1.
         25    2    1    2    0    0 -0.32876947095E+01 -0.49553398452E+02 -0.15878974511E+03  0.20815374118E+03  0.12508976209E+03 0.  0.
          5    1    3    3  502    0 -0.58160996869E+02 -0.45870515188E+02 -0.11865953784E+03  0.13994414615E+03  0.41800000000E+01 0. -1.
         -5    1    3    3    0  502  0.54873302160E+02 -0.36828832644E+01 -0.40130207273E+02  0.68209595035E+02  0.41800000000E+01 0. -1.
        -11    1    1    2    0    0  0.30994505637E+02  0.46288190910E+02 -0.72388646836E+01  0.56175236175E+02  0.00000000000E+00 0.  1.
         11    1    1    2    0    0 -0.27706810927E+02  0.32652075418E+01 -0.53605639404E+02  0.60430898785E+02  0.00000000000E+00 0. -1.
</event>
<event>
 7    1  0.2601031E-009  0.1061852E+03  0.7561462E-02  0.1267802E+00
         -1   -1    0    0    0  501 -0.00000000000E+00  0.00000000000E+00  0.16750417813E+03  0.16750417813E+03  0.00000000000E+00 0.  1.
          1   -1    0    0  501    0  0.00000000000E+00 -0.00000000000E+00 -0.15780739889E+03  0.15780739889E+03  0.00000000000E+00 0. -1.
         25    2    1    2    0    0  0.90889129068E+02  0.10374488290E+02  0.85112018953E+02  0.17680443004E+03  0.12508911592E+03 0.  0.
          5    1    3    3  502    0  0.40502151367E+02  0.57390347985E+01  0.11203004656E+03  0.11933802628E+03  0.41800000000E+01 0.  1.
         -5    1    3    3    0  502  0.50386977701E+02  0.46354534911E+01 -0.26918027603E+02  0.57466403759E+02  0.41800000000E+01 0.  1.
        -11    1    1    2    0    0 -0.90834169071E+02 -0.33899250391E+02 -0.78542307116E+02  0.12477539603E+03  0.00000000000E+00 0.  1.
         11    1    1    2    0    0 -0.54959996795E-01  0.23524762101E+02  0.31270673996E+01  0.23731750947E+02  0.00000000000E+00 0. -1.
</event>
<event>
 7    1  0.2601031E-009  0.1146070E+03  0.7561462E-02  0.1252269E+00
          1   -1    0    0  501    0  0.00000000000E+00  0.00000000000E+00  0.83679682986E+02  0.83679682986E+02  0.00000000000E+00 0. -1.
         -1   -1    0    0    0  501 -0.00000000000E+00 -0.00000000000E+00 -0.21671610333E+03  0.21671610333E+03  0.00000000000E+00 0.  1.
         25    2    1    2    0    0 -0.34413793451E+02  0.71600547995E+02 -0.70408400293E+02  0.16405868986E+03  0.12508782209E+03 0.  0.
          5    1    3    3  502    0 -0.45783979130E+02 -0.41170857107E+01  0.15701163296E+02  0.48755738827E+02  0.41800000000E+01 0.  1.
         -5    1    3    3    0  502  0.11370185679E+02  0.75717633706E+02 -0.86109563589E+02  0.11530295104E+03  0.41800000000E+01 0.  1.
        -11    1    1    2    0    0  0.56408906481E+02 -0.47476786832E+02 -0.99975909193E+01  0.74404044530E+02  0.00000000000E+00 0. -1.
         11    1    1    2    0    0 -0.21995113030E+02 -0.24123761164E+02 -0.52630429135E+02  0.61933051925E+02  0.00000000000E+00 0.  1.
</event>
<event>
 7    1  0.2601031E-009  0.1121602E+03  0.7561462E-02  0.1256621E+00
          2   -1    0    0  501    0  0.00000000000E+00  0.00000000000E+00  0.27113278122E+03  0.27113278122E+03  0.00000000000E+00 0. -1.
         -2   -1    0    0    0  501 -0.00000000000E+00 -0.00000000000E+00 -0.60610723551E+02  0.60610723551E+02  0.00000000000E+00 0.  1.
         25    2    1    2    0    0  0.65278878221E+02  0.12670999562E+02  0.99017898812E+02  0.17284130668E+03  0.12509071444E+03 0.  0.
          5    1    3    3  502    0 -0.29584138637E+02  0.19775580369E+02  0.50771715532E+00  0.35833294777E+02  0.41800000000E+01 0.  1.
         -5    1    3    3    0  502  0.94863016859E+02 -0.71045808067E+01  0.98510181657E+02  0.13700801190E+03  0.41800000000E+01 0.  1.
        -11    1    1    2    0    0 -0.69035437821E+02  0.10471206052E+02  0.33489597409E+02  0.77440886913E+02  0.00000000000E+00 0.  1.
         11    1    1    2    0    0  0.37565595991E+01 -0.23142205614E+02  0.78014561447E+02  0.81461311175E+02  0.00000000000E+00 0. -1.
</event>
<event>
 7    1  0.2601031E-009  0.1775131E+03  0.7561462E-02  0.1170232E+00
          1   -1    0    0  501    0  0.00000000000E+00  0.00000000000E+00  0.12428696878E+04  0.12428696878E+04  0.00000000000E+00 0.  1.
         -1   -1    0    0    0  501 -0.00000000000E+00 -0.00000000000E+00 -0.48706115634E+02  0.48706115634E+02  0.00000000000E+00 0. -1.
         25    2    1    2    0    0  0.13315673576E+03 -0.11694946346E+03  0.96213450497E+03  0.98628478128E+03  0.12508785247E+03 0.  0.
          5    1    3    3  502    0  0.60855967320E+02 -0.53567392094E+02  0.17070656900E+03  0.18902676888E+03  0.41800000000E+01 0.  1.
         -5    1    3    3    0  502  0.72300768436E+02 -0.63382071363E+02  0.79142793597E+03  0.79725801239E+03  0.41800000000E+01 0.  1.
        -11    1    1    2    0    0 -0.18182514654E+02  0.21628169393E+02 -0.12682074232E+01  0.28284092711E+02  0.00000000000E+00 0. -1.
         11    1    1    2    0    0 -0.11497422110E+03  0.95321294063E+02  0.23329727463E+03  0.27700692946E+03  0.00000000000E+00 0.  1.
</event>
<event>
 7    1  0.2601031E-009  0.1635634E+03  0.7561462E-02  0.1184731E+00
          1   -1    0    0  501    0  0.00000000000E+00  0.00000000000E+00  0.61314804135E+03  0.61314804135E+03  0.00000000000E+00 0. -1.
         -1   -1    0    0    0  501 -0.00000000000E+00 -0.00000000000E+00 -0.74379243250E+02  0.74379243250E+02  0.00000000000E+00 0.  1.
         25    2    1    2    0    0  0.11125978051E+03 -0.64093442518E+02  0.49203662506E+03  0.52367392884E+03  0.12509050807E+03 0.  0.
          5    1    3    3  502    0 -0.25052561154E+02  0.41853952018E+01  0.53434088137E+02  0.59311234420E+02  0.41800000000E+01 0.  1.
         -5    1    3    3    0  502  0.13631234166E+03 -0.68278837720E+02  0.43860253692E+03  0.46436269442E+03  0.41800000000E+01 0.  1.
        -11    1    1    2    0    0 -0.84023522068E+02  0.81086405564E+02  0.13332992226E+02  0.11752755468E+03  0.00000000000E+00 0.  1.
         11    1    1    2    0    0 -0.27236258439E+02 -0.16992963045E+02  0.33399180808E+02  0.46325801077E+02  0.00000000000E+00 0. -1.
</event>
<event>
 7    1  0.2601031E-009  0.3379661E+03  0.7561462E-02  0.1067666E+00
         -2   -1    0    0    0  501 -0.00000000000E+00  0.00000000000E+00  0.36085457183E+03  0.36085457183E+03  0.00000000000E+00 0.  1.
          2   -1    0    0  501    0  0.00000000000E+00 -0.00000000000E+00 -0.34326773849E+03  0.34326773849E+03  0.00000000000E+00 0. -1.
         25    2    1    2    0    0  0.13776079094E+03  0.30435789948E+03 -0.90483284622E+01  0.35684877037E+03  0.12508959257E+03 0.  0.
          5    1    3    3  502    0  0.72440434397E+02  0.81086742425E+02 -0.51426955240E+02  0.12035314893E+03  0.41800000000E+01 0.  1.
         -5    1    3    3    0  502  0.65320356540E+02  0.22327115705E+03  0.42378626777E+02  0.23649562144E+03  0.41800000000E+01 0.  1.
        -11    1    1    2    0    0 -0.12487221474E+03 -0.26313330657E+03  0.53886858165E+02  0.29620263423E+03  0.00000000000E+00 0. -1.
         11    1    1    2    0    0 -0.12888576192E+02 -0.41224592906E+02 -0.27251696365E+02  0.51070905722E+02  0.00000000000E+00 0.  1.
</event>
<event>
 7    1  0.2601031E-009  0.6904500E+02  0.7561462E-02  0.1363371E+00
         -2   -1    0    0    0  501 -0.00000000000E+00  0.00000000000E+00  0.65579862840E+03  0.65579862840E+03  0.00000000000E+00 0.  1.
          2   -1    0    0  501    0  0.00000000000E+00 -0.00000000000E+00 -0.34697323230E+02  0.34697323230E+02  0.00000000000E+00 0. -1.
         25    2    1    2    0    0  0.22125116870E+01  0.37791342220E+02  0.55910913388E+03  0.57418128910E+03  0.12509215965E+03 0.  0.
          5    1    3    3  502    0  0.12450615944E+02  0.50093206512E+02  0.55463203356E+03  0.55704444367E+03  0.41800000000E+01 0.  1.
         -5    1    3    3    0  502 -0.10238104257E+02 -0.12301864293E+02  0.44771003233E+01  0.17136845426E+02  0.41800000000E+01 0.  1.
        -11    1    1    2    0    0  0.22539547914E+02  0.22882202367E+01 -0.14198953072E+02  0.26737192081E+02  0.00000000000E+00 0. -1.
         11    1    1    2    0    0 -0.24752059601E+02 -0.40079562456E+02  0.76191124358E+02  0.89577470449E+02  0.00000000000E+00 0.  1.
</event>
<event>
 7    1  0.2601031E-009  0.8460382E+02  0.7561462E-02  0.1316472E+00
         -1   -1    0    0    0  501 -0.00000000000E+00  0.00000000000E+00  0.34763134281E+02  0.34763134281E+02  0.00000000000E+00 0.  1.
          1   -1    0    0  501    0  0.00000000000E+00 -0.00000000000E+00 -0.44279722256E+03  0.44279722256E+03  0.00000000000E+00 0. -1.
         25    2    1    2    0    0 -0.24869816096E+02 -0.54785723345E+02 -0.23275396842E+03  0.27100144436E+03  0.12508952713E+03 0.  0.
          5    1    3    3  502    0 -0.23703818895E+02 -0.56548854757E+00  0.70649280505E+01  0.25091361379E+02  0.41800000000E+01 0.  1.
         -5    1    3    3    0  502 -0.11659972015E+01 -0.54220234797E+02 -0.23981889647E+03  0.24591008298E+03  0.41800000000E+01 0.  1.
        -11    1    1    2    0    0  0.47647241581E+02  0.46281295726E+02 -0.62561036262E+02  0.91247472417E+02  0.00000000000E+00 0.  1.
         11    1    1    2    0    0 -0.22777425485E+02  0.85044276193E+01 -0.11271908360E+03  0.11531144006E+03  0.00000000000E+00 0. -1.
</event>
<event>
 7    1  0.2601031E-009  0.1784584E+03  0.7561462E-02  0.1169303E+00
          2   -1    0    0  501    0  0.00000000000E+00  0.00000000000E+00  0.45168147480E+03  0.45168147480E+03  0.00000000000E+00 0. -1.
         -2   -1    0    0    0  501 -0.00000000000E+00 -0.00000000000E+00 -0.79144052666E+02  0.79144052666E+02  0.00000000000E+00 0.  1.
         25    2    1    2    0    0 -0.11346168693E+03  0.96645728612E+02  0.15820469679E+03  0.25077849738E+03  0.12508867814E+03 0.  0.
          5    1    3    3  502    0  0.20125412011E+02  0.46117594590E+02  0.54028616948E+02  0.73948824120E+02  0.41800000000E+01 0. -1.
         -5    1    3    3    0  502 -0.13358709895E+03  0.50528134022E+02  0.10417607984E+03  0.17682967326E+03  0.41800000000E+01 0. -1.
        -11    1    1    2    0    0  0.95976747983E+02 -0.39512271452E+02  0.73842538759E+02  0.12737926157E+03  0.00000000000E+00 0.  1.
         11    1    1    2    0    0  0.17484938951E+02 -0.57133457159E+02  0.14049018659E+03  0.15266776852E+03  0.00000000000E+00 0. -1.
</event>
<event>
 7    1  0.2601031E-009  0.8068756E+02  0.7561462E-02  0.1327111E+00
         -2   -1    0    0    0  501 -0.00000000000E+00  0.00000000000E+00  0.44651364555E+02  0.44651364555E+02  0.00000000000E+00 0. -1.
          2   -1    0    0  501    0  0.00000000000E+00 -0.00000000000E+00 -0.30542543161E+03  0.30542543161E+03  0.00000000000E+00 0.  1.
         25    2    1    2    0    0 -0.15056366784E+02 -0.13168503662E+01 -0.20307015365E+03  0.23898560598E+03  0.12509278271E+03 0.  0.
          5    1    3    3  502    0  0.25638857514E+02 -0.65731004649E+01  0.46617757513E+01  0.27198551754E+02  0.41800000000E+01 0. -1.
         -5    1    3    3    0  502 -0.40695224297E+02  0.52562500987E+01 -0.20773192940E+03  0.21178705423E+03  0.41800000000E+01 0. -1.
        -11    1    1    2    0    0 -0.38824702442E+02 -0.47401181640E+01 -0.34349385611E+02  0.52054841578E+02  0.00000000000E+00 0.  1.
         11    1    1    2    0    0  0.53881069225E+02  0.60569685302E+01 -0.23354527802E+02  0.59036348612E+02  0.00000000000E+00 0. -1.
</event>
<event>
 7    1  0.2601031E-009  0.3370241E+03  0.7561462E-02  0.1068071E+00
         -2   -1    0    0    0  501 -0.00000000000E+00  0.00000000000E+00  0.79684895041E+02  0.79684895041E+02  0.00000000000E+00 0.  1.
          2   -1    0    0  501    0  0.00000000000E+00 -0.00000000000E+00 -0.15384261289E+04  0.15384261289E+04  0.00000000000E+00 0. -1.
         25    2    1    2    0    0 -0.31749596842E+03 -0.93580596874E+02 -0.81785295202E+03  0.89112112177E+03  0.12510948990E+03 0.  0.
          5    1    3    3  502    0 -0.10287745758E+02  0.45735624751E+01 -0.45808906252E-01  0.12009566393E+02  0.41800000000E+01 0.  1.
         -5    1    3    3    0  502 -0.30720822266E+03 -0.98154159349E+02 -0.81780714311E+03  0.87911155537E+03  0.41800000000E+01 0.  1.
        -11    1    1    2    0    0  0.17318538396E+03  0.11694735423E+02 -0.27442650852E+03  0.32471503296E+03  0.00000000000E+00 0.  1.
         11    1    1    2    0    0  0.14431058446E+03  0.81885861450E+02 -0.36646177332E+03  0.40227486921E+03  0.00000000000E+00 0. -1.
</event>
<event>
 7    1  0.2601031E-009  0.9816358E+02  0.7561462E-02  0.1284206E+00
         -2   -1    0    0    0  501 -0.00000000000E+00  0.00000000000E+00  0.30792160103E+02  0.30792160103E+02  0.00000000000E+00 0. -1.
          2   -1    0    0  501    0  0.00000000000E+00 -0.00000000000E+00 -0.48142442916E+03  0.48142442916E+03  0.00000000000E+00 0.  1.
         25    2    1    2    0    0  0.43208911343E+01 -0.11738787433E+02 -0.36882236619E+03  0.38965727840E+03  0.12508552107E+03 0.  0.
          5    1    3    3  502    0 -0.59111027285E+01 -0.66264499310E+02 -0.15520819377E+03  0.16891708267E+03  0.41800000000E+01 0. -1.
         -5    1    3    3    0  502  0.10231993863E+02  0.54525711877E+02 -0.21361417242E+03  0.22074019573E+03  0.41800000000E+01 0. -1.
        -11    1    1    2    0    0 -0.36276863433E+02 -0.70612461770E+01 -0.76691146556E+02  0.85131686099E+02  0.00000000000E+00 0.  1.
         11    1    1    2    0    0  0.31955972299E+02  0.18800033610E+02 -0.51187563156E+01  0.37427624765E+02  0.00000000000E+00 0. -1.
</event>
<event>
 7    1  0.2601031E-009  0.1861403E+03  0.7561462E-02  0.1161989E+00
          2   -1    0    0  501    0  0.00000000000E+00  0.00000000000E+00  0.64233702617E+03  0.64233702617E+03  0.00000000000E+00 0.  1.
         -2   -1    0    0    0  501 -0.00000000000E+00 -0.00000000000E+00 -0.78051147768E+02  0.78051147768E+02  0.00000000000E+00 0. -1.
         25    2    1    2    0    0 -0.80697330425E+02  0.16145793327E+03  0.16395802276E+03  0.27406251559E+03  0.12508919166E+03 0.  0.
          5    1    3    3  502    0 -0.78382631555E+01 -0.47467874665E+01 -0.15709011470E+02  0.18660541308E+02  0.41800000000E+01 0. -1.
         -5    1    3    3    0  502 -0.72859067269E+02  0.16620472073E+03  0.17966703423E+03  0.25540197428E+03  0.41800000000E+01 0. -1.
        -11    1    1    2    0    0  0.37194223342E+02 -0.83588441188E+02  0.11256857149E+03  0.14505902605E+03  0.00000000000E+00 0. -1.
         11    1    1    2    0    0  0.43503107083E+02 -0.77869492080E+02  0.28775928415E+03  0.30126663230E+03  0.00000000000E+00 0.  1.
</event>
<event>
 7    1  0.2601031E-009  0.8045891E+02  0.7561462E-02  0.1327754E+00
         -2   -1    0    0    0  501 -0.00000000000E+00  0.00000000000E+00  0.87582013068E+02  0.87582013068E+02  0.00000000000E+00 0. -1.
          2   -1    0    0  501    0  0.00000000000E+00 -0.00000000000E+00 -0.14886131193E+03  0.14886131193E+03  0.00000000000E+00 0.  1.
         25    2    1    2    0    0  0.17087363111E+02  0.34850763550E+02 -0.27922144445E+02  0.13391732049E+03  0.12509056271E+03 0.  0.
          5    1    3    3  502    0  0.24753016134E+02  0.45021755011E+02  0.39647256040E+02  0.65031127497E+02  0.41800000000E+01 0. -1.
         -5    1    3    3    0  502 -0.76656530226E+01 -0.10170991461E+02 -0.67569400485E+02  0.68886192996E+02  0.41800000000E+01 0. -1.
        -11    1    1    2    0    0  0.34437637843E+02 -0.27183011965E+02 -0.22530947013E+02  0.49320488775E+02  0.00000000000E+00 0.  1.
         11    1    1    2    0    0 -0.51525000954E+02 -0.76677515853E+01 -0.10826207408E+02  0.53205515734E+02  0.00000000000E+00 0. -1.
</event>
<event>
 7    1  0.2601031E-009  0.1163654E+03  0.7561462E-02  0.1249216E+00
         -1   -1    0    0    0  501 -0.00000000000E+00  0.00000000000E+00  0.13397788937E+03  0.13397788937E+03  0.00000000000E+00 0.  1.
          1   -1    0    0  501    0  0.00000000000E+00 -0.00000000000E+00 -0.12294602855E+03  0.12294602855E+03  0.00000000000E+00 0. -1.
         25    2    1    2    0    0  0.54885916285E+02  0.31517418930E+02  0.31913575837E+02  0.14377070184E+03  0.12508288005E+03 0.  0.
          5    1    3    3  502    0  0.68543557352E+02 -0.30497009930E+02  0.71252216668E+01  0.75475347319E+02  0.41800000000E+01 0. -1.
         -5    1    3    3    0  502 -0.13657641067E+02  0.62014428860E+02  0.24788354171E+02  0.68295354518E+02  0.41800000000E+01 0. -1.
        -11    1    1    2    0    0  0.14958021247E+02  0.41602892823E+01 -0.30413630789E+02  0.34147318260E+02  0.00000000000E+00 0. -1.
         11    1    1    2    0    0 -0.69843937532E+02 -0.35677708212E+02  0.95319157731E+01  0.79005897827E+02  0.00000000000E+00 0.  1.
</event>
<event>
 7    1  0.2601031E-009  0.2377104E+03  0.7561462E-02  0.1121328E+00
          1   -1    0    0  501    0  0.00000000000E+00  0.00000000000E+00  0.15435044469E+03  0.15435044469E+03  0.00000000000E+00 0.  1.
         -1   -1    0    0    0  501 -0.00000000000E+00 -0.00000000000E+00 -0.41943258717E+03  0.41943258717E+03  0.00000000000E+00 0. -1.
         25    2    1    2    0    0 -0.19772773738E+03 -0.10277054214E+03 -0.71466994839E+02  0.26535509334E+03  0.12509097389E+03 0.  0.
          5    1    3    3  502    0 -0.20383920308E+03 -0.10378918876E+03 -0.89633102273E+02  0.24571158263E+03  0.41800000000E+01 0.  1.
         -5    1    3    3    0  502  0.61114656969E+01  0.10186466163E+01  0.18166107434E+02  0.19643510714E+02  0.41800000000E+01 0.  1.
        -11    1    1    2    0    0  0.12269313140E+03  0.10867342943E+03 -0.14493114919E+03  0.21878884058E+03  0.00000000000E+00 0.  1.
         11    1    1    2    0    0  0.75034605981E+02 -0.59028872896E+01 -0.48683998454E+02  0.89639097935E+02  0.00000000000E+00 0. -1.
</event>
<event>
 7    1  0.3722871E-009  0.1815085E+03  0.7561462E-02  0.1166351E+00
         -1   -1    0    0    0  501 -0.00000000000E+00  0.00000000000E+00  0.56122556561E+02  0.56122556561E+02  0.00000000000E+00 0.  1.
          1   -1    0    0  501    0  0.00000000000E+00 -0.00000000000E+00 -0.92211588055E+03  0.92211588055E+03  0.00000000000E+00 0. -1.
         25    2    1    2    0    0  0.10807726490E+03 -0.11946667374E+03 -0.70108943062E+03  0.73015514277E+03  0.12508861441E+03 0.  0.
          5    1    3    3  502    0  0.50389771964E+02 -0.10777676973E+03 -0.27045628415E+03  0.29549794458E+03  0.41800000000E+01 0.  1.
         -5    1    3    3    0  502  0.57687492940E+02 -0.11689904002E+02 -0.43063314647E+03  0.43465719819E+03  0.41800000000E+01 0.  1.
        -11    1    1    2    0    0 -0.19009328300E+02  0.88722470986E+02 -0.88863584144E+02  0.12700302361E+03  0.00000000000E+00 0. -1.
         11    1    1    2    0    0 -0.89067936604E+02  0.30744202750E+02 -0.76040309223E+02  0.12108027073E+03  0.00000000000E+00 0.  1.
</event>
<event>
 7    1  0.2601031E-009  0.1758811E+03  0.7561462E-02  0.1171850E+00
          1   -1    0    0  501    0  0.00000000000E+00  0.00000000000E+00  0.86538412584E+03  0.86538412584E+03  0.00000000000E+00 0. -1.
         -1   -1    0    0    0  501 -0.00000000000E+00 -0.00000000000E+00 -0.38021143449E+02  0.38021143449E+02  0.00000000000E+00 0.  1.
         25    2    1    2    0    0 -0.12229519921E+03  0.51794306870E+02  0.31794339862E+03  0.36657090718E+03  0.12508980490E+03 0.  0.
          5    1    3    3  502    0 -0.20973951946E+02  0.75341764787E+02  0.13927902423E+03  0.15978863280E+03  0.41800000000E+01 0.  1.
         -5    1    3    3    0  502 -0.10132124727E+03 -0.23547457918E+02  0.17866437440E+03  0.20678227439E+03  0.41800000000E+01 0.  1.
        -11    1    1    2    0    0  0.73116307934E+02 -0.83374285039E+02  0.32949811590E+03  0.34765827227E+03  0.00000000000E+00 0. -1.
         11    1    1    2    0    0  0.49178891277E+02  0.31579978169E+02  0.17992146787E+03  0.18917608984E+03  0.00000000000E+00 0.  1.
</event>
<event>
 7    1  0.2601031E-009  0.9594393E+02  0.7561462E-02  0.1289064E+00
          2   -1    0    0  501    0  0.00000000000E+00  0.00000000000E+00  0.31324576776E+03  0.31324576776E+03  0.00000000000E+00 0. -1.
         -2   -1    0    0    0  501 -0.00000000000E+00 -0.00000000000E+00 -0.47475285753E+02  0.47475285753E+02  0.00000000000E+00 0.  1.
         25    2    1    2    0    0  0.23695262918E+02 -0.18419618438E+02  0.25941733734E+03  0.28955867414E+03  0.12508446357E+03 0.  0.
          5    1    3    3  502    0 -0.14354323321E+02  0.48548392784E+02  0.88527709686E+02  0.10206674690E+03  0.41800000000E+01 0.  1.
         -5    1    3    3    0  502  0.38049586239E+02 -0.66968011222E+02  0.17088962766E+03  0.18749192724E+03  0.41800000000E+01 0.  1.
        -11    1    1    2    0    0  0.13932734178E+02  0.22121999362E+02 -0.12425139271E+02  0.28946295503E+02  0.00000000000E+00 0.  1.
         11    1    1    2    0    0 -0.37627997096E+02 -0.37023809239E+01  0.18778283935E+02  0.42216083872E+02  0.00000000000E+00 0. -1.
</event>
<event>
 7    1  0.2601031E-009  0.8686432E+02  0.7561462E-02  0.1310628E+00
         -2   -1    0    0    0  501 -0.00000000000E+00  0.00000000000E+00  0.21140494237E+03  0.21140494237E+03  0.00000000000E+00 0. -1.
          2   -1    0    0  501    0  0.00000000000E+00 -0.00000000000E+00 -0.16259582886E+03  0.16259582886E+03  0.00000000000E+00 0.  1.
         25    2    1    2    0    0 -0.24810123499E+02 -0.33673871647E+02 -0.12045576642E+03  0.17862880014E+03  0.12509670145E+03 0.  0.
          5    1    3    3  502    0 -0.20990757482E+02  0.26889578210E+02  0.90587150315E+01  0.35541441080E+02  0.41800000000E+01 0.  1.
         -5    1    3    3    0  502 -0.38193660166E+01 -0.60563449857E+02 -0.12951448145E+03  0.14308735906E+03  0.41800000000E+01 0.  1.
        -11    1    1    2    0    0 -0.21690088548E+02  0.21334252727E+02  0.15277633574E+02  0.34044329459E+02  0.00000000000E+00 0.  1.
         11    1    1    2    0    0  0.46500212047E+02  0.12339618919E+02  0.15398724636E+03  0.16132764164E+03  0.00000000000E+00 0. -1.
</event>
<event>
 7    1  0.2601031E-009  0.1192983E+03  0.7561462E-02  0.1244259E+00
          1   -1    0    0  501    0  0.00000000000E+00  0.00000000000E+00  0.42428520198E+03  0.42428520198E+03  0.00000000000E+00 0. -1.
         -1   -1    0    0    0  501 -0.00000000000E+00 -0.00000000000E+00 -0.53945790005E+02  0.53945790005E+02  0.00000000000E+00 0.  1.
         25    2    1    2    0    0 -0.46598184384E+02 -0.87598803123E+02  0.14402732551E+03  0.21502653313E+03  0.12509036078E+03 0.  0.
          5    1    3    3  502    0 -0.51156804971E+02 -0.85846877221E+02  0.35236809774E+02  0.10604626437E+03  0.41800000000E+01 0.  1.
         -5    1    3    3    0  502  0.45586205869E+01 -0.17519259020E+01  0.10879051573E+03  0.10898026876E+03  0.41800000000E+01 0.  1.
        -11    1    1    2    0    0 -0.25934463604E+02  0.28969886484E+02  0.89998800825E+02  0.98038945707E+02  0.00000000000E+00 0. -1.
         11    1    1    2    0    0  0.72532647988E+02  0.58628916639E+02  0.13631328564E+03  0.16516551315E+03  0.00000000000E+00 0.  1.
</event>
<event>
 7    1  0.2601031E-009  0.1615687E+03  0.7561462E-02  0.1186937E+00
          1   -1    0    0  501    0  0.00000000000E+00  0.00000000000E+00  0.59614656414E+03  0.59614656414E+03  0.00000000000E+00 0. -1.
         -1   -1    0    0    0  501 -0.00000000000E+00 -0.00000000000E+00 -0.81235710239E+02  0.81235710239E+02  0.00000000000E+00 0.  1.
         25    2    1    2    0    0 -0.10054591811E+03 -0.81672378616E+02  0.51515206296E+02  0.18729962214E+03  0.12508985928E+03 0.  0.
          5    1    3    3  502    0  0.28474143932E+02 -0.98185267464E+01 -0.12170018848E+01  0.30432447055E+02  0.41800000000E+01 0. -1.
         -5    1    3    3    0  502 -0.12902006204E+03 -0.71853851870E+02  0.52732208180E+02  0.15686717508E+03  0.41800000000E+01 0. -1.
        -11    1    1    2    0    0  0.94848608336E+02  0.92670385530E+02  0.45756561957E+03  0.47639306782E+03  0.00000000000E+00 0. -1.
         11    1    1    2    0    0  0.56973097758E+01 -0.10998006914E+02  0.58300280384E+01  0.13689584423E+02  0.00000000000E+00 0.  1.
</event>
<event>
 7    1  0.2601031E-009  0.1119904E+03  0.7561462E-02  0.1256928E+00
         -1   -1    0    0    0  501 -0.00000000000E+00  0.00000000000E+00  0.64688751868E+02  0.64688751868E+02  0.00000000000E+00 0.  1.
          1   -1    0    0  501    0  0.00000000000E+00 -0.00000000000E+00 -0.26045034891E+03  0.26045034891E+03  0.00000000000E+00 0. -1.
         25    2    1    2    0    0  0.23854197720E+00  0.48973743366E+02 -0.67940986977E+02  0.15054167254E+03  0.12509329725E+03 0.  0.
          5    1    3    3  502    0  0.45359844727E+02  0.42152115191E+02 -0.81788459480E+02  0.10267005811E+03  0.41800000000E+01 0.  1.
         -5    1    3    3    0  502 -0.45121302749E+02  0.68216281742E+01  0.13847472503E+02  0.47871614423E+02  0.41800000000E+01 0.  1.
        -11    1    1    2    0    0  0.54389417222E+01 -0.82202698647E+02 -0.72121464482E+02  0.10949142154E+03  0.00000000000E+00 0.  1.
         11    1    1    2    0    0 -0.56774836994E+01  0.33228955281E+02 -0.55699145586E+02  0.65106006707E+02  0.00000000000E+00 0. -1.
</event>
<event>
 7    1  0.2601031E-009  0.1081239E+03  0.7561462E-02  0.1264084E+00
         -2   -1    0    0    0  501 -0.00000000000E+00  0.00000000000E+00  0.44458330651E+02  0.44458330651E+02  0.00000000000E+00 0. -1.
          2   -1    0    0  501    0  0.00000000000E+00 -0.00000000000E+00 -0.29491465744E+03  0.29491465744E+03  0.00000000000E+00 0.  1.
         25    2    1    2    0    0  0.17737291501E+02 -0.29814929635E+02 -0.16164430697E+03  0.20731531513E+03  0.12508883392E+03 0.  0.
          5    1    3    3  502    0  0.66363782431E+02 -0.25314215299E+02 -0.13221986425E+03  0.15014834670E+03  0.41800000000E+01 0.  1.
         -5    1    3    3    0  502 -0.48626490930E+02 -0.45007143358E+01 -0.29424442729E+02  0.57166968431E+02  0.41800000000E+01 0.  1.
        -11    1    1    2    0    0 -0.36936050403E+02  0.53864031940E+02 -0.48537930540E+02  0.81372823825E+02  0.00000000000E+00 0. -1.
         11    1    1    2    0    0  0.19198758902E+02 -0.24049102305E+02 -0.40274089270E+02  0.50684849133E+02  0.00000000000E+00 0.  1.
</event>
<event>
 7    1  0.2601031E-009  0.1801778E+03  0.7561462E-02  0.1167631E+00
         -2   -1    0    0    0  501 -0.00000000000E+00  0.00000000000E+00  0.86778913266E+02  0.86778913266E+02  0.00000000000E+00 0.  1.
          2   -1    0    0  501    0  0.00000000000E+00 -0.00000000000E+00 -0.42866378293E+03  0.42866378293E+03  0.00000000000E+00 0. -1.
         25    2    1    2    0    0 -0.15564519604E+03  0.28505872546E+02 -0.18317207888E+03  0.27247111350E+03  0.12510190004E+03 0.  0.
          5    1    3    3  502    0 -0.18345233893E+02 -0.42883037301E+02 -0.39380264334E+02  0.61186437335E+02  0.41800000000E+01 0.  1.
         -5    1    3    3    0  502 -0.13729996214E+03  0.71388909847E+02 -0.14379181454E+03  0.21128467617E+03  0.41800000000E+01 0.  1.
        -11    1    1    2    0    0  0.60794818709E+02 -0.50007162753E+01 -0.54986697571E+01  0.61247469451E+02  0.00000000000E+00 0.  1.
         11    1    1    2    0    0  0.94850377327E+02 -0.23505156270E+02 -0.15321412103E+03  0.18172411324E+03  0.00000000000E+00 0. -1.
</event>
<event>
 7    1  0.2601031E-009  0.1012839E+03  0.7561462E-02  0.1277619E+00
          1   -1    0    0  501    0  0.00000000000E+00  0.00000000000E+00  0.62474910762E+02  0.62474910762E+02  0.00000000000E+00 0. -1.
         -1   -1    0    0    0  501 -0.00000000000E+00 -0.00000000000E+00 -0.24077056046E+03  0.24077056046E+03  0.00000000000E+00 0.  1.
         25    2    1    2    0    0 -0.22707578662E+02 -0.30185016071E+02 -0.43841397035E+02  0.13782179911E+03  0.12508401533E+03 0.  0.
          5    1    3    3  502    0  0.46401642365E+02  0.10710878297E+02 -0.37005823664E+01  0.47947909631E+02  0.41800000000E+01 0.  1.
         -5    1    3    3    0  502 -0.69109221027E+02 -0.40895894369E+02 -0.40140814669E+02  0.89873889476E+02  0.41800000000E+01 0.  1.
        -11    1    1    2    0    0  0.41999468240E+02  0.45170689309E+01 -0.12501009472E+03  0.13195409439E+03  0.00000000000E+00 0.  1.
         11    1    1    2    0    0 -0.19291889578E+02  0.25667947141E+02 -0.94441579437E+01  0.33469577726E+02  0.00000000000E+00 0. -1.
</event>
<event>
 7    1  0.2601031E-009  0.1382083E+03  0.7561462E-02  0.1215760E+00
          2   -1    0    0  501    0  0.00000000000E+00  0.00000000000E+00  0.14754218222E+04  0.14754218222E+04  0.00000000000E+00 0. -1.
         -2   -1    0    0    0  501 -0.00000000000E+00 -0.00000000000E+00 -0.16927601435E+02  0.16927601435E+02  0.00000000000E+00 0.  1.
         25    2    1    2    0    0  0.64242784679E+02 -0.85538019884E+02  0.97837236287E+03  0.99212138156E+03  0.12509383316E+03 0.  0.
          5    1    3    3  502    0  0.11373884290E+02  0.27340503820E+02  0.85462995922E+02  0.90544267985E+02  0.41800000000E+01 0.  1.
         -5    1    3    3    0  502  0.52868900389E+02 -0.11287852370E+03  0.89290936695E+03  0.90157711358E+03  0.41800000000E+01 0.  1.
        -11    1    1    2    0    0  0.10084403921E+01  0.44926021991E+02  0.71558121062E+02  0.84498101125E+02  0.00000000000E+00 0.  1.
         11    1    1    2    0    0 -0.65251225072E+02  0.40611997893E+02  0.40856373688E+03  0.41572994100E+03  0.00000000000E+00 0. -1.
</event>
<event>
 7    1  0.2601031E-009  0.8763512E+02  0.7561462E-02  0.1308682E+00
          2   -1    0    0  501    0  0.00000000000E+00  0.00000000000E+00  0.66997543140E+03  0.66997543140E+03  0.00000000000E+00 0. -1.
         -2   -1    0    0    0  501 -0.00000000000E+00 -0.00000000000E+00 -0.31846002661E+02  0.31846002661E+02  0.00000000000E+00 0.  1.
         25    2    1    2    0    0 -0.41312394471E+02 -0.47877522179E+02  0.16870071234E+03  0.21933350298E+03  0.12509310179E+03 0.  0.
          5    1    3    3  502    0 -0.38992580278E+02 -0.33975552971E+02  0.19367902238E+01  0.51922856940E+02  0.41800000000E+01 0. -1.
         -5    1    3    3    0  502 -0.23198141927E+01 -0.13901969208E+02  0.16676392212E+03  0.16741064604E+03  0.41800000000E+01 0. -1.
        -11    1    1    2    0    0 -0.27579268654E+02  0.65528236731E+01  0.80395604392E+02  0.85246752214E+02  0.00000000000E+00 0.  1.
         11    1    1    2    0    0  0.68891663125E+02  0.41324698506E+02  0.38903311200E+03  0.39724117887E+03  0.00000000000E+00 0. -1.
</event>
<event>
 7    1  0.2601031E-009  0.2418409E+03  0.7561462E-02  0.1118572E+00
         -1   -1    0    0    0  501 -0.00000000000E+00  0.00000000000E+00  0.30612484505E+03  0.30612484505E+03  0.00000000000E+00 0.  1.
          1   -1    0    0  501    0  0.00000000000E+00 -0.00000000000E+00 -0.19832317515E+03  0.19832317515E+03  0.00000000000E+00 0. -1.
         25    2    1    2    0    0  0.48882644643E+02  0.21611860303E+03  0.78125930182E+02  0.26617308840E+03  0.12509072106E+03 0.  0.
          5    1    3    3  502    0 -0.33985308905E+02  0.25751269653E+02 -0.36252955659E+01  0.42997026386E+02  0.41800000000E+01 0.  1.
         -5    1    3    3    0  502  0.82867953548E+02  0.19036733338E+03  0.81751225748E+02  0.22317606201E+03  0.41800000000E+01 0.  1.
        -11    1    1    2    0    0 -0.65548155439E+00 -0.15645507543E+03  0.12530847432E+01  0.15646146652E+03  0.00000000000E+00 0. -1.
         11    1    1    2    0    0 -0.48227163088E+02 -0.59663527599E+02  0.28422654981E+02  0.81813465281E+02  0.00000000000E+00 0.  1.
</event>
<event>
 7    1  0.3724102E-009  0.1356448E+03  0.7561462E-02  0.1219312E+00
          2   -1    0    0  501    0  0.00000000000E+00  0.00000000000E+00  0.58175653663E+03  0.58175653663E+03  0.00000000000E+00 0. -1.
         -2   -1    0    0    0  501 -0.00000000000E+00 -0.00000000000E+00 -0.49334010479E+02  0.49334010479E+02  0.00000000000E+00 0.  1.
         25    2    1    2    0    0 -0.11519022115E+03  0.47422138297E+02  0.21555813360E+03  0.27862612047E+03  0.12509820062E+03 0.  0.
          5    1    3    3  502    0 -0.40826051030E+02  0.57558401672E+02  0.27059997660E+02  0.75693143144E+02  0.41800000000E+01 0. -1.
         -5    1    3    3    0  502 -0.74364170116E+02 -0.10136263375E+02  0.18849813594E+03  0.20293297732E+03  0.41800000000E+01 0. -1.
        -11    1    1    2    0    0  0.69055319712E+02 -0.36120463082E+02  0.83107962716E+02  0.11393093742E+03  0.00000000000E+00 0.  1.
         11    1    1    2    0    0  0.46134901434E+02 -0.11301675215E+02  0.23375642983E+03  0.23853348922E+03  0.00000000000E+00 0. -1.
</event>
<event>
 7    1  0.2601031E-009  0.1308924E+03  0.7561462E-02  0.1226138E+00
         -2   -1    0    0    0  501 -0.00000000000E+00  0.00000000000E+00  0.10138682787E+04  0.10138682787E+04  0.00000000000E+00 0.  1.
          2   -1    0    0  501    0  0.00000000000E+00 -0.00000000000E+00 -0.22360341928E+02  0.22360341928E+02  0.00000000000E+00 0. -1.
         25    2    1    2    0    0  0.49359003898E+02 -0.90524687599E+02  0.59975471052E+03  0.62127613542E+03  0.12508914150E+03 0.  0.
          5    1    3    3  502    0  0.77582612731E+02 -0.52836252733E+02  0.22908973215E+03  0.24760918638E+03  0.41800000000E+01 0. -1.
         -5    1    3    3    0  502 -0.28223608833E+02 -0.37688434866E+02  0.37066497837E+03  0.37366694905E+03  0.41800000000E+01 0. -1.
        -11    1    1    2    0    0 -0.39155971441E+02  0.11407576583E+02  0.52681731332E+02  0.66623477237E+02  0.00000000000E+00 0. -1.
         11    1    1    2    0    0 -0.10203032458E+02  0.79117111016E+02  0.33907149487E+03  0.34832900792E+03  0.00000000000E+00 0.  1.
</event>
<event>
 7    1  0.2601031E-009  0.1275422E+03  0.7561462E-02  0.1231149E+00
          2   -1    0    0  501    0  0.00000000000E+00  0.00000000000E+00  0.69442230831E+02  0.69442230831E+02  0.00000000000E+00 0. -1.
         -2   -1    0    0    0  501 -0.00000000000E+00 -0.00000000000E+00 -0.34167785752E+03  0.34167785752E+03  0.00000000000E+00 0.  1.
         25    2    1    2    0    0  0.10275624033E+03 -0.17904738888E+02 -0.18282904701E+03  0.24485515425E+03  0.12509261181E+03 0.  0.
          5    1    3    3  502    0  0.78006447614E+02  0.11730468860E+02 -0.18963205739E+03  0.20542735786E+03  0.41800000000E+01 0. -1.
         -5    1    3    3    0  502  0.24749792719E+02 -0.29635207748E+02  0.68030103755E+01  0.39427796389E+02  0.41800000000E+01 0. -1.
        -11    1    1    2    0    0 -0.87985549689E+02 -0.25335200801E+02 -0.43056975079E+02  0.10117920961E+03  0.00000000000E+00 0. -1.
         11    1    1    2    0    0 -0.14770690644E+02  0.43239939689E+02 -0.46349604593E+02  0.65085724489E+02  0.00000000000E+00 0.  1.
</event>
<event>
 7    1  0.2601031E-009  0.1033919E+03  0.7561462E-02  0.1273321E+00
         -3   -1    0    0    0  501 -0.00000000000E+00  0.00000000000E+00  0.10137135880E+04  0.10137135880E+04  0.00000000000E+00 0.  1.
          3   -1    0    0  501    0  0.00000000000E+00 -0.00000000000E+00 -0.11812249219E+02  0.11812249219E+02  0.00000000000E+00 0. -1.
         25    2    1    2    0    0  0.14036074048E+02 -0.17341240477E+02  0.59521488256E+03  0.60862635856E+03  0.12509019913E+03 0.  0.
          5    1    3    3  502    0  0.20224711796E+02  0.46707710577E+02  0.14317689558E+03  0.15201231866E+03  0.41800000000E+01 0. -1.
         -5    1    3    3    0  502 -0.61886377478E+01 -0.64048951054E+02  0.45203798697E+03  0.45661403990E+03  0.41800000000E+01 0. -1.
        -11    1    1    2    0    0  0.37267654662E+02  0.62539330843E+00  0.18753022945E+03  0.19119847321E+03  0.00000000000E+00 0.  1.
         11    1    1    2    0    0 -0.51303728710E+02  0.16715847168E+02  0.21915622673E+03  0.22570100541E+03  0.00000000000E+00 0. -1.
</event>
<event>
 7    1  0.2601031E-009  0.1318721E+03  0.7561462E-02  0.1224704E+00
          2   -1    0    0  501    0  0.00000000000E+00  0.00000000000E+00  0.23481487841E+03  0.23481487841E+03  0.00000000000E+00 0.  1.
         -2   -1    0    0    0  501 -0.00000000000E+00 -0.00000000000E+00 -0.10575873482E+03  0.10575873482E+03  0.00000000000E+00 0. -1.
         25    2    1    2    0    0  0.11108523077E+03 -0.25520560551E+02  0.87905126911E+02  0.19069628232E+03  0.12508610333E+03 0.  0.
          5    1    3    3  502    0  0.50171512853E+02 -0.57400346840E+02  0.94514973186E+02  0.12150116492E+03  0.41800000000E+01 0.  1.
         -5    1    3    3    0  502  0.60913717918E+02  0.31879786289E+02 -0.66098462753E+01  0.69195117401E+02  0.41800000000E+01 0.  1.
        -11    1    1    2    0    0 -0.46387865157E+02 -0.55943992820E+01 -0.24356522361E+02  0.52691285036E+02  0.00000000000E+00 0. -1.
         11    1    1    2    0    0 -0.64697365613E+02  0.31114959833E+02  0.65507539044E+02  0.97186045883E+02  0.00000000000E+00 0.  1.
</event>
<event>
 7    1  0.2601031E-009  0.1234054E+03  0.7561462E-02  0.1237583E+00
         -3   -1    0    0    0  501 -0.00000000000E+00  0.00000000000E+00  0.10710487473E+03  0.10710487473E+03  0.00000000000E+00 0. -1.
          3   -1    0    0  501    0  0.00000000000E+00 -0.00000000000E+00 -0.21311116202E+03  0.21311116202E+03  0.00000000000E+00 0.  1.
         25    2    1    2    0    0 -0.61105693000E+01  0.82725183213E+02 -0.12414211505E+03  0.19478130090E+03  0.12509074889E+03 0.  0.
          5    1    3    3  502    0 -0.62359869497E+02  0.54739237970E+02 -0.47904360451E+02  0.95903272350E+02  0.41800000000E+01 0.  1.
         -5    1    3    3    0  502  0.56249300197E+02  0.27985945243E+02 -0.76237754602E+02  0.98878028553E+02  0.41800000000E+01 0.  1.
        -11    1    1    2    0    0  0.73867987951E+01  0.75012884608E+01 -0.23729748336E+02  0.25960259650E+02  0.00000000000E+00 0.  1.
         11    1    1    2    0    0 -0.12762294951E+01 -0.90226471674E+02  0.41865576102E+02  0.99474476198E+02  0.00000000000E+00 0. -1.
</event>
<event>
 7    1  0.2601031E-009  0.1650847E+03  0.7561462E-02  0.1183073E+00
          3   -1    0    0  501    0  0.00000000000E+00  0.00000000000E+00  0.51697009452E+02  0.51697009452E+02  0.00000000000E+00 0.  1.
         -3   -1    0    0    0  501 -0.00000000000E+00 -0.00000000000E+00 -0.54708320810E+03  0.54708320810E+03  0.00000000000E+00 0. -1.
         25    2    1    2    0    0  0.53792456186E+02 -0.11766267112E+03 -0.29201469625E+03  0.34301337498E+03  0.12508980802E+03 0.  0.
          5    1    3    3  502    0 -0.34602494256E+02 -0.60175029652E+02 -0.78686089519E+02  0.10501114172E+03  0.41800000000E+01 0.  1.
         -5    1    3    3    0  502  0.88394950442E+02 -0.57487641467E+02 -0.21332860673E+03  0.23800223325E+03  0.41800000000E+01 0.  1.
        -11    1    1    2    0    0  0.14432100304E+02  0.70986033116E+02 -0.95197278477E+02  0.11962367762E+03  0.00000000000E+00 0. -1.
         11    1    1    2    0    0 -0.68224556490E+02  0.46676638002E+02 -0.10817422392E+03  0.13614316496E+03  0.00000000000E+00 0.  1.
</event>
<event>
 7    1  0.2601031E-009  0.7486122E+02  0.7561462E-02  0.1344301E+00
         -1   -1    0    0    0  501 -0.00000000000E+00  0.00000000000E+00  0.16680647941E+03  0.16680647941E+03  0.00000000000E+00 0.  1.
          1   -1    0    0  501    0  0.00000000000E+00 -0.00000000000E+00 -0.96412697849E+02  0.96412697849E+02  0.00000000000E+00 0. -1.
         25    2    1    2    0    0 -0.33568172584E+02 -0.30640872130E+02 -0.99602572165E+01  0.13346332747E+03  0.12509023863E+03 0.  0.
          5    1    3    3  502    0 -0.20455276177E+02 -0.41945209898E+02 -0.62428186574E+02  0.78054915513E+02  0.41800000000E+01 0. -1.
         -5    1    3    3    0  502 -0.13112896407E+02  0.11304337768E+02  0.52467929358E+02  0.55408411957E+02  0.41800000000E+01 0. -1.
        -11    1    1    2    0    0 -0.15137508621E+02  0.32988635122E+02  0.62962990017E+00  0.36301386313E+02  0.00000000000E+00 0. -1.
         11    1    1    2    0    0  0.48705681205E+02 -0.23477629914E+01  0.79724408877E+02  0.93454463476E+02  0.00000000000E+00 0.  1.
</event>
<event>
 7    1  0.2601031E-009  0.9541717E+02  0.7561462E-02  0.1290239E+00
          1   -1    0    0  501    0  0.00000000000E+00  0.00000000000E+00  0.57369869480E+02  0.57369869480E+02  0.00000000000E+00 0. -1.
         -1   -1    0    0    0  501 -0.00000000000E+00 -0.00000000000E+00 -0.32181605148E+03  0.32181605148E+03  0.00000000000E+00 0.  1.
         25    2    1    2    0    0  0.51444223856E+02  0.95684935299E+01 -0.23071181974E+03  0.26760790109E+03  0.12509188910E+03 0.  0.
          5    1    3    3  502    0  0.24148878622E+02 -0.28861439124E+02 -0.21414997795E+03  0.21747146126E+03  0.41800000000E+01 0.  1.
         -5    1    3    3    0  502  0.27295345233E+02  0.38429932654E+02 -0.16561841797E+02  0.50136439830E+02  0.41800000000E+01 0.  1.
        -11    1    1    2    0    0  0.26154298782E+02  0.51778776382E+01 -0.14215245357E+02  0.30214747429E+02  0.00000000000E+00 0.  1.
         11    1    1    2    0    0 -0.77598522638E+02 -0.14746371168E+02 -0.19519116900E+02  0.81363272444E+02  0.00000000000E+00 0. -1.
</event>
<event>
 7    1  0.2601031E-009  0.1353255E+03  0.7561462E-02  0.1219761E+00
         -3   -1    0    0    0  501 -0.00000000000E+00  0.00000000000E+00  0.19356851013E+03  0.19356851013E+03  0.00000000000E+00 0.  1.
          3   -1    0    0  501    0  0.00000000000E+00 -0.00000000000E+00 -0.12437863122E+03  0.12437863122E+03  0.00000000000E+00 0. -1.
         25    2    1    2    0    0 -0.66931387571E+02 -0.51173008089E+02  0.11240797057E+03  0.18809855427E+03  0.12508807646E+03 0.  0.
          5    1    3    3  502    0 -0.10252778340E+03 -0.47119788978E+02  0.71917809267E+02  0.13387256840E+03  0.41800000000E+01 0. -1.
         -5    1    3    3    0  502  0.35596395824E+02 -0.40532191109E+01  0.40490161305E+02  0.54225985868E+02  0.41800000000E+01 0. -1.
        -11    1    1    2    0    0  0.68629800135E+02 -0.18130203443E+01 -0.31600521231E+02  0.75577307781E+02  0.00000000000E+00 0.  1.
         11    1    1    2    0    0 -0.16984125639E+01  0.52986028434E+02 -0.11617570429E+02  0.54271279302E+02  0.00000000000E+00 0. -1.
</event>
<event>
 7    1  0.2601031E-009  0.1428471E+03  0.7561462E-02  0.1209548E+00
         -1   -1    0    0    0  501 -0.00000000000E+00  0.00000000000E+00  0.35050812332E+03  0.35050812332E+03  0.00000000000E+00 0.  1.
          1   -1    0    0  501    0  0.00000000000E+00 -0.00000000000E+00 -0.11770978604E+03  0.11770978604E+03  0.00000000000E+00 0. -1.
         25    2    1    2    0    0 -0.84488995365E+02  0.62533701360E+02  0.27888877337E+03  0.32322619365E+03  0.12508944881E+03 0.  0.
          5    1    3    3  502    0 -0.69559733779E+02  0.10038435392E+03  0.21700155042E+03  0.24904361136E+03  0.41800000000E+01 0. -1.
         -5    1    3    3    0  502 -0.14929261586E+02 -0.37850652555E+02  0.61887222952E+02  0.74182582289E+02  0.41800000000E+01 0. -1.
        -11    1    1    2    0    0  0.77705843209E+02 -0.75255295511E+02 -0.13069096309E+02  0.10896035449E+03  0.00000000000E+00 0.  1.
         11    1    1    2    0    0  0.67831521558E+01  0.12721594151E+02 -0.33021339787E+02  0.36031361232E+02  0.00000000000E+00 0. -1.
</event>
<event>
 7    1  0.2601031E-009  0.1008569E+03  0.7561462E-02  0.1278504E+00
         -1   -1    0    0    0  501 -0.00000000000E+00  0.00000000000E+00  0.61290001870E+02  0.61290001870E+02  0.00000000000E+00 0.  1.
          1   -1    0    0  501    0  0.00000000000E+00 -0.00000000000E+00 -0.28017786391E+03  0.28017786391E+03  0.00000000000E+00 0. -1.
         25    2    1    2    0    0 -0.59166509018E+02 -0.21074553048E+02 -0.69449082032E+02  0.15625321519E+03  0.12508828756E+03 0.  0.
          5    1    3    3  502    0  0.25500799174E+02  0.29957223471E+02 -0.99455481005E+01  0.40793532865E+02  0.41800000000E+01 0. -1.
         -5    1    3    3    0  502 -0.84667308192E+02 -0.51031776519E+02 -0.59503533932E+02  0.11545968232E+03  0.41800000000E+01 0. -1.
        -11    1    1    2    0    0  0.10856032837E+02  0.68812347801E+01  0.11088740984E+02  0.16975423932E+02  0.00000000000E+00 0.  1.
         11    1    1    2    0    0  0.48310476181E+02  0.14193318268E+02 -0.16052752099E+03  0.16823922666E+03  0.00000000000E+00 0. -1.
</event>
<event>
 7    1  0.2601031E-009  0.1081245E+03  0.7561462E-02  0.1264083E+00
          2   -1    0    0  501    0  0.00000000000E+00  0.00000000000E+00  0.42197974664E+03  0.42197974664E+03  0.00000000000E+00 0.  1.
         -2   -1    0    0    0  501 -0.00000000000E+00 -0.00000000000E+00 -0.28203247746E+02  0.28203247746E+02  0.00000000000E+00 0. -1.
         25    2    1    2    0    0  0.33605384824E+01 -0.59812335621E+01  0.20124902116E+03  0.23705892190E+03  0.12509474633E+03 0.  0.
          5    1    3    3  502    0 -0.26194896415E+01 -0.65286006650E+02  0.10159154876E+03  0.12086124097E+03  0.41800000000E+01 0. -1.
         -5    1    3    3    0  502  0.59800281239E+01  0.59304773088E+02  0.99657472398E+02  0.11619768092E+03  0.41800000000E+01 0. -1.
        -11    1    1    2    0    0 -0.14705353444E+02 -0.40548221636E+02  0.10097717706E+03  0.10980344250E+03  0.00000000000E+00 0. -1.
         11    1    1    2    0    0  0.11344814961E+02  0.46529455198E+02  0.91550300681E+02  0.10332062999E+03  0.00000000000E+00 0.  1.
</event>
<event>
 7    1  0.2601031E-009  0.6977243E+02  0.7561462E-02  0.1360869E+00
         -1   -1    0    0    0  501 -0.00000000000E+00  0.00000000000E+00  0.48940519629E+02  0.48940519629E+02  0.00000000000E+00 0.  1.
          1   -1    0    0  501    0  0.00000000000E+00 -0.00000000000E+00 -0.25755022955E+03  0.25755022955E+03  0.00000000000E+00 0. -1.
         25    2    1    2    0    0  0.14086389345E+02  0.46016248924E+01 -0.16137663881E+03  0.20471347343E+03  0.12508231423E+03 0.  0.
          5    1    3    3  502    0 -0.16691791918E+01 -0.22134959031E+02 -0.17058484196E+03  0.17207383089E+03  0.41800000000E+01 0.  1.
         -5    1    3    3    0  502  0.15755568537E+02  0.26736583924E+02  0.92082031494E+01  0.32639642539E+02  0.41800000000E+01 0.  1.
        -11    1    1    2    0    0 -0.56472719338E+01 -0.44502578554E+02 -0.40509202826E+02  0.60443086386E+02  0.00000000000E+00 0.  1.
         11    1    1    2    0    0 -0.84391174115E+01  0.39900953661E+02 -0.67238682858E+01  0.41334189365E+02  0.00000000000E+00 0. -1.
</event>
<event>
 7    1  0.2601031E-009  0.1137567E+03  0.7561462E-02  0.1253767E+00
         -1   -1    0    0    0  501 -0.00000000000E+00  0.00000000000E+00  0.21616224910E+03  0.21616224910E+03  0.00000000000E+00 0.  1.
          1   -1    0    0  501    0  0.00000000000E+00 -0.00000000000E+00 -0.69668350091E+02  0.69668350091E+02  0.00000000000E+00 0. -1.
         25    2    1    2    0    0 -0.81515964963E+01  0.51194798087E+02  0.50861228145E+02  0.14464374132E+03  0.12509033335E+03 0.  0.
          5    1    3    3  502    0  0.13673246243E+02 -0.34533673434E+02 -0.81078552994E+01  0.38245809983E+02  0.41800000000E+01 0.  1.
         -5    1    3    3    0  502 -0.21824842739E+02  0.85728471522E+02  0.58969083445E+02  0.10639793133E+03  0.41800000000E+01 0.  1.
        -11    1    1    2    0    0  0.47735435063E+02 -0.23074396382E+02  0.35096132478E+02  0.63583315767E+02  0.00000000000E+00 0.  1.
         11    1    1    2    0    0 -0.39583838567E+02 -0.28120401706E+02  0.60536538387E+02  0.77603542108E+02  0.00000000000E+00 0. -1.
</event>
<event>
 7    1  0.2601031E-009  0.9266654E+02  0.7561462E-02  0.1296520E+00
         -1   -1    0    0    0  501 -0.00000000000E+00  0.00000000000E+00  0.60780441255E+03  0.60780441255E+03  0.00000000000E+00 0.  1.
          1   -1    0    0  501    0  0.00000000000E+00 -0.00000000000E+00 -0.36882509146E+02  0.36882509146E+02  0.00000000000E+00 0. -1.
         25    2    1    2    0    0  0.17010134141E+02  0.60227897407E+02  0.14141749019E+03  0.19890440240E+03  0.12508921006E+03 0.  0.
          5    1    3    3  502    0  0.15899715951E+02  0.21634256474E+02  0.15530250451E+03  0.15766160702E+03  0.41800000000E+01 0.  1.
         -5    1    3    3    0  502  0.11104181902E+01  0.38593640932E+02 -0.13885014316E+02  0.41242795389E+02  0.41800000000E+01 0.  1.
        -11    1    1    2    0    0 -0.32769855653E+02  0.19448053278E+02  0.14253278763E+03  0.14753876022E+03  0.00000000000E+00 0.  1.
         11    1    1    2    0    0  0.15759721512E+02 -0.79675950685E+02  0.28697162558E+03  0.29824375907E+03  0.00000000000E+00 0. -1.
</event>
<event>
 7    1  0.2601031E-009  0.1361015E+03  0.7561462E-02  0.1218673E+00
         -1   -1    0    0    0  501 -0.00000000000E+00  0.00000000000E+00  0.22905143546E+02  0.22905143546E+02  0.00000000000E+00 0.  1.
          1   -1    0    0  501    0  0.00000000000E+00 -0.00000000000E+00 -0.10337109308E+04  0.10337109308E+04  0.00000000000E+00 0. -1.
         25    2    1    2    0    0 -0.75197031479E+02  0.68191075206E+02 -0.44282024991E+03  0.47121322615E+03  0.12509002553E+03 0.  0.
          5    1    3    3  502    0 -0.87235287397E+02  0.25862262731E+02 -0.15314546824E+03  0.17818490071E+03  0.41800000000E+01 0. -1.
         -5    1    3    3    0  502  0.12038255918E+02  0.42328812475E+02 -0.28967478167E+03  0.29302832544E+03  0.41800000000E+01 0. -1.
        -11    1    1    2    0    0  0.12762593997E+01 -0.62782013905E+02 -0.18661926680E+03  0.19690089093E+03  0.00000000000E+00 0.  1.
         11    1    1    2    0    0  0.73920772079E+02 -0.54090613009E+01 -0.38136627050E+03  0.38850195722E+03  0.00000000000E+00 0. -1.
</event>
<event>
 7    1  0.2601031E-009  0.2641906E+03  0.7561462E-02  0.1104651E+00
          1   -1    0    0  501    0  0.00000000000E+00  0.00000000000E+00  0.45981321464E+03  0.45981321464E+03  0.00000000000E+00 0. -1.
         -1   -1    0    0    0  501 -0.00000000000E+00 -0.00000000000E+00 -0.16778330991E+03  0.16778330991E+03  0.00000000000E+00 0.  1.
         25    2    1    2    0    0  0.24209695169E+03  0.41649373500E+02  0.22908151281E+03  0.35843000938E+03  0.12509247692E+03 0.  0.
          5    1    3    3  502    0  0.11033066691E+03 -0.34499519436E+02  0.14159733898E+03  0.18283968855E+03  0.41800000000E+01 0.  1.
         -5    1    3    3    0  502  0.13176628478E+03  0.76148892936E+02  0.87484173837E+02  0.17559032084E+03  0.41800000000E+01 0.  1.
        -11    1    1    2    0    0 -0.44096405351E+02  0.26039709305E+02  0.22988646020E+02  0.56134100789E+02  0.00000000000E+00 0.  1.
         11    1    1    2    0    0 -0.19800054634E+03 -0.67689082804E+02  0.39959745897E+02  0.21303241437E+03  0.00000000000E+00 0. -1.
</event>
<event>
 7    1  0.2601031E-009  0.1677281E+03  0.7561462E-02  0.1180238E+00
          1   -1    0    0  501    0  0.00000000000E+00  0.00000000000E+00  0.29540785504E+03  0.29540785504E+03  0.00000000000E+00 0. -1.
         -1   -1    0    0    0  501 -0.00000000000E+00 -0.00000000000E+00 -0.13282954791E+03  0.13282954791E+03  0.00000000000E+00 0.  1.
         25    2    1    2    0    0 -0.16200897379E+03  0.24021488857E+02  0.62364578537E+02  0.21531547145E+03  0.12508985599E+03 0.  0.
          5    1    3    3  502    0 -0.84917125497E+02  0.14967536560E+02 -0.32879049655E+02  0.92376672702E+02  0.41800000000E+01 0.  1.
         -5    1    3    3    0  502 -0.77091848296E+02  0.90539522973E+01  0.95243628191E+02  0.12293879875E+03  0.41800000000E+01 0.  1.
        -11    1    1    2    0    0  0.90919650515E+02  0.11985994014E+02  0.95301342353E+01  0.92200164646E+02  0.00000000000E+00 0.  1.
         11    1    1    2    0    0  0.71089323278E+02 -0.36007482871E+02  0.90683594356E+02  0.12072176685E+03  0.00000000000E+00 0. -1.
</event>
<event>
 7    1  0.2601031E-009  0.1708164E+03  0.7561462E-02  0.1176999E+00
          2   -1    0    0  501    0  0.00000000000E+00  0.00000000000E+00  0.13901508114E+03  0.13901508114E+03  0.00000000000E+00 0. -1.
         -2   -1    0    0    0  501 -0.00000000000E+00 -0.00000000000E+00 -0.30723725111E+03  0.30723725111E+03  0.00000000000E+00 0.  1.
         25    2    1    2    0    0  0.16491016001E+03  0.20975711055E+02 -0.14922459714E+03  0.25602908239E+03  0.12509024467E+03 0.  0.
          5    1    3    3  502    0  0.70396033492E+02  0.60462796947E+01  0.87198030645E+01  0.71313858366E+02  0.41800000000E+01 0.  1.
         -5    1    3    3    0  502  0.94514126516E+02  0.14929431360E+02 -0.15794440020E+03  0.18471522403E+03  0.41800000000E+01 0.  1.
        -11    1    1    2    0    0 -0.16722030241E+02 -0.21056442392E+02 -0.31610042434E+02  0.41499335468E+02  0.00000000000E+00 0. -1.
         11    1    1    2    0    0 -0.14818812977E+03  0.80731337465E-01  0.12612469612E+02  0.14872391439E+03  0.00000000000E+00 0.  1.
</event>
<event>
 7    1  0.2601031E-009  0.1564818E+03  0.7561462E-02  0.1192727E+00
          1   -1    0    0  501    0  0.00000000000E+00  0.00000000000E+00  0.14249260192E+03  0.14249260192E+03  0.00000000000E+00 0. -1.
         -1   -1    0    0    0  501 -0.00000000000E+00 -0.00000000000E+00 -0.34216145039E+03  0.34216145039E+03  0.00000000000E+00 0.  1.
         25    2    1    2    0    0  0.80370116385E+02  0.10913171928E+03  0.46663890857E+02  0.19025070665E+03  0.12509486364E+03 0.  0.
          5    1    3    3  502    0  0.76453575742E+02  0.94144834735E+01  0.47065602708E+02  0.90368274859E+02  0.41800000000E+01 0. -1.
         -5    1    3    3    0  502  0.39165406436E+01  0.99717235805E+02 -0.40171185061E+00  0.99882431787E+02  0.41800000000E+01 0. -1.
        -11    1    1    2    0    0 -0.16055812230E+02 -0.15284904883E+02 -0.12929441504E+03  0.13118103211E+03  0.00000000000E+00 0.  1.
         11    1    1    2    0    0 -0.64314304156E+02 -0.93846814396E+02 -0.11703832428E+03  0.16322231355E+03  0.00000000000E+00 0. -1.
</event>
<event>
 7    1  0.3155282E-009  0.9484528E+02  0.7561462E-02  0.1291525E+00
          3   -1    0    0  501    0  0.00000000000E+00  0.00000000000E+00  0.76291136405E+03  0.76291136405E+03  0.00000000000E+00 0. -1.
         -3   -1    0    0    0  501 -0.00000000000E+00 -0.00000000000E+00 -0.19985064549E+02  0.19985064549E+02  0.00000000000E+00 0.  1.
         25    2    1    2    0    0  0.67778515157E+01 -0.23962120744E+02  0.24625552399E+03  0.27732489992E+03  0.12508874658E+03 0.  0.
          5    1    3    3  502    0  0.45971407605E+02  0.48533753051E+01  0.29179401514E+02  0.54825499923E+02  0.41800000000E+01 0.  1.
         -5    1    3    3    0  502 -0.39193556090E+02 -0.28815496049E+02  0.21707612247E+03  0.22249940000E+03  0.41800000000E+01 0.  1.
        -11    1    1    2    0    0  0.39276764833E+02  0.27974027731E+02  0.25383800583E+03  0.25837752164E+03  0.00000000000E+00 0. -1.
         11    1    1    2    0    0 -0.46054616349E+02 -0.40119069871E+01  0.24283276968E+03  0.24719400703E+03  0.00000000000E+00 0.  1.
</event>
<event>
 7    1  0.2601031E-009  0.1546091E+03  0.7561462E-02  0.1194921E+00
          1   -1    0    0  501    0  0.00000000000E+00  0.00000000000E+00  0.12876719995E+03  0.12876719995E+03  0.00000000000E+00 0. -1.
         -1   -1    0    0    0  501 -0.00000000000E+00 -0.00000000000E+00 -0.19667251310E+03  0.19667251310E+03  0.00000000000E+00 0.  1.
         25    2    1    2    0    0 -0.10364192575E+03  0.36700175585E+02 -0.73300636680E+02  0.18196859011E+03  0.12510408782E+03 0.  0.
          5    1    3    3  502    0  0.29173986527E+02  0.64706189442E+01 -0.10869663237E+02  0.32071987439E+02  0.41800000000E+01 0. -1.
         -5    1    3    3    0  502 -0.13281591228E+03  0.30229556640E+02 -0.62430973443E+02  0.14989660268E+03  0.41800000000E+01 0. -1.
        -11    1    1    2    0    0  0.71598583291E+02  0.22839184633E+02 -0.37196376800E+01  0.75245074181E+02  0.00000000000E+00 0.  1.
         11    1    1    2    0    0  0.32043342459E+02 -0.59539360217E+02  0.91149612036E+01  0.68226048755E+02  0.00000000000E+00 0. -1.
</event>
<event>
 7    1  0.2601031E-009  0.1082741E+03  0.7561462E-02  0.1263800E+00
          2   -1    0    0  501    0  0.00000000000E+00  0.00000000000E+00  0.15569602150E+03  0.15569602150E+03  0.00000000000E+00 0. -1.
         -2   -1    0    0    0  501 -0.00000000000E+00 -0.00000000000E+00 -0.96284589497E+02  0.96284589497E+02  0.00000000000E+00 0.  1.
         25    2    1    2    0    0  0.41253032089E+01  0.29077775207E+02 -0.17956684102E+02  0.12973956696E+03  0.12508947834E+03 0.  0.
          5    1    3    3  502    0  0.36797759729E+02 -0.36239603091E+02  0.73475884078E+01  0.52333960376E+02  0.41800000000E+01 0.  1.
         -5    1    3    3    0  502 -0.32672456520E+02  0.65317378298E+02 -0.25304272510E+02  0.77405606580E+02  0.41800000000E+01 0.  1.
        -11    1    1    2    0    0  0.38547284875E+02  0.22952231221E+01  0.17766184754E+02  0.42506452935E+02  0.00000000000E+00 0.  1.
         11    1    1    2    0    0 -0.42672588084E+02 -0.31372998329E+02  0.59601931349E+02  0.79734591104E+02  0.00000000000E+00 0. -1.
</event>
<event>
 7    1  0.5216335E-009  0.1011413E+03  0.7561462E-02  0.1277914E+00
          2   -1    0    0  501    0  0.00000000000E+00  0.00000000000E+00  0.73658064239E+03  0.73658064239E+03  0.00000000000E+00 0. -1.
         -2   -1    0    0    0  501 -0.00000000000E+00 -0.00000000000E+00 -0.34616031273E+02  0.34616031273E+02  0.00000000000E+00 0.  1.
         25    2    1    2    0    0 -0.47893969522E+02 -0.27334676129E+01  0.63324902774E+03  0.64726604583E+03  0.12509076223E+03 0.  0.
          5    1    3    3  502    0 -0.48832583475E+02  0.53220119232E+02  0.26225311964E+03  0.27204994662E+03  0.41800000000E+01 0. -1.
         -5    1    3    3    0  502  0.93861395237E+00 -0.55953586845E+02  0.37099590810E+03  0.37521609921E+03  0.41800000000E+01 0. -1.
        -11    1    1    2    0    0  0.11250127708E+02 -0.25293218602E+02 -0.12619494245E+02  0.30423081956E+02  0.00000000000E+00 0.  1.
         11    1    1    2    0    0  0.36643841814E+02  0.28026686215E+02  0.81335077620E+02  0.93507545870E+02  0.00000000000E+00 0. -1.
</event>
<event>
 7    1  0.2601031E-009  0.8961970E+02  0.7561462E-02  0.1303775E+00
         -1   -1    0    0    0  501 -0.00000000000E+00  0.00000000000E+00  0.32882971180E+02  0.32882971180E+02  0.00000000000E+00 0.  1.
          1   -1    0    0  501    0  0.00000000000E+00 -0.00000000000E+00 -0.37221504861E+03  0.37221504861E+03  0.00000000000E+00 0. -1.
         25    2    1    2    0    0  0.70974511225E+01 -0.73160524222E+01 -0.16413553491E+03  0.20662620095E+03  0.12510001865E+03 0.  0.
          5    1    3    3  502    0  0.20832586387E+01  0.46440220566E+02 -0.13956234531E+03  0.14716030267E+03  0.41800000000E+01 0.  1.
         -5    1    3    3    0  502  0.50141924837E+01 -0.53756272988E+02 -0.24573189593E+02  0.59465898283E+02  0.41800000000E+01 0.  1.
        -11    1    1    2    0    0 -0.37479380163E+02 -0.15357661392E+02 -0.35949398712E+02  0.54156449003E+02  0.00000000000E+00 0.  1.
         11    1    1    2    0    0  0.30381929041E+02  0.22673713814E+02 -0.13924714381E+03  0.14431536983E+03  0.00000000000E+00 0. -1.
</event>
<event>
 7    1  0.2601031E-009  0.1167301E+03  0.7561462E-02  0.1248591E+00
          2   -1    0    0  501    0  0.00000000000E+00  0.00000000000E+00  0.61526342297E+03  0.61526342297E+03  0.00000000000E+00 0. -1.
         -2   -1    0    0    0  501 -0.00000000000E+00 -0.00000000000E+00 -0.27736986506E+02  0.27736986506E+02  0.00000000000E+00 0.  1.
         25    2    1    2    0    0  0.24280048904E+02 -0.49131050849E+02  0.21111546293E+03  0.25143906179E+03  0.12509389343E+03 0.  0.
          5    1    3    3  502    0  0.73889342438E+02 -0.34789718767E+02  0.15371971524E+03  0.17411830090E+03  0.41800000000E+01 0. -1.
         -5    1    3    3    0  502 -0.49609293534E+02 -0.14341332083E+02  0.57395747698E+02  0.77320760890E+02  0.41800000000E+01 0. -1.
        -11    1    1    2    0    0  0.31322595300E+02  0.16483064651E+02  0.21243632324E+03  0.21536477852E+03  0.00000000000E+00 0.  1.
         11    1    1    2    0    0 -0.55602644204E+02  0.32647986198E+02  0.16397465029E+03  0.17619656916E+03  0.00000000000E+00 0. -1.
</event>
<event>
 7    1  0.2601031E-009  0.1144161E+03  0.7561462E-02  0.1252604E+00
         -1   -1    0    0    0  501 -0.00000000000E+00  0.00000000000E+00  0.19020375473E+02  0.19020375473E+02  0.00000000000E+00 0.  1.
          1   -1    0    0  501    0  0.00000000000E+00 -0.00000000000E+00 -0.81411149046E+03  0.81411149046E+03  0.00000000000E+00 0. -1.
         25    2    1    2    0    0 -0.42421495513E+02 -0.46825062834E+02 -0.43082225106E+03  0.45304192497E+03  0.12508798496E+03 0.  0.
          5    1    3    3  502    0 -0.41706870857E+02 -0.80699441556E+02 -0.19992500635E+03  0.21963456811E+03  0.41800000000E+01 0. -1.
         -5    1    3    3    0  502 -0.71462465583E+00  0.33874378722E+02 -0.23089724472E+03  0.23340735687E+03  0.41800000000E+01 0. -1.
        -11    1    1    2    0    0 -0.12552012601E+02 -0.15961333654E+02 -0.35519733015E+02  0.40914161678E+02  0.00000000000E+00 0.  1.
         11    1    1    2    0    0  0.54973508115E+02  0.62786396488E+02 -0.32874913091E+03  0.33917577929E+03  0.00000000000E+00 0. -1.
</event>
<event>
 7    1  0.2601031E-009  0.8811004E+02  0.7561462E-02  0.1307494E+00
         -4   -1    0    0    0  501 -0.00000000000E+00  0.00000000000E+00  0.65283606800E+02  0.65283606800E+02  0.00000000000E+00 0.  1.
          4   -1    0    0  501    0  0.00000000000E+00 -0.00000000000E+00 -0.20570568020E+03  0.20570568020E+03  0.00000000000E+00 0. -1.
         25    2    1    2    0    0  0.13114080194E+01 -0.30199870177E+02 -0.71414820070E+02  0.14717672832E+03  0.12508861212E+03 0.  0.
          5    1    3    3  502    0  0.23017208253E+02  0.29639350381E+02 -0.74274315357E+02  0.83321241521E+02  0.41800000000E+01 0. -1.
         -5    1    3    3    0  502 -0.21705800234E+02 -0.59839220558E+02  0.28594952869E+01  0.63855486797E+02  0.41800000000E+01 0. -1.
        -11    1    1    2    0    0 -0.34478394279E+02  0.10271205392E+02  0.86927639192E+01  0.37011099373E+02  0.00000000000E+00 0.  1.
         11    1    1    2    0    0  0.33166986259E+02  0.19928664785E+02 -0.77700017247E+02  0.86801459307E+02  0.00000000000E+00 0. -1.
</event>
<event>
 7    1  0.2601031E-009  0.1167223E+03  0.7561462E-02  0.1248604E+00
         -2   -1    0    0    0  501 -0.00000000000E+00  0.00000000000E+00  0.85252731762E+02  0.85252731762E+02  0.00000000000E+00 0.  1.
          2   -1    0    0  501    0  0.00000000000E+00 -0.00000000000E+00 -0.23524108681E+03  0.23524108681E+03  0.00000000000E+00 0. -1.
         25    2    1    2    0    0 -0.24322484748E+02  0.36269662229E+02 -0.17162689811E+03  0.21681658839E+03  0.12508624698E+03 0.  0.
          5    1    3    3  502    0  0.11341725260E+02 -0.43282368849E+02 -0.65009637537E+02  0.79029890281E+02  0.41800000000E+01 0. -1.
         -5    1    3    3    0  502 -0.35664210008E+02  0.79552031077E+02 -0.10661726057E+03  0.13778669811E+03  0.41800000000E+01 0. -1.
        -11    1    1    2    0    0  0.55584180474E+02 -0.41710532193E+02  0.17615951399E+02  0.71691640786E+02  0.00000000000E+00 0.  1.
         11    1    1    2    0    0 -0.31261695727E+02  0.54408699649E+01  0.40225916577E+01  0.31985589401E+02  0.00000000000E+00 0. -1.
</event>
<event>
 7    1  0.2601031E-009  0.1533059E+03  0.7561462E-02  0.1196469E+00
          2   -1    0    0  501    0  0.00000000000E+00  0.00000000000E+00  0.17707810998E+03  0.17707810998E+03  0.00000000000E+00 0. -1.
         -2   -1    0    0    0  501 -0.00000000000E+00 -0.00000000000E+00 -0.19150726659E+03  0.19150726659E+03  0.00000000000E+00 0.  1.
         25    2    1    2    0    0 -0.52106654608E+02 -0.12918528638E+03 -0.56278607790E+02  0.19549610915E+03  0.12508998891E+03 0.  0.
          5    1    3    3  502    0 -0.21763273640E+01 -0.19550054609E+02 -0.71244696254E+02  0.74028509240E+02  0.41800000000E+01 0.  1.
         -5    1    3    3    0  502 -0.49930327244E+02 -0.10963523177E+03  0.14966088463E+02  0.12146759991E+03  0.41800000000E+01 0.  1.
        -11    1    1    2    0    0  0.18066673169E+02 -0.11366346115E+02 -0.32820075830E+01  0.21595603191E+02  0.00000000000E+00 0.  1.
         11    1    1    2    0    0  0.34039981439E+02  0.14055163249E+03  0.45131458769E+02  0.15149366423E+03  0.00000000000E+00 0. -1.
</event>
<event>
 7    1  0.2601031E-009  0.1533526E+03  0.7561462E-02  0.1196413E+00
          3   -1    0    0  501    0  0.00000000000E+00  0.00000000000E+00  0.24204154983E+03  0.24204154983E+03  0.00000000000E+00 0. -1.
         -3   -1    0    0    0  501 -0.00000000000E+00 -0.00000000000E+00 -0.10354512681E+03  0.10354512681E+03  0.00000000000E+00 0.  1.
         25    2    1    2    0    0  0.99991478247E+02  0.44601336203E+02  0.11221633456E+03  0.20056784822E+03  0.12508949230E+03 0.  0.
          5    1    3    3  502    0 -0.25161327300E+02  0.29536664174E+02  0.17151406780E+02  0.42628043312E+02  0.41800000000E+01 0.  1.
         -5    1    3    3    0  502  0.12515280555E+03  0.15064672029E+02  0.95064927779E+02  0.15793980490E+03  0.41800000000E+01 0.  1.
        -11    1    1    2    0    0 -0.11313228699E+03 -0.54038632361E+02  0.28811077082E+02  0.12864356303E+03  0.00000000000E+00 0. -1.
         11    1    1    2    0    0  0.13140808742E+02  0.94372961583E+01 -0.25309886198E+01  0.16375265389E+02  0.00000000000E+00 0.  1.
</event>
<event>
 7    1  0.2828752E-009  0.1409271E+03  0.7561462E-02  0.1212087E+00
          2   -1    0    0  501    0  0.00000000000E+00  0.00000000000E+00  0.81248175875E+03  0.81248175875E+03  0.00000000000E+00 0. -1.
         -2   -1    0    0    0  501 -0.00000000000E+00 -0.00000000000E+00 -0.47151801035E+02  0.47151801035E+02  0.00000000000E+00 0.  1.
         25    2    1    2    0    0 -0.26759660789E+02 -0.10402690120E+03  0.67032919956E+03  0.69030920997E+03  0.12509154232E+03 0.  0.
          5    1    3    3  502    0 -0.62611637276E+02 -0.97737326247E+02  0.37126296173E+03  0.38900701950E+03  0.41800000000E+01 0. -1.
         -5    1    3    3    0  502  0.35851976487E+02 -0.62895749528E+01  0.29906623783E+03  0.30130219047E+03  0.41800000000E+01 0. -1.
        -11    1    1    2    0    0 -0.21634744415E+02  0.59479199964E+02  0.13717690169E+02  0.64761195309E+02  0.00000000000E+00 0.  1.
         11    1    1    2    0    0  0.48394405204E+02  0.44547701236E+02  0.81283067984E+02  0.10456315451E+03  0.00000000000E+00 0. -1.
</event>
<event>
 7    1  0.2601031E-009  0.1796123E+03  0.7561462E-02  0.1168179E+00
         -2   -1    0    0    0  501 -0.00000000000E+00  0.00000000000E+00  0.22584771315E+02  0.22584771315E+02  0.00000000000E+00 0.  1.
          2   -1    0    0  501    0  0.00000000000E+00 -0.00000000000E+00 -0.15091087977E+04  0.15091087977E+04  0.00000000000E+00 0. -1.
         25    2    1    2    0    0  0.11158331994E+03 -0.97799368831E+02 -0.78426535589E+03  0.80792031403E+03  0.12509009369E+03 0.  0.
          5    1    3    3  502    0  0.99984050911E+02 -0.97698604887E+01 -0.32753708306E+03  0.34262264051E+03  0.41800000000E+01 0. -1.
         -5    1    3    3    0  502  0.11599269030E+02 -0.88029508342E+02 -0.45672827283E+03  0.46529767352E+03  0.41800000000E+01 0. -1.
        -11    1    1    2    0    0 -0.11130728095E+03  0.50056256757E+02 -0.41498727948E+03  0.43256141964E+03  0.00000000000E+00 0.  1.
         11    1    1    2    0    0 -0.27603899189E+00  0.47743112074E+02 -0.28727139106E+03  0.29121183539E+03  0.00000000000E+00 0. -1.
</event>
<event>
 7    1  0.2601031E-009  0.1099308E+03  0.7561462E-02  0.1260698E+00
         -2   -1    0    0    0  501 -0.00000000000E+00  0.00000000000E+00  0.22805856399E+02  0.22805856399E+02  0.00000000000E+00 0.  1.
          2   -1    0    0  501    0  0.00000000000E+00 -0.00000000000E+00 -0.55328172693E+03  0.55328172693E+03  0.00000000000E+00 0. -1.
         25    2    1    2    0    0 -0.81468562766E+01  0.28098473220E+02 -0.33683532921E+03  0.36050117580E+03  0.12508862173E+03 0.  0.
          5    1    3    3  502    0  0.49244478499E+02 -0.17906841265E+02 -0.10827300925E+03  0.12035859154E+03  0.41800000000E+01 0. -1.
         -5    1    3    3    0  502 -0.57391334776E+02  0.46005314485E+02 -0.22856231996E+03  0.24014258426E+03  0.41800000000E+01 0. -1.
        -11    1    1    2    0    0  0.17872342637E+02  0.29889365203E+02 -0.88781922586E+02  0.95367838193E+02  0.00000000000E+00 0. -1.
         11    1    1    2    0    0 -0.97254863607E+01 -0.57987838422E+02 -0.10485861874E+03  0.12021856934E+03  0.00000000000E+00 0.  1.
</event>
<event>
 7    1  0.2601031E-009  0.1467157E+03  0.7561462E-02  0.1204568E+00
         -2   -1    0    0    0  501 -0.00000000000E+00  0.00000000000E+00  0.67597093495E+03  0.67597093495E+03  0.00000000000E+00 0.  1.
          2   -1    0    0  501    0  0.00000000000E+00 -0.00000000000E+00 -0.61442665589E+02  0.61442665589E+02  0.00000000000E+00 0. -1.
         25    2    1    2    0    0  0.12749434821E+03 -0.47120789466E+02  0.51112739671E+03  0.54348329539E+03  0.12509076337E+03 0.  0.
          5    1    3    3  502    0  0.24665970196E+02  0.22159654290E+02  0.24894890743E+02  0.41673592946E+02  0.41800000000E+01 0.  1.
         -5    1    3    3    0  502  0.10282837802E+03 -0.69280443756E+02  0.48623250596E+03  0.50180970244E+03  0.41800000000E+01 0.  1.
        -11    1    1    2    0    0 -0.11537329001E+03  0.41782296898E+02  0.12071558569E+03  0.17213079042E+03  0.00000000000E+00 0.  1.
         11    1    1    2    0    0 -0.12121058198E+02  0.53384925679E+01 -0.17314713036E+02  0.21799514725E+02  0.00000000000E+00 0. -1.
</event>
<event>
 7    1  0.2601031E-009  0.7053555E+02  0.7561462E-02  0.1358281E+00
         -2   -1    0    0    0  501 -0.00000000000E+00  0.00000000000E+00  0.16216524026E+03  0.16216524026E+03  0.00000000000E+00 0.  1.
          2   -1    0    0  501    0  0.00000000000E+00 -0.00000000000E+00 -0.78057524812E+02  0.78057524812E+02  0.00000000000E+00 0. -1.
         25    2    1    2    0    0 -0.37127868333E+01  0.12385921402E+02  0.77976717376E+02  0.14797169921E+03  0.12509220391E+03 0.  0.
          5    1    3    3  502    0 -0.16295665353E+01  0.37323300626E+02  0.10462737723E+03  0.11117573801E+03  0.41800000000E+01 0.  1.
         -5    1    3    3    0  502 -0.20832202980E+01 -0.24937379225E+02 -0.26650659854E+02  0.36795961193E+02  0.41800000000E+01 0.  1.
        -11    1    1    2    0    0  0.39010111902E+02 -0.16918774134E+02 -0.21073649960E+02  0.47456637802E+02  0.00000000000E+00 0. -1.
         11    1    1    2    0    0 -0.35297325069E+02  0.45328527328E+01  0.27204648031E+02  0.44794428062E+02  0.00000000000E+00 0.  1.
</event>
<event>
 7    1  0.2601031E-009  0.9726384E+02  0.7561462E-02  0.1286157E+00
          1   -1    0    0  501    0  0.00000000000E+00  0.00000000000E+00  0.20591113570E+02  0.20591113570E+02  0.00000000000E+00 0. -1.
         -1   -1    0    0    0  501 -0.00000000000E+00 -0.00000000000E+00 -0.59222071070E+03  0.59222071070E+03  0.00000000000E+00 0.  1.
         25    2    1    2    0    0  0.64969544686E+01  0.49028720804E+01 -0.39069555905E+03  0.41031221262E+03  0.12508734306E+03 0.  0.
          5    1    3    3  502    0 -0.27412973116E+02 -0.50630920015E+02 -0.22398785431E+03  0.23130713874E+03  0.41800000000E+01 0. -1.
         -5    1    3    3    0  502  0.33909927585E+02  0.55533792096E+02 -0.16670770475E+03  0.17900507388E+03  0.41800000000E+01 0. -1.
        -11    1    1    2    0    0 -0.36403835204E+02  0.10594749289E+02 -0.15613260176E+03  0.16067008826E+03  0.00000000000E+00 0.  1.
         11    1    1    2    0    0  0.29906880735E+02 -0.15497621369E+02 -0.24801436325E+02  0.41829523392E+02  0.00000000000E+00 0. -1.
</event>
<event>
 7    1  0.2601031E-009  0.9692669E+02  0.7561462E-02  0.1286895E+00
         -1   -1    0    0    0  501 -0.00000000000E+00  0.00000000000E+00  0.15618722797E+03  0.15618722797E+03  0.00000000000E+00 0.  1.
          1   -1    0    0  501    0  0.00000000000E+00 -0.00000000000E+00 -0.13233266112E+03  0.13233266112E+03  0.00000000000E+00 0. -1.
         25    2    1    2    0    0  0.48968583455E+02  0.23267766868E+02  0.91697800541E+02  0.16431775732E+03  0.12511006197E+03 0.  0.
          5    1    3    3  502    0  0.86931603813E+02  0.60284545843E+01  0.35428066147E+02  0.94159791191E+02  0.41800000000E+01 0.  1.
         -5    1    3    3    0  502 -0.37963020358E+02  0.17239312284E+02  0.56269734395E+02  0.70157966130E+02  0.41800000000E+01 0.  1.
        -11    1    1    2    0    0 -0.39163252532E+02 -0.32763030219E+02  0.38648315894E+01  0.51206575957E+02  0.00000000000E+00 0.  1.
         11    1    1    2    0    0 -0.98053309227E+01  0.94952633509E+01 -0.71708065281E+02  0.72995555803E+02  0.00000000000E+00 0. -1.
</event>
<event>
 7    1  0.2601031E-009  0.1261842E+03  0.7561462E-02  0.1233230E+00
         -2   -1    0    0    0  501 -0.00000000000E+00  0.00000000000E+00  0.41609706572E+02  0.41609706572E+02  0.00000000000E+00 0.  1.
          2   -1    0    0  501    0  0.00000000000E+00 -0.00000000000E+00 -0.39844103621E+03  0.39844103621E+03  0.00000000000E+00 0. -1.
         25    2    1    2    0    0  0.46784567636E+02  0.37672079023E+02 -0.19830038174E+03  0.24202710971E+03  0.12508436804E+03 0.  0.
          5    1    3    3  502    0  0.87257365949E+02  0.40997986829E+02 -0.12261715234E+03  0.15603564107E+03  0.41800000000E+01 0.  1.
         -5    1    3    3    0  502 -0.40472798313E+02 -0.33259078059E+01 -0.75683229402E+02  0.85991468639E+02  0.41800000000E+01 0.  1.
        -11    1    1    2    0    0 -0.55714184667E+02 -0.65400401959E+02 -0.94729820514E+02  0.12788675398E+03  0.00000000000E+00 0.  1.
         11    1    1    2    0    0  0.89296170315E+01  0.27728322936E+02 -0.63801127389E+02  0.70136879095E+02  0.00000000000E+00 0. -1.
</event>
<event>
 7    1  0.2601031E-009  0.1956820E+03  0.7561462E-02  0.1153434E+00
          1   -1    0    0  501    0  0.00000000000E+00  0.00000000000E+00  0.16782713544E+03  0.16782713544E+03  0.00000000000E+00 0. -1.
         -1   -1    0    0    0  501 -0.00000000000E+00 -0.00000000000E+00 -0.32847491131E+03  0.32847491131E+03  0.00000000000E+00 0.  1.
         25    2    1    2    0    0  0.72953561475E+02  0.16551383774E+03  0.25142323763E+02  0.22135275954E+03  0.12509138698E+03 0.  0.
          5    1    3    3  502    0  0.86273171362E+02  0.11215573224E+03  0.62493505721E+02  0.15474132941E+03  0.41800000000E+01 0. -1.
         -5    1    3    3    0  502 -0.13319609887E+02  0.53358105499E+02 -0.37351181958E+02  0.66611430128E+02  0.41800000000E+01 0. -1.
        -11    1    1    2    0    0 -0.45518659705E+02 -0.16041044626E+03 -0.12609455095E+03  0.20905333155E+03  0.00000000000E+00 0. -1.
         11    1    1    2    0    0 -0.27434901770E+02 -0.51033914784E+01 -0.59695548681E+02  0.65895955658E+02  0.00000000000E+00 0.  1.
</event>
<event>
 7    1  0.2601031E-009  0.9483148E+02  0.7561462E-02  0.1291556E+00
          1   -1    0    0  501    0  0.00000000000E+00  0.00000000000E+00  0.58594880489E+02  0.58594880489E+02  0.00000000000E+00 0. -1.
         -1   -1    0    0    0  501 -0.00000000000E+00 -0.00000000000E+00 -0.26684822610E+03  0.26684822610E+03  0.00000000000E+00 0.  1.
         25    2    1    2    0    0 -0.40700885365E+02  0.23105370319E+02 -0.61627768312E+02  0.14708925700E+03  0.12508735944E+03 0.  0.
          5    1    3    3  502    0 -0.27558339477E+02 -0.26093333168E+02 -0.83264977512E+02  0.91601599280E+02  0.41800000000E+01 0. -1.
         -5    1    3    3    0  502 -0.13142545887E+02  0.49198703488E+02  0.21637209200E+02  0.55487657720E+02  0.41800000000E+01 0. -1.
        -11    1    1    2    0    0 -0.19036717655E+02  0.19315121415E+02 -0.52329198490E+02  0.58939083374E+02  0.00000000000E+00 0.  1.
         11    1    1    2    0    0  0.59737603020E+02 -0.42420491735E+02 -0.94296378806E+02  0.11941476621E+03  0.00000000000E+00 0. -1.
</event>
<event>
 7    1  0.2601031E-009  0.1415450E+03  0.7561462E-02  0.1211265E+00
         -1   -1    0    0    0  501 -0.00000000000E+00  0.00000000000E+00  0.75846466690E+02  0.75846466690E+02  0.00000000000E+00 0.  1.
          1   -1    0    0  501    0  0.00000000000E+00 -0.00000000000E+00 -0.68823126363E+03  0.68823126363E+03  0.00000000000E+00 0. -1.
         25    2    1    2    0    0  0.11769698234E+03  0.50382225837E+02 -0.57459875022E+03  0.60183292832E+03  0.12509277164E+03 0.  0.
          5    1    3    3  502    0 -0.93534133881E+01  0.22777884387E+02 -0.19473247961E+02  0.31670145962E+02  0.41800000000E+01 0. -1.
         -5    1    3    3    0  502  0.12705039572E+03  0.27604341450E+02 -0.55512550226E+03  0.57016278236E+03  0.41800000000E+01 0. -1.
        -11    1    1    2    0    0 -0.70425643552E+02 -0.30762910180E+02  0.25391504273E+02  0.80937360976E+02  0.00000000000E+00 0.  1.
         11    1    1    2    0    0 -0.47271338783E+02 -0.19619315656E+02 -0.63177550986E+02  0.81307441023E+02  0.00000000000E+00 0. -1.
</event>
<event>
 7    1  0.2601031E-009  0.2073752E+03  0.7561462E-02  0.1143662E+00
          4   -1    0    0  501    0  0.00000000000E+00  0.00000000000E+00  0.14221643635E+03  0.14221643635E+03  0.00000000000E+00 0. -1.
         -4   -1    0    0    0  501 -0.00000000000E+00 -0.00000000000E+00 -0.44361316095E+03  0.44361316095E+03  0.00000000000E+00 0.  1.
         25    2    1    2    0    0  0.18765655894E+03 -0.47192986168E+01 -0.82066268901E+01  0.22572607683E+03  0.12509059574E+03 0.  0.
          5    1    3    3  502    0  0.18683057619E+03 -0.23481022494E+02  0.22296911208E+02  0.18966192888E+03  0.41800000000E+01 0. -1.
         -5    1    3    3    0  502  0.82598274273E+00  0.18761723877E+02 -0.30503538098E+02  0.36064147943E+02  0.41800000000E+01 0. -1.
        -11    1    1    2    0    0 -0.44140359810E+02 -0.37119889841E+02 -0.10465091131E+03  0.11949088176E+03  0.00000000000E+00 0.  1.
         11    1    1    2    0    0 -0.14351619913E+03  0.41839188458E+02 -0.18853918640E+03  0.24061263872E+03  0.00000000000E+00 0. -1.
</event>
<event>
 7    1  0.2601031E-009  0.1549825E+03  0.7561462E-02  0.1194481E+00
         -1   -1    0    0    0  501 -0.00000000000E+00  0.00000000000E+00  0.23466267302E+02  0.23466267302E+02  0.00000000000E+00 0.  1.
          1   -1    0    0  501    0  0.00000000000E+00 -0.00000000000E+00 -0.14917217323E+04  0.14917217323E+04  0.00000000000E+00 0. -1.
         25    2    1    2    0    0 -0.21089897779E+02  0.13984420124E+03 -0.10091103518E+04  0.10266217862E+04  0.12508958953E+03 0.  0.
          5    1    3    3  502    0 -0.34597243273E+02  0.94937635211E+02 -0.31324575745E+03  0.32916637249E+03  0.41800000000E+01 0. -1.
         -5    1    3    3    0  502  0.13507345494E+02  0.44906566034E+02 -0.69586459430E+03  0.69745541367E+03  0.41800000000E+01 0. -1.
        -11    1    1    2    0    0 -0.22729513498E+02 -0.99924067185E+02 -0.34568693326E+03  0.36055638368E+03  0.00000000000E+00 0. -1.
         11    1    1    2    0    0  0.43819411277E+02 -0.39920134060E+02 -0.11345817998E+03  0.12800982975E+03  0.00000000000E+00 0.  1.
</event>
<event>
 7    1  0.2601031E-009  0.1359812E+03  0.7561462E-02  0.1218841E+00
          4   -1    0    0  501    0  0.00000000000E+00  0.00000000000E+00  0.69869014488E+02  0.69869014488E+02  0.00000000000E+00 0. -1.
         -4   -1    0    0    0  501 -0.00000000000E+00 -0.00000000000E+00 -0.28665040502E+03  0.28665040502E+03  0.00000000000E+00 0.  1.
         25    2    1    2    0    0 -0.83396846885E+02  0.43022369860E+01 -0.14817322476E+03  0.21113187205E+03  0.12509124487E+03 0.  0.
          5    1    3    3  502    0 -0.85307039715E+01 -0.51503010231E+02 -0.79277854423E+02  0.95014649266E+02  0.41800000000E+01 0.  1.
         -5    1    3    3    0  502 -0.74866142913E+02  0.55805247217E+02 -0.68895370342E+02  0.11611722278E+03  0.41800000000E+01 0.  1.
        -11    1    1    2    0    0 -0.21020379418E+02 -0.53792918363E+01 -0.22438074879E+02  0.31213143639E+02  0.00000000000E+00 0.  1.
         11    1    1    2    0    0  0.10441722630E+03  0.10770548503E+01 -0.46170090891E+02  0.11417440383E+03  0.00000000000E+00 0. -1.
</event>
<event>
 7    1  0.2601031E-009  0.8900888E+02  0.7561462E-02  0.1305270E+00
         -4   -1    0    0    0  501 -0.00000000000E+00  0.00000000000E+00  0.56618300192E+02  0.56618300192E+02  0.00000000000E+00 0.  1.
          4   -1    0    0  501    0  0.00000000000E+00 -0.00000000000E+00 -0.29446138623E+03  0.29446138623E+03  0.00000000000E+00 0. -1.
         25    2    1    2    0    0 -0.34584991730E+02 -0.31518006543E+02 -0.60143875302E+02  0.14647397949E+03  0.12509130482E+03 0.  0.
          5    1    3    3  502    0 -0.46892709768E+01  0.46151782748E+02 -0.38370158656E+02  0.60346646869E+02  0.41800000000E+01 0.  1.
         -5    1    3    3    0  502 -0.29895720753E+02 -0.77669789291E+02 -0.21773716646E+02  0.86127332621E+02  0.41800000000E+01 0.  1.
        -11    1    1    2    0    0  0.73559828080E+01  0.13760150242E+02  0.69758320171E+01  0.17091356005E+02  0.00000000000E+00 0.  1.
         11    1    1    2    0    0  0.27229008922E+02  0.17757856301E+02 -0.18467504276E+03  0.18751435093E+03  0.00000000000E+00 0. -1.
</event>
<event>
 7    1  0.2601031E-009  0.1079409E+03  0.7561462E-02  0.1264431E+00
          2   -1    0    0  501    0  0.00000000000E+00  0.00000000000E+00  0.28181430000E+03  0.28181430000E+03  0.00000000000E+00 0. -1.
         -2   -1    0    0    0  501 -0.00000000000E+00 -0.00000000000E+00 -0.51760080257E+02  0.51760080257E+02  0.00000000000E+00 0.  1.
         25    2    1    2    0    0 -0.16231059384E+02  0.31405343605E+02  0.73029357623E+02  0.14909974387E+03  0.12509078164E+03 0.  0.
          5    1    3    3  502    0 -0.54187534994E+02 -0.17999913016E+02  0.61170005653E+01  0.57577564322E+02  0.41800000000E+01 0. -1.
         -5    1    3    3    0  502  0.37956475610E+02  0.49405256621E+02  0.66912357058E+02  0.91522179550E+02  0.41800000000E+01 0. -1.
        -11    1    1    2    0    0 -0.73946961761E+01  0.29735378302E+02  0.40576571396E+02  0.50846164069E+02  0.00000000000E+00 0.  1.
         11    1    1    2    0    0  0.23625755560E+02 -0.61140721908E+02  0.11644829073E+03  0.13362847232E+03  0.00000000000E+00 0. -1.
</event>
<event>
 7    1  0.2601031E-009  0.1225794E+03  0.7561462E-02  0.1238902E+00
          2   -1    0    0  501    0  0.00000000000E+00  0.00000000000E+00  0.24381030944E+03  0.24381030944E+03  0.00000000000E+00 0. -1.
         -2   -1    0    0    0  501 -0.00000000000E+00 -0.00000000000E+00 -0.73192504826E+02  0.73192504826E+02  0.00000000000E+00 0.  1.
         25    2    1    2    0    0 -0.72876262509E+02  0.63433575511E+01  0.60963797702E+02  0.15720897531E+03  0.12508752721E+03 0.  0.
          5    1    3    3  502    0 -0.65446053700E+02  0.51245442942E+02  0.28499298103E+01  0.83275902079E+02  0.41800000000E+01 0. -1.
         -5    1    3    3    0  502 -0.74302088094E+01 -0.44902085391E+02  0.58113867892E+02  0.73933073226E+02  0.41800000000E+01 0. -1.
        -11    1    1    2    0    0  0.62642673803E+02 -0.44423908486E+02  0.71719998504E+02  0.10507781123E+03  0.00000000000E+00 0.  1.
         11    1    1    2    0    0  0.10233588706E+02  0.38080550935E+02  0.37934008410E+02  0.54716027738E+02  0.00000000000E+00 0. -1.
</event>
<event>
 7    1  0.2601031E-009  0.1547967E+03  0.7561462E-02  0.1194700E+00
         -2   -1    0    0    0  501 -0.00000000000E+00  0.00000000000E+00  0.39596773197E+02  0.39596773197E+02  0.00000000000E+00 0.  1.
          2   -1    0    0  501    0  0.00000000000E+00 -0.00000000000E+00 -0.10320852647E+04  0.10320852647E+04  0.00000000000E+00 0. -1.
         25    2    1    2    0    0 -0.65234833564E+02  0.12304211331E+03 -0.25786850232E+03  0.31865074389E+03  0.12508871627E+03 0.  0.
          5    1    3    3  502    0  0.11389005386E+01 -0.11661276529E+02  0.69053588524E+01  0.14228100562E+02  0.41800000000E+01 0.  1.
         -5    1    3    3    0  502 -0.66373734103E+02  0.13470338984E+03 -0.26477386117E+03  0.30442264333E+03  0.41800000000E+01 0.  1.
        -11    1    1    2    0    0  0.20074925784E+02 -0.52137566169E+01 -0.25978123135E+02  0.33242274063E+02  0.00000000000E+00 0.  1.
         11    1    1    2    0    0  0.45159907780E+02 -0.11782835669E+03 -0.70864186607E+03  0.71978901996E+03  0.00000000000E+00 0. -1.
</event>
<event>
 7    1  0.2601031E-009  0.1272905E+03  0.7561462E-02  0.1231532E+00
          4   -1    0    0  501    0  0.00000000000E+00  0.00000000000E+00  0.33890118030E+02  0.33890118030E+02  0.00000000000E+00 0. -1.
         -4   -1    0    0    0  501 -0.00000000000E+00 -0.00000000000E+00 -0.56708875822E+03  0.56708875822E+03  0.00000000000E+00 0.  1.
         25    2    1    2    0    0 -0.62170397196E+02  0.81900662026E+00 -0.37888564973E+03  0.40381623523E+03  0.12508951677E+03 0.  0.
          5    1    3    3  502    0  0.31023546682E+02  0.26186631996E+02 -0.14760591710E+03  0.15314430877E+03  0.41800000000E+01 0.  1.
         -5    1    3    3    0  502 -0.93193943878E+02 -0.25367625376E+02 -0.23127973262E+03  0.25067192646E+03  0.41800000000E+01 0.  1.
        -11    1    1    2    0    0  0.85795396193E+02  0.17047933029E+02 -0.13788835212E+03  0.16329323219E+03  0.00000000000E+00 0.  1.
         11    1    1    2    0    0 -0.23624998997E+02 -0.17866939649E+02 -0.16424638343E+02  0.33869408834E+02  0.00000000000E+00 0. -1.
</event>
<event>
 7    1  0.2601031E-009  0.1489686E+03  0.7561462E-02  0.1201746E+00
          1   -1    0    0  501    0  0.00000000000E+00  0.00000000000E+00  0.93546378537E+03  0.93546378537E+03  0.00000000000E+00 0. -1.
         -1   -1    0    0    0  501 -0.00000000000E+00 -0.00000000000E+00 -0.31692663637E+02  0.31692663637E+02  0.00000000000E+00 0.  1.
         25    2    1    2    0    0  0.81091710327E+02  0.82404006825E+02  0.35190887316E+03  0.39096265624E+03  0.12508260366E+03 0.  0.
          5    1    3    3  502    0  0.33246040633E+01 -0.29676335700E+02  0.10013037267E+03  0.10457199349E+03  0.41800000000E+01 0.  1.
         -5    1    3    3    0  502  0.77767106263E+02  0.11208034252E+03  0.25177850049E+03  0.28639066275E+03  0.41800000000E+01 0.  1.
        -11    1    1    2    0    0 -0.63576851492E+02 -0.91614736214E+02  0.54330968196E+03  0.55463563396E+03  0.00000000000E+00 0. -1.
         11    1    1    2    0    0 -0.17514858835E+02  0.92107293889E+01  0.85525666095E+01  0.21558158815E+02  0.00000000000E+00 0.  1.
</event>
<event>
 7    1  0.2601031E-009  0.1094889E+03  0.7561462E-02  0.1261519E+00
          1   -1    0    0  501    0  0.00000000000E+00  0.00000000000E+00  0.34493105456E+03  0.34493105456E+03  0.00000000000E+00 0. -1.
         -1   -1    0    0    0  501 -0.00000000000E+00 -0.00000000000E+00 -0.37508081164E+02  0.37508081164E+02  0.00000000000E+00 0.  1.
         25    2    1    2    0    0 -0.14073430855E+02  0.20283782141E+02  0.14008558343E+03  0.18942091141E+03  0.12508724044E+03 0.  0.
          5    1    3    3  502    0 -0.64340352066E+02 -0.80051422205E+01  0.48388722013E+02  0.81010517984E+02  0.41800000000E+01 0.  1.
         -5    1    3    3    0  502  0.50266921210E+02  0.28288924361E+02  0.91696861420E+02  0.10841039343E+03  0.41800000000E+01 0.  1.
        -11    1    1    2    0    0  0.53292207586E+02 -0.31743018990E+01  0.95020790717E+02  0.10899122098E+03  0.00000000000E+00 0. -1.
         11    1    1    2    0    0 -0.39218776731E+02 -0.17109480242E+02  0.72316599248E+02  0.84027003333E+02  0.00000000000E+00 0.  1.
</event>
<event>
 7    1  0.2601031E-009  0.1193975E+03  0.7561462E-02  0.1244094E+00
          3   -1    0    0  501    0  0.00000000000E+00  0.00000000000E+00  0.74166982370E+02  0.74166982370E+02  0.00000000000E+00 0.  1.
         -3   -1    0    0    0  501 -0.00000000000E+00 -0.00000000000E+00 -0.42524427569E+03  0.42524427569E+03  0.00000000000E+00 0. -1.
         25    2    1    2    0    0 -0.10121955884E+03  0.32865790361E+02 -0.55292111640E+02  0.17329284536E+03  0.12509050074E+03 0.  0.
          5    1    3    3  502    0 -0.57480526990E+02 -0.18270427951E+02 -0.81053447387E+02  0.10111851094E+03  0.41800000000E+01 0. -1.
         -5    1    3    3    0  502 -0.43739031852E+02  0.51136218312E+02  0.25761335747E+02  0.72174334427E+02  0.41800000000E+01 0. -1.
        -11    1    1    2    0    0  0.26482580810E+02  0.52846078195E+01 -0.10881283939E+02  0.29114541149E+02  0.00000000000E+00 0.  1.
         11    1    1    2    0    0  0.74736978033E+02 -0.38150398180E+02 -0.28490389774E+03  0.29700387155E+03  0.00000000000E+00 0. -1.
</event>
<event>
 7    1  0.2601031E-009  0.1299897E+03  0.7561462E-02  0.1227471E+00
          4   -1    0    0  501    0  0.00000000000E+00  0.00000000000E+00  0.57205204317E+02  0.57205204317E+02  0.00000000000E+00 0.  1.
         -4   -1    0    0    0  501 -0.00000000000E+00 -0.00000000000E+00 -0.47815200518E+03  0.47815200518E+03  0.00000000000E+00 0. -1.
         25    2    1    2    0    0  0.87548641806E+02  0.42367567513E+02 -0.32608650811E+03  0.36254701411E+03  0.12509257056E+03 0.  0.
          5    1    3    3  502    0 -0.22639287211E+01 -0.37489321498E+02 -0.67258874962E+02  0.77147931021E+02  0.41800000000E+01 0.  1.
         -5    1    3    3    0  502  0.89812570527E+02  0.79856889011E+02 -0.25882763314E+03  0.28539908309E+03  0.41800000000E+01 0.  1.
        -11    1    1    2    0    0 -0.23974894371E+02 -0.27808978693E+02 -0.10084064943E+03  0.10731715349E+03  0.00000000000E+00 0. -1.
         11    1    1    2    0    0 -0.63573747435E+02 -0.14558588821E+02  0.59803566730E+01  0.65493041900E+02  0.00000000000E+00 0.  1.
</event>
<event>
 7    1  0.2601031E-009  0.3096012E+03  0.7561462E-02  0.1080537E+00
          1   -1    0    0  501    0  0.00000000000E+00  0.00000000000E+00  0.40839341553E+03  0.40839341553E+03  0.00000000000E+00 0. -1.
         -1   -1    0    0    0  501 -0.00000000000E+00 -0.00000000000E+00 -0.26932213565E+03  0.26932213565E+03  0.00000000000E+00 0.  1.
         25    2    1    2    0    0 -0.27234847244E+03 -0.93958267001E+02  0.21239144584E+02  0.31479947772E+03  0.12508302655E+03 0.  0.
          5    1    3    3  502    0 -0.18974937020E+03 -0.56073841495E+02  0.72037250964E+02  0.21060849251E+03  0.41800000000E+01 0. -1.
         -5    1    3    3    0  502 -0.82599102239E+02 -0.37884425506E+02 -0.50798106380E+02  0.10419098521E+03  0.41800000000E+01 0. -1.
        -11    1    1    2    0    0  0.51755439719E+02  0.96743522725E+02  0.87282128358E+02  0.14020023060E+03  0.00000000000E+00 0.  1.
         11    1    1    2    0    0  0.22059303272E+03 -0.27852557243E+01  0.30550006935E+02  0.22271584286E+03  0.00000000000E+00 0. -1.
</event>
<event>
 7    1  0.2601031E-009  0.1068007E+03  0.7561462E-02  0.1266612E+00
         -1   -1    0    0    0  501 -0.00000000000E+00  0.00000000000E+00  0.57785599893E+02  0.57785599893E+02  0.00000000000E+00 0.  1.
          1   -1    0    0  501    0  0.00000000000E+00 -0.00000000000E+00 -0.32202089985E+03  0.32202089985E+03  0.00000000000E+00 0. -1.
         25    2    1    2    0    0 -0.26249993653E+02  0.69002196132E+01 -0.25648281688E+03  0.28664747244E+03  0.12508662160E+03 0.  0.
          5    1    3    3  502    0 -0.17951536900E+02  0.65609503600E+02 -0.12553136523E+03  0.14283718247E+03  0.41800000000E+01 0.  1.
         -5    1    3    3    0  502 -0.82984567529E+01 -0.58709283987E+02 -0.13095145165E+03  0.14381028997E+03  0.41800000000E+01 0.  1.
        -11    1    1    2    0    0 -0.26446249343E+02  0.13268412897E+02 -0.19617887586E+02  0.35500935178E+02  0.00000000000E+00 0. -1.
         11    1    1    2    0    0  0.52696242997E+02 -0.20168632510E+02  0.11865404513E+02  0.57658092125E+02  0.00000000000E+00 0.  1.
</event>
<event>
 7    1  0.2601031E-009  0.5230927E+02  0.7561462E-02  0.1433270E+00
         -1   -1    0    0    0  501 -0.00000000000E+00  0.00000000000E+00  0.21086364450E+02  0.21086364450E+02  0.00000000000E+00 0.  1.
          1   -1    0    0  501    0  0.00000000000E+00 -0.00000000000E+00 -0.51291860844E+03  0.51291860844E+03  0.00000000000E+00 0. -1.
         25    2    1    2    0    0  0.13586441760E+02  0.10791113263E+02 -0.35066253292E+03  0.37270943035E+03  0.12508824065E+03 0.  0.
          5    1    3    3  502    0 -0.14057848166E+02 -0.49567877143E+01  0.44830321356E+01  0.16117159075E+02  0.41800000000E+01 0.  1.
         -5    1    3    3    0  502  0.27644289926E+02  0.15747900977E+02 -0.35514556506E+03  0.35659227127E+03  0.41800000000E+01 0.  1.
        -11    1    1    2    0    0 -0.23033885830E+02  0.16391778711E+02 -0.15235243775E+02  0.32114840162E+02  0.00000000000E+00 0.  1.
         11    1    1    2    0    0  0.94474440702E+01 -0.27182891974E+02 -0.12593446729E+03  0.12918070238E+03  0.00000000000E+00 0. -1.
</event>
<event>
 7    1  0.3285315E-009  0.1677693E+03  0.7561462E-02  0.1180194E+00
          2   -1    0    0  501    0  0.00000000000E+00  0.00000000000E+00  0.76247193952E+03  0.76247193952E+03  0.00000000000E+00 0. -1.
         -2   -1    0    0    0  501 -0.00000000000E+00 -0.00000000000E+00 -0.44445722210E+02  0.44445722210E+02  0.00000000000E+00 0.  1.
         25    2    1    2    0    0  0.13286789331E+03  0.49876679239E+02  0.28543887341E+03  0.34244271569E+03  0.12510037120E+03 0.  0.
          5    1    3    3  502    0  0.79404418578E+02 -0.36288961850E+02  0.12261800948E+03  0.15058087226E+03  0.41800000000E+01 0.  1.
         -5    1    3    3    0  502  0.53463474730E+02  0.86165641088E+02  0.16282086392E+03  0.19186184343E+03  0.41800000000E+01 0.  1.
        -11    1    1    2    0    0 -0.89154783671E+02 -0.14322878999E+02  0.14058889773E+03  0.16708967197E+03  0.00000000000E+00 0.  1.
         11    1    1    2    0    0 -0.43713109638E+02 -0.35553800240E+02  0.29199844617E+03  0.29738527406E+03  0.00000000000E+00 0. -1.
</event>
<event>
 7    1  0.2601031E-009  0.1594655E+03  0.7561462E-02  0.1189302E+00
         -3   -1    0    0    0  501 -0.00000000000E+00  0.00000000000E+00  0.40716430259E+03  0.40716430259E+03  0.00000000000E+00 0.  1.
          3   -1    0    0  501    0  0.00000000000E+00 -0.00000000000E+00 -0.85012803677E+02  0.85012803677E+02  0.00000000000E+00 0. -1.
         25    2    1    2    0    0 -0.72199150743E+02 -0.13065714344E+03  0.15867747116E+03  0.25121655073E+03  0.12508880448E+03 0.  0.
          5    1    3    3  502    0 -0.42427982988E+02 -0.31257047328E+02 -0.93536642896E+01  0.53685195201E+02  0.41800000000E+01 0.  1.
         -5    1    3    3    0  502 -0.29771167754E+02 -0.99400096109E+02  0.16803113545E+03  0.19753135552E+03  0.41800000000E+01 0.  1.
        -11    1    1    2    0    0  0.93254381710E+01  0.82492983703E+02  0.35128812270E+02  0.90144825746E+02  0.00000000000E+00 0. -1.
         11    1    1    2    0    0  0.62873712571E+02  0.48164159734E+02  0.12834521548E+03  0.15081572979E+03  0.00000000000E+00 0.  1.
</event>
<event>
 7    1  0.2601031E-009  0.1190588E+03  0.7561462E-02  0.1244658E+00
          1   -1    0    0  501    0  0.00000000000E+00  0.00000000000E+00  0.33537863451E+03  0.33537863451E+03  0.00000000000E+00 0. -1.
         -1   -1    0    0    0  501 -0.00000000000E+00 -0.00000000000E+00 -0.60410132040E+02  0.60410132040E+02  0.00000000000E+00 0.  1.
         25    2    1    2    0    0  0.35257923906E+02  0.51926224432E+02  0.98036418775E+02  0.17087656538E+03  0.12509279439E+03 0.  0.
          5    1    3    3  502    0  0.99291261904E+01  0.91533582251E+02  0.57270768003E+02  0.10850989584E+03  0.41800000000E+01 0.  1.
         -5    1    3    3    0  502  0.25328797715E+02 -0.39607357819E+02  0.40765650772E+02  0.62366669543E+02  0.41800000000E+01 0.  1.
        -11    1    1    2    0    0 -0.24599811225E+02 -0.71966587573E+02  0.39656725481E+02  0.85772934631E+02  0.00000000000E+00 0.  1.
         11    1    1    2    0    0 -0.10658112681E+02  0.20040363141E+02  0.13727535821E+03  0.13913926654E+03  0.00000000000E+00 0. -1.
</event>
<event>
 7    1  0.2601031E-009  0.8086527E+02  0.7561462E-02  0.1326614E+00
          4   -1    0    0  501    0  0.00000000000E+00  0.00000000000E+00  0.79317069511E+02  0.79317069511E+02  0.00000000000E+00 0. -1.
         -4   -1    0    0    0  501 -0.00000000000E+00 -0.00000000000E+00 -0.15433773682E+03  0.15433773682E+03  0.00000000000E+00 0.  1.
         25    2    1    2    0    0 -0.49580791580E+01  0.96048438771E+01 -0.29719179345E+02  0.12902329446E+03  0.12508775047E+03 0.  0.
          5    1    3    3  502    0  0.12208540555E+02  0.62588242626E+02  0.35685221235E+01  0.64004244607E+02  0.41800000000E+01 0.  1.
         -5    1    3    3    0  502 -0.17166619713E+02 -0.52983398749E+02 -0.33287701469E+02  0.65019049858E+02  0.41800000000E+01 0.  1.
        -11    1    1    2    0    0 -0.85976642767E+01 -0.21990964570E+02  0.23564937232E+02  0.33359086026E+02  0.00000000000E+00 0. -1.
         11    1    1    2    0    0  0.13555743435E+02  0.12386120693E+02 -0.68866425194E+02  0.71272425838E+02  0.00000000000E+00 0.  1.
</event>
<event>
 7    1  0.2601031E-009  0.9902277E+02  0.7561462E-02  0.1282364E+00
          1   -1    0    0  501    0  0.00000000000E+00  0.00000000000E+00  0.21156875489E+03  0.21156875489E+03  0.00000000000E+00 0. -1.
         -1   -1    0    0    0  501 -0.00000000000E+00 -0.00000000000E+00 -0.62075009470E+02  0.62075009470E+02  0.00000000000E+00 0.  1.
         25    2    1    2    0    0 -0.31478779301E+02 -0.20038503593E+02  0.75218436389E+02  0.15065482632E+03  0.12508640353E+03 0.  0.
          5    1    3    3  502    0  0.20804805389E+02 -0.50828302970E+02  0.15201123411E+01  0.55101174684E+02  0.41800000000E+01 0. -1.
         -5    1    3    3    0  502 -0.52283584690E+02  0.30789799377E+02  0.73698324047E+02  0.95553651637E+02  0.41800000000E+01 0. -1.
        -11    1    1    2    0    0  0.42163831872E+02 -0.15586553247E+02  0.61488706115E+01  0.45371113829E+02  0.00000000000E+00 0.  1.
         11    1    1    2    0    0 -0.10685052571E+02  0.35625056841E+02  0.68126438419E+02  0.77617824209E+02  0.00000000000E+00 0. -1.
</event>
<event>
 7    1  0.2601031E-009  0.2644248E+03  0.7561462E-02  0.1104513E+00
         -2   -1    0    0    0  501 -0.00000000000E+00  0.00000000000E+00  0.13570507376E+03  0.13570507376E+03  0.00000000000E+00 0. -1.
          2   -1    0    0  501    0  0.00000000000E+00 -0.00000000000E+00 -0.64937788376E+03  0.64937788376E+03  0.00000000000E+00 0.  1.
         25    2    1    2    0    0  0.32655558454E+02 -0.25464924683E+03 -0.12647668031E+03  0.31234023651E+03  0.12508976086E+03 0.  0.
          5    1    3    3  502    0 -0.21235343514E+02 -0.13923460989E+03 -0.11941200916E+03  0.18469953097E+03  0.41800000000E+01 0.  1.
         -5    1    3    3    0  502  0.53890901968E+02 -0.11541463694E+03 -0.70646711505E+01  0.12764070555E+03  0.41800000000E+01 0.  1.
        -11    1    1    2    0    0  0.10310423871E+02  0.79004123374E+02 -0.63176164176E+02  0.10168177846E+03  0.00000000000E+00 0. -1.
         11    1    1    2    0    0 -0.42965982325E+02  0.17564512346E+03 -0.32401996552E+03  0.37106094255E+03  0.00000000000E+00 0.  1.
</event>
<event>
 7    1  0.2601031E-009  0.1142436E+03  0.7561462E-02  0.1252907E+00
         -1   -1    0    0    0  501 -0.00000000000E+00  0.00000000000E+00  0.12130578526E+03  0.12130578526E+03  0.00000000000E+00 0.  1.
          1   -1    0    0  501    0  0.00000000000E+00 -0.00000000000E+00 -0.15340011477E+03  0.15340011477E+03  0.00000000000E+00 0. -1.
         25    2    1    2    0    0  0.17977915605E+02 -0.79733059262E+02 -0.24287450414E+02  0.15138359623E+03  0.12508615740E+03 0.  0.
          5    1    3    3  502    0  0.45748867216E+02 -0.58886142716E+02  0.35052857358E+02  0.82502799131E+02  0.41800000000E+01 0. -1.
         -5    1    3    3    0  502 -0.27770951611E+02 -0.20846916545E+02 -0.59340307772E+02  0.68880797101E+02  0.41800000000E+01 0. -1.
        -11    1    1    2    0    0 -0.48571906113E+02  0.21651737773E+02  0.12458744268E+02  0.54619118638E+02  0.00000000000E+00 0.  1.
         11    1    1    2    0    0  0.30593990509E+02  0.58081321489E+02 -0.20265623359E+02  0.68703185161E+02  0.00000000000E+00 0. -1.
</event>
<event>
 7    1  0.2601031E-009  0.6547977E+02  0.7561462E-02  0.1376176E+00
         -1   -1    0    0    0  501 -0.00000000000E+00  0.00000000000E+00  0.10174128868E+03  0.10174128868E+03  0.00000000000E+00 0.  1.
          1   -1    0    0  501    0  0.00000000000E+00 -0.00000000000E+00 -0.21839192651E+03  0.21839192651E+03  0.00000000000E+00 0. -1.
         25    2    1    2    0    0 -0.33388596709E+02  0.41595434813E+02 -0.16496169944E+03  0.21379566371E+03  0.12510493577E+03 0.  0.
          5    1    3    3  502    0 -0.89421098858E+01  0.25943462147E+02 -0.17910006062E+03  0.18123832010E+03  0.41800000000E+01 0.  1.
         -5    1    3    3    0  502 -0.24446486823E+02  0.15651972667E+02  0.14138361184E+02  0.32557343616E+02  0.41800000000E+01 0.  1.
        -11    1    1    2    0    0 -0.12925518700E+02 -0.17238466148E+02  0.49510331669E+02  0.53995432129E+02  0.00000000000E+00 0.  1.
         11    1    1    2    0    0  0.46314115409E+02 -0.24356968665E+02 -0.11992700608E+01  0.52342119343E+02  0.00000000000E+00 0. -1.
</event>
<event>
 7    1  0.2601031E-009  0.1159319E+03  0.7561462E-02  0.1249963E+00
          4   -1    0    0  501    0  0.00000000000E+00  0.00000000000E+00  0.13847119426E+03  0.13847119426E+03  0.00000000000E+00 0. -1.
         -4   -1    0    0    0  501 -0.00000000000E+00 -0.00000000000E+00 -0.10389621391E+03  0.10389621391E+03  0.00000000000E+00 0.  1.
         25    2    1    2    0    0 -0.39785581858E+02 -0.14308100859E+02 -0.50822978053E+01  0.13214170901E+03  0.12509191514E+03 0.  0.
          5    1    3    3  502    0  0.97458804315E+01 -0.61307372132E+02 -0.12067279666E+02  0.63377185972E+02  0.41800000000E+01 0. -1.
         -5    1    3    3    0  502 -0.49531462289E+02  0.46999271273E+02  0.69849818609E+01  0.68764523036E+02  0.41800000000E+01 0.  1.
        -11    1    1    2    0    0  0.58623150057E+02 -0.20130524174E+02  0.14676321468E+02  0.63696986883E+02  0.00000000000E+00 0.  1.
         11    1    1    2    0    0 -0.18837568199E+02  0.34438625033E+02  0.24980956687E+02  0.46528712284E+02  0.00000000000E+00 0. -1.
</event>
<event>
 7    1  0.2674750E-009  0.1068679E+03  0.7561462E-02  0.1266482E+00
         -1   -1    0    0    0  501 -0.00000000000E+00  0.00000000000E+00  0.15533000828E+02  0.15533000828E+02  0.00000000000E+00 0. -1.
          1   -1    0    0  501    0  0.00000000000E+00 -0.00000000000E+00 -0.98384545387E+03  0.98384545387E+03  0.00000000000E+00 0.  1.
         25    2    1    2    0    0 -0.42795073120E+02 -0.24014542617E+02 -0.67815533033E+03  0.69134005515E+03  0.12509317832E+03 0.  0.
          5    1    3    3  502    0  0.11020153948E+02  0.44603510230E+02 -0.19715063362E+03  0.20247657063E+03  0.41800000000E+01 0.  1.
         -5    1    3    3    0  502 -0.53815227068E+02 -0.68618052847E+02 -0.48100469671E+03  0.48886348452E+03  0.41800000000E+01 0.  1.
        -11    1    1    2    0    0  0.13669804857E+02  0.43273012993E+02 -0.25304761528E+03  0.25708464135E+03  0.00000000000E+00 0.  1.
         11    1    1    2    0    0  0.29125268263E+02 -0.19258470376E+02 -0.37109507433E+02  0.50953758199E+02  0.00000000000E+00 0. -1.
</event>
<event>
 7    1  0.2601031E-009  0.2127928E+03  0.7561462E-02  0.1139373E+00
          2   -1    0    0  501    0  0.00000000000E+00  0.00000000000E+00  0.22975827584E+04  0.22975827584E+04  0.00000000000E+00 0. -1.
         -2   -1    0    0    0  501 -0.00000000000E+00 -0.00000000000E+00 -0.20517141454E+02  0.20517141454E+02  0.00000000000E+00 0.  1.
         25    2    1    2    0    0  0.18457118653E+03  0.35904937891E+02  0.11928020885E+04  0.12139932084E+04  0.12508796943E+03 0.  0.
          5    1    3    3  502    0  0.10663309096E+03 -0.34622017204E+02  0.77861739503E+03  0.78665864287E+03  0.41800000000E+01 0. -1.
         -5    1    3    3    0  502  0.77938095562E+02  0.70526955095E+02  0.41418469350E+03  0.42733456549E+03  0.41800000000E+01 0. -1.
        -11    1    1    2    0    0 -0.10261903509E+03  0.25566306086E+02  0.52752403476E+03  0.53802036171E+03  0.00000000000E+00 0. -1.
         11    1    1    2    0    0 -0.81952151433E+02 -0.61471243977E+02  0.55673949365E+03  0.56608632977E+03  0.00000000000E+00 0.  1.
</event>
<event>
 7    1  0.2601031E-009  0.9585463E+02  0.7561462E-02  0.1289263E+00
          2   -1    0    0  501    0  0.00000000000E+00  0.00000000000E+00  0.42059175644E+03  0.42059175644E+03  0.00000000000E+00 0. -1.
         -2   -1    0    0    0  501 -0.00000000000E+00 -0.00000000000E+00 -0.33381369624E+02  0.33381369624E+02  0.00000000000E+00 0.  1.
         25    2    1    2    0    0 -0.15140827277E+02 -0.13170875420E+02  0.29961989639E+03  0.32530345457E+03  0.12509012205E+03 0.  0.
          5    1    3    3  502    0 -0.47989064433E+02  0.23814011813E+02  0.59786508309E+02  0.80386295098E+02  0.41800000000E+01 0.  1.
         -5    1    3    3    0  502  0.32848237156E+02 -0.36984887233E+02  0.23983338808E+03  0.24491715948E+03  0.41800000000E+01 0.  1.
        -11    1    1    2    0    0 -0.36101449646E+02  0.54322338625E+01  0.14978389475E+02  0.39461069202E+02  0.00000000000E+00 0.  1.
         11    1    1    2    0    0  0.51242276923E+02  0.77386415573E+01  0.72612100949E+02  0.89208602284E+02  0.00000000000E+00 0. -1.
</event>
<event>
 7    1  0.2601031E-009  0.1398774E+03  0.7561462E-02  0.1213494E+00
         -2   -1    0    0    0  501 -0.00000000000E+00  0.00000000000E+00  0.49471147441E+03  0.49471147441E+03  0.00000000000E+00 0.  1.
          2   -1    0    0  501    0  0.00000000000E+00 -0.00000000000E+00 -0.52669630289E+02  0.52669630289E+02  0.00000000000E+00 0. -1.
         25    2    1    2    0    0  0.42120628630E+02 -0.98797950519E+02  0.15520012839E+03  0.22642722689E+03  0.12508807634E+03 0.  0.
          5    1    3    3  502    0  0.25460383910E+02  0.14260170778E+02  0.90187392822E+02  0.94883201060E+02  0.41800000000E+01 0. -1.
         -5    1    3    3    0  502  0.16660244720E+02 -0.11305812130E+03  0.65012735564E+02  0.13154402583E+03  0.41800000000E+01 0. -1.
        -11    1    1    2    0    0 -0.53731513742E+02  0.21692971877E+02  0.72132438160E+02  0.92524316981E+02  0.00000000000E+00 0. -1.
         11    1    1    2    0    0  0.11610885112E+02  0.77104978642E+02  0.21470927758E+03  0.22842956083E+03  0.00000000000E+00 0.  1.
</event>
<event>
 7    1  0.2601031E-009  0.2034345E+03  0.7561462E-02  0.1146873E+00
          1   -1    0    0  501    0  0.00000000000E+00  0.00000000000E+00  0.18524211271E+03  0.18524211271E+03  0.00000000000E+00 0. -1.
         -1   -1    0    0    0  501 -0.00000000000E+00 -0.00000000000E+00 -0.23726021129E+03  0.23726021129E+03  0.00000000000E+00 0.  1.
         25    2    1    2    0    0 -0.15241743843E+03 -0.92918877324E+02 -0.73859335389E+01  0.21810030797E+03  0.12509276167E+03 0.  0.
          5    1    3    3  502    0 -0.10282575306E+03 -0.13010420151E+00  0.28628594167E+02  0.10681863706E+03  0.41800000000E+01 0.  1.
         -5    1    3    3    0  502 -0.49591685373E+02 -0.92788773122E+02 -0.36014527706E+02  0.11128167091E+03  0.41800000000E+01 0.  1.
        -11    1    1    2    0    0  0.11077371892E+03  0.10767759708E+03 -0.26968343176E+02  0.15682019401E+03  0.00000000000E+00 0.  1.
         11    1    1    2    0    0  0.41643719513E+02 -0.14758719759E+02 -0.17663821870E+02  0.47581822021E+02  0.00000000000E+00 0. -1.
</event>
<event>
 7    1  0.2601031E-009  0.1185785E+03  0.7561462E-02  0.1245461E+00
         -3   -1    0    0    0  501 -0.00000000000E+00  0.00000000000E+00  0.44236266876E+03  0.44236266876E+03  0.00000000000E+00 0.  1.
          3   -1    0    0  501    0  0.00000000000E+00 -0.00000000000E+00 -0.46974557788E+02  0.46974557788E+02  0.00000000000E+00 0. -1.
         25    2    1    2    0    0  0.16642222276E+02 -0.94732296278E+02  0.21465970353E+03  0.26641731133E+03  0.12509286124E+03 0.  0.
          5    1    3    3  502    0  0.54022919277E+02 -0.48427664992E+02  0.18707020891E+03  0.20068993499E+03  0.41800000000E+01 0.  1.
         -5    1    3    3    0  502 -0.37380697001E+02 -0.46304631285E+02  0.27589494619E+02  0.65727376336E+02  0.41800000000E+01 0.  1.
        -11    1    1    2    0    0 -0.19045329452E+02  0.12995735138E+02  0.11699284636E+03  0.11924319605E+03  0.00000000000E+00 0.  1.
         11    1    1    2    0    0  0.24031071751E+01  0.81736561140E+02  0.63735561081E+02  0.10367671917E+03  0.00000000000E+00 0. -1.
</event>
<event>
 7    1  0.2601031E-009  0.1059667E+03  0.7561462E-02  0.1268227E+00
         -2   -1    0    0    0  501 -0.00000000000E+00  0.00000000000E+00  0.54336886624E+02  0.54336886624E+02  0.00000000000E+00 0.  1.
          2   -1    0    0  501    0  0.00000000000E+00 -0.00000000000E+00 -0.39777104154E+03  0.39777104154E+03  0.00000000000E+00 0. -1.
         25    2    1    2    0    0  0.56261752678E+02  0.11615208138E+02 -0.28193792596E+03  0.31374810499E+03  0.12509429010E+03 0.  0.
          5    1    3    3  502    0 -0.40284938698E+02  0.28384609663E+01 -0.80776434431E+02  0.90405961673E+02  0.41800000000E+01 0. -1.
         -5    1    3    3    0  502  0.96546691376E+02  0.87767471720E+01 -0.20116149153E+03  0.22334214332E+03  0.41800000000E+01 0. -1.
        -11    1    1    2    0    0  0.40497030071E+01 -0.13360901621E+02  0.27498543869E+02  0.30839644964E+02  0.00000000000E+00 0.  1.
         11    1    1    2    0    0 -0.60311455685E+02  0.17456934828E+01 -0.88994772826E+02  0.10752017821E+03  0.00000000000E+00 0. -1.
</event>
<event>
 7    1  0.2601031E-009  0.1282639E+03  0.7561462E-02  0.1230055E+00
          2   -1    0    0  501    0  0.00000000000E+00  0.00000000000E+00  0.66996462310E+02  0.66996462310E+02  0.00000000000E+00 0.  1.
         -2   -1    0    0    0  501 -0.00000000000E+00 -0.00000000000E+00 -0.33325049650E+03  0.33325049650E+03  0.00000000000E+00 0. -1.
         25    2    1    2    0    0 -0.89923121551E+02  0.37868651464E+02 -0.15151037159E+03  0.21936934232E+03  0.12508922055E+03 0.  0.
          5    1    3    3  502    0 -0.12106596405E+03  0.38389789162E+02 -0.11770494792E+03  0.17321279031E+03  0.41800000000E+01 0.  1.
         -5    1    3    3    0  502  0.31142842502E+02 -0.52113769799E+00 -0.33805423670E+02  0.46156552006E+02  0.41800000000E+01 0.  1.
        -11    1    1    2    0    0  0.37158358905E+02 -0.10650725431E+02 -0.11519211642E+03  0.12150475412E+03  0.00000000000E+00 0. -1.
         11    1    1    2    0    0  0.52764762645E+02 -0.27217926033E+02  0.44845382085E+00  0.59372862364E+02  0.00000000000E+00 0.  1.
</event>
<event>
 7    1  0.2601031E-009  0.7557171E+02  0.7561462E-02  0.1342110E+00
         -2   -1    0    0    0  501 -0.00000000000E+00  0.00000000000E+00  0.78465944061E+03  0.78465944061E+03  0.00000000000E+00 0.  1.
          2   -1    0    0  501    0  0.00000000000E+00 -0.00000000000E+00 -0.18662484621E+02  0.18662484621E+02  0.00000000000E+00 0. -1.
         25    2    1    2    0    0 -0.18941854114E+02  0.24614373272E+02  0.58443122404E+03  0.59847522795E+03  0.12509229242E+03 0.  0.
          5    1    3    3  502    0 -0.38185844306E+02  0.77260167866E+01  0.56424587717E+03  0.56560474922E+03  0.41800000000E+01 0.  1.
         -5    1    3    3    0  502  0.19243990193E+02  0.16888356485E+02  0.20185346875E+02  0.32870478727E+02  0.41800000000E+01 0.  1.
        -11    1    1    2    0    0 -0.68158987614E+01 -0.49639310552E+02  0.14577149220E+03  0.15414229000E+03  0.00000000000E+00 0.  1.
         11    1    1    2    0    0  0.25757752875E+02  0.25024937280E+02  0.35794239751E+02  0.50704407288E+02  0.00000000000E+00 0. -1.
</event>
<event>
 7    1  0.2772670E-009  0.8990461E+02  0.7561462E-02  0.1303083E+00
         -1   -1    0    0    0  501 -0.00000000000E+00  0.00000000000E+00  0.23317391330E+02  0.23317391330E+02  0.00000000000E+00 0.  1.
          1   -1    0    0  501    0  0.00000000000E+00 -0.00000000000E+00 -0.64010100240E+03  0.64010100240E+03  0.00000000000E+00 0. -1.
         25    2    1    2    0    0 -0.44528495223E+02 -0.33203873154E+00 -0.43455198753E+03  0.45438829264E+03  0.12510153269E+03 0.  0.
          5    1    3    3  502    0  0.21051997495E+02  0.34349323032E+02 -0.27986545897E+03  0.28278120538E+03  0.41800000000E+01 0. -1.
         -5    1    3    3    0  502 -0.65580492719E+02 -0.34681361764E+02 -0.15468652856E+03  0.17160708726E+03  0.41800000000E+01 0. -1.
        -11    1    1    2    0    0  0.14349468396E+02 -0.22825826104E+02 -0.45755853271E+01  0.27347057642E+02  0.00000000000E+00 0.  1.
         11    1    1    2    0    0  0.30179026828E+02  0.23157864836E+02 -0.17765603821E+03  0.18168304344E+03  0.00000000000E+00 0. -1.
</event>
<event>
 7    1  0.2601031E-009  0.2357105E+03  0.7561462E-02  0.1122684E+00
         -3   -1    0    0    0  501 -0.00000000000E+00  0.00000000000E+00  0.78656863850E+02  0.78656863850E+02  0.00000000000E+00 0.  1.
          3   -1    0    0  501    0  0.00000000000E+00 -0.00000000000E+00 -0.82266468356E+03  0.82266468356E+03  0.00000000000E+00 0. -1.
         25    2    1    2    0    0 -0.62910226196E+02 -0.21872385134E+03 -0.44235059360E+03  0.51295177767E+03  0.12509060257E+03 0.  0.
          5    1    3    3  502    0 -0.83178057738E+02 -0.17129253394E+03 -0.40957715211E+03  0.45169750652E+03  0.41800000000E+01 0.  1.
         -5    1    3    3    0  502  0.20267831542E+02 -0.47431317409E+02 -0.32773441493E+02  0.61254271148E+02  0.41800000000E+01 0.  1.
        -11    1    1    2    0    0  0.33368697473E+02  0.69619276834E+02 -0.17218280290E+03  0.18869878455E+03  0.00000000000E+00 0.  1.
         11    1    1    2    0    0  0.29541528723E+02  0.14910457451E+03 -0.12947442321E+03  0.19967098519E+03  0.00000000000E+00 0. -1.
</event>
<event>
 7    1  0.2601031E-009  0.1107545E+03  0.7561462E-02  0.1259179E+00
         -2   -1    0    0    0  501 -0.00000000000E+00  0.00000000000E+00  0.11379074760E+03  0.11379074760E+03  0.00000000000E+00 0.  1.
          2   -1    0    0  501    0  0.00000000000E+00 -0.00000000000E+00 -0.15971717444E+03  0.15971717444E+03  0.00000000000E+00 0. -1.
         25    2    1    2    0    0 -0.45627116329E+02 -0.40297074658E+02 -0.78735232961E+02  0.15984978655E+03  0.12508808649E+03 0.  0.
          5    1    3    3  502    0 -0.84478499755E+02 -0.39923745825E+02 -0.76285341774E+02  0.12069568414E+03  0.41800000000E+01 0.  1.
         -5    1    3    3    0  502  0.38851383426E+02 -0.37332883314E+00 -0.24498911867E+01  0.39154102408E+02  0.41800000000E+01 0.  1.
        -11    1    1    2    0    0 -0.16524801456E+02  0.12968753046E+02  0.40204834802E+02  0.45361727923E+02  0.00000000000E+00 0.  1.
         11    1    1    2    0    0  0.62151917785E+02  0.27328321612E+02 -0.73960286805E+01  0.68296407568E+02  0.00000000000E+00 0. -1.
</event>
<event>
 7    1  0.2601031E-009  0.6804314E+02  0.7561462E-02  0.1366877E+00
         -1   -1    0    0    0  501 -0.00000000000E+00  0.00000000000E+00  0.16188886397E+03  0.16188886397E+03  0.00000000000E+00 0.  1.
          1   -1    0    0  501    0  0.00000000000E+00 -0.00000000000E+00 -0.75956200838E+02  0.75956200838E+02  0.00000000000E+00 0. -1.
         25    2    1    2    0    0  0.80001766846E+01 -0.24425293464E+02  0.31204572918E+02  0.13146116628E+03  0.12509082732E+03 0.  0.
          5    1    3    3  502    0  0.31792716034E+02 -0.78625880941E+01  0.73176467095E+02  0.80279915426E+02  0.41800000000E+01 0.  1.
         -5    1    3    3    0  502 -0.23792539349E+02 -0.16562705370E+02 -0.41971894177E+02  0.51181250851E+02  0.41800000000E+01 0.  1.
        -11    1    1    2    0    0  0.58556605573E+01  0.46961692824E+02  0.62881791374E+02  0.78700756285E+02  0.00000000000E+00 0.  1.
         11    1    1    2    0    0 -0.13855837242E+02 -0.22536399360E+02 -0.81537011621E+01  0.27683142242E+02  0.00000000000E+00 0. -1.
</event>
<event>
 7    1  0.2601031E-009  0.1403862E+03  0.7561462E-02  0.1212810E+00
          2   -1    0    0  501    0  0.00000000000E+00  0.00000000000E+00  0.82783041692E+03  0.82783041692E+03  0.00000000000E+00 0. -1.
         -2   -1    0    0    0  501 -0.00000000000E+00 -0.00000000000E+00 -0.24994629002E+02  0.24994629002E+02  0.00000000000E+00 0.  1.
         25    2    1    2    0    0 -0.60594849449E+02 -0.67929019065E+02  0.36109782604E+03  0.39284170243E+03  0.12508747253E+03 0.  0.
          5    1    3    3  502    0  0.55858318600E+01  0.32961571356E+02  0.69405584958E+02  0.77150983968E+02  0.41800000000E+01 0.  1.
         -5    1    3    3    0  502 -0.66180681309E+02 -0.10089059042E+03  0.29169224109E+03  0.31569071846E+03  0.41800000000E+01 0.  1.
        -11    1    1    2    0    0 -0.21468803685E+02  0.27437808790E+02  0.89195984083E+02  0.95758375401E+02  0.00000000000E+00 0. -1.
         11    1    1    2    0    0  0.82063653135E+02  0.40491210275E+02  0.35254197780E+03  0.36422496809E+03  0.00000000000E+00 0.  1.
</event>
<event>
 7    1  0.2601031E-009  0.1126548E+03  0.7561462E-02  0.1255731E+00
          1   -1    0    0  501    0  0.00000000000E+00  0.00000000000E+00  0.56772295846E+02  0.56772295846E+02  0.00000000000E+00 0. -1.
         -1   -1    0    0    0  501 -0.00000000000E+00 -0.00000000000E+00 -0.45947498409E+03  0.45947498409E+03  0.00000000000E+00 0.  1.
         25    2    1    2    0    0  0.38818153530E+02  0.95595182971E+01 -0.36382834445E+02  0.13627265782E+03  0.12509313807E+03 0.  0.
          5    1    3    3  502    0  0.57281985777E+02  0.55792045438E+02 -0.13026537541E+02  0.81124233796E+02  0.41800000000E+01 0. -1.
         -5    1    3    3    0  502 -0.18463832247E+02 -0.46232527141E+02 -0.23356296903E+02  0.55148424022E+02  0.41800000000E+01 0. -1.
        -11    1    1    2    0    0 -0.21030186504E+02 -0.48284040948E+02 -0.13791686656E+03  0.14763021180E+03  0.00000000000E+00 0. -1.
         11    1    1    2    0    0 -0.17787967026E+02  0.38724522651E+02 -0.22840298723E+03  0.23234441031E+03  0.00000000000E+00 0.  1.
</event>
<event>
 7    1  0.2601031E-009  0.9420673E+02  0.7561462E-02  0.1292973E+00
          2   -1    0    0  501    0  0.00000000000E+00  0.00000000000E+00  0.22517835075E+03  0.22517835075E+03  0.00000000000E+00 0. -1.
         -2   -1    0    0    0  501 -0.00000000000E+00 -0.00000000000E+00 -0.64929463559E+02  0.64929463559E+02  0.00000000000E+00 0.  1.
         25    2    1    2    0    0  0.37430740064E+02  0.39416284748E+02  0.13410367000E+03  0.19126782158E+03  0.12507950056E+03 0.  0.
          5    1    3    3  502    0 -0.41561032473E+02  0.31308578083E+02  0.78369707872E+02  0.94163846532E+02  0.41800000000E+01 0.  1.
         -5    1    3    3    0  502  0.78991772537E+02  0.81077066658E+01  0.55733962125E+02  0.97103975048E+02  0.41800000000E+01 0.  1.
        -11    1    1    2    0    0 -0.10954322305E+02 -0.24495959282E+01 -0.26796185829E+02  0.29052250728E+02  0.00000000000E+00 0.  1.
         11    1    1    2    0    0 -0.26476417759E+02 -0.36966688820E+02  0.52941403025E+02  0.69787742003E+02  0.00000000000E+00 0. -1.
</event>
<event>
 7    1  0.2601031E-009  0.1436544E+03  0.7561462E-02  0.1208495E+00
         -2   -1    0    0    0  501 -0.00000000000E+00  0.00000000000E+00  0.10588195134E+03  0.10588195134E+03  0.00000000000E+00 0.  1.
          2   -1    0    0  501    0  0.00000000000E+00 -0.00000000000E+00 -0.26571517465E+03  0.26571517465E+03  0.00000000000E+00 0. -1.
         25    2    1    2    0    0 -0.15477814074E+02 -0.11146425367E+03 -0.15200840964E+03  0.22675497549E+03  0.12508964679E+03 0.  0.
          5    1    3    3  502    0  0.51154712092E+02 -0.38866292179E+02 -0.88526351321E+02  0.10946131972E+03  0.41800000000E+01 0. -1.
         -5    1    3    3    0  502 -0.66632526166E+02 -0.72597961490E+02 -0.63482058320E+02  0.11729365577E+03  0.41800000000E+01 0. -1.
        -11    1    1    2    0    0 -0.19754601006E+02  0.38436917447E+02  0.32703203120E+02  0.54195390745E+02  0.00000000000E+00 0.  1.
         11    1    1    2    0    0  0.35232415081E+02  0.73027336222E+02 -0.40528016788E+02  0.90646759748E+02  0.00000000000E+00 0. -1.
</event>
<event>
 7    1  0.2601031E-009  0.1039281E+03  0.7561462E-02  0.1272246E+00
          1   -1    0    0  501    0  0.00000000000E+00  0.00000000000E+00  0.50960530536E+03  0.50960530536E+03  0.00000000000E+00 0. -1.
         -1   -1    0    0    0  501 -0.00000000000E+00 -0.00000000000E+00 -0.27543545084E+02  0.27543545084E+02  0.00000000000E+00 0.  1.
         25    2    1    2    0    0  0.38379525477E+02  0.29213350592E+02  0.25859177397E+03  0.29127936165E+03  0.12509017999E+03 0.  0.
          5    1    3    3  502    0  0.57291979926E+02  0.68973268698E+02  0.16849449995E+03  0.19091241885E+03  0.41800000000E+01 0. -1.
         -5    1    3    3    0  502 -0.18912454449E+02 -0.39759918105E+02  0.90097274014E+02  0.10036694279E+03  0.41800000000E+01 0. -1.
        -11    1    1    2    0    0  0.14464231727E+02 -0.10236270914E+02  0.25215387535E+01  0.17898418907E+02  0.00000000000E+00 0.  1.
         11    1    1    2    0    0 -0.52843757204E+02 -0.18977079679E+02  0.22094844756E+03  0.22797106989E+03  0.00000000000E+00 0. -1.
</event>
<event>
 7    1  0.2601031E-009  0.6579094E+02  0.7561462E-02  0.1375021E+00
          2   -1    0    0  501    0  0.00000000000E+00  0.00000000000E+00  0.21649230086E+03  0.21649230086E+03  0.00000000000E+00 0. -1.
         -2   -1    0    0    0  501 -0.00000000000E+00 -0.00000000000E+00 -0.60866249732E+02  0.60866249732E+02  0.00000000000E+00 0.  1.
         25    2    1    2    0    0  0.21116065630E+02  0.19856328565E+02  0.69576235275E+02  0.14603834762E+03  0.12508470910E+03 0.  0.
          5    1    3    3  502    0  0.17863997592E+02  0.80427851282E-01  0.10420643954E+03  0.10580918354E+03  0.41800000000E+01 0. -1.
         -5    1    3    3    0  502  0.32520680389E+01  0.19775900714E+02 -0.34630204266E+02  0.40229164086E+02  0.41800000000E+01 0. -1.
        -11    1    1    2    0    0  0.21975669890E+01 -0.52556478213E+02  0.24988778223E+02  0.58236172092E+02  0.00000000000E+00 0.  1.
         11    1    1    2    0    0 -0.23313632619E+02  0.32700149649E+02  0.61061037627E+02  0.73084030876E+02  0.00000000000E+00 0. -1.
</event>
<event>
 7    1  0.2601031E-009  0.1253112E+03  0.7561462E-02  0.1234584E+00
          2   -1    0    0  501    0  0.00000000000E+00  0.00000000000E+00  0.28367293817E+03  0.28367293817E+03  0.00000000000E+00 0.  1.
         -2   -1    0    0    0  501 -0.00000000000E+00 -0.00000000000E+00 -0.82554391058E+02  0.82554391058E+02  0.00000000000E+00 0. -1.
         25    2    1    2    0    0 -0.10716029280E+03  0.31775376525E+01  0.10040813468E+03  0.19292909740E+03  0.12508564272E+03 0.  0.
          5    1    3    3  502    0 -0.39990219264E+02  0.12703068790E+02  0.11579913342E+03  0.12323756446E+03  0.41800000000E+01 0.  1.
         -5    1    3    3    0  502 -0.67170073533E+02 -0.95255311371E+01 -0.15390998736E+02  0.69691532943E+02  0.41800000000E+01 0.  1.
        -11    1    1    2    0    0  0.80248197849E+02  0.39955173310E+02  0.71481155379E+02  0.11465489395E+03  0.00000000000E+00 0.  1.
         11    1    1    2    0    0  0.26912094947E+02 -0.43132710963E+02  0.29229257051E+02  0.58643337876E+02  0.00000000000E+00 0. -1.
</event>
<event>
 7    1  0.2701262E-009  0.1502938E+03  0.7561462E-02  0.1200112E+00
          2   -1    0    0  501    0  0.00000000000E+00  0.00000000000E+00  0.43230981535E+03  0.43230981535E+03  0.00000000000E+00 0. -1.
         -2   -1    0    0    0  501 -0.00000000000E+00 -0.00000000000E+00 -0.67751373657E+02  0.67751373657E+02  0.00000000000E+00 0.  1.
         25    2    1    2    0    0 -0.22278364833E+02 -0.12363199889E+03  0.25435595824E+03  0.31003689457E+03  0.12507887838E+03 0.  0.
          5    1    3    3  502    0  0.93043283255E+01 -0.11228623946E+03  0.25207569165E+03  0.27614198670E+03  0.41800000000E+01 0. -1.
         -5    1    3    3    0  502 -0.31582693158E+02 -0.11345759434E+02  0.22802665909E+01  0.33894907877E+02  0.41800000000E+01 0. -1.
        -11    1    1    2    0    0 -0.30833223813E+02  0.78447412646E+02  0.50746714077E+02  0.98386550052E+02  0.00000000000E+00 0. -1.
         11    1    1    2    0    0  0.53111588646E+02  0.45184586246E+02  0.59455769374E+02  0.91637744377E+02  0.00000000000E+00 0.  1.
</event>
<event>
 7    1  0.2601031E-009  0.1165526E+03  0.7561462E-02  0.1248895E+00
         -2   -1    0    0    0  501 -0.00000000000E+00  0.00000000000E+00  0.18423773653E+02  0.18423773653E+02  0.00000000000E+00 0.  1.
          2   -1    0    0  501    0  0.00000000000E+00 -0.00000000000E+00 -0.81546758330E+03  0.81546758330E+03  0.00000000000E+00 0. -1.
         25    2    1    2    0    0 -0.67618395931E+01  0.56256800861E+02 -0.37923212569E+03  0.40333118931E+03  0.12509393668E+03 0.  0.
          5    1    3    3  502    0  0.31903678878E+01  0.95680104633E+02 -0.28281439542E+03  0.29860729315E+03  0.41800000000E+01 0. -1.
         -5    1    3    3    0  502 -0.99522074809E+01 -0.39423303772E+02 -0.96417730273E+02  0.10472389615E+03  0.41800000000E+01 0. -1.
        -11    1    1    2    0    0  0.40186222119E+02 -0.46766636643E+02 -0.33701422119E+03  0.34260857554E+03  0.00000000000E+00 0. -1.
         11    1    1    2    0    0 -0.33424382526E+02 -0.94901642179E+01 -0.80797462761E+02  0.87951592099E+02  0.00000000000E+00 0.  1.
</event>
<event>
 7    1  0.2601031E-009  0.7836370E+02  0.7561462E-02  0.1333760E+00
         -2   -1    0    0    0  501 -0.00000000000E+00  0.00000000000E+00  0.64850660357E+02  0.64850660357E+02  0.00000000000E+00 0.  1.
          2   -1    0    0  501    0  0.00000000000E+00 -0.00000000000E+00 -0.19985231432E+03  0.19985231432E+03  0.00000000000E+00 0. -1.
         25    2    1    2    0    0  0.67906620397E-01  0.33036833320E+02 -0.65377193605E+02  0.14497141852E+03  0.12510434755E+03 0.  0.
          5    1    3    3  502    0 -0.41052182838E+02  0.15702512471E+02  0.20057801460E+02  0.48493694570E+02  0.41800000000E+01 0.  1.
         -5    1    3    3    0  502  0.41120089459E+02  0.17334320849E+02 -0.85434995065E+02  0.96477723948E+02  0.41800000000E+01 0.  1.
        -11    1    1    2    0    0 -0.32035730886E+01 -0.50203588138E+02 -0.24912818297E+01  0.50367346839E+02  0.00000000000E+00 0.  1.
         11    1    1    2    0    0  0.31356664682E+01  0.17166754818E+02 -0.67133178530E+02  0.69364209321E+02  0.00000000000E+00 0. -1.
</event>
<event>
 7    1  0.2601031E-009  0.1203564E+03  0.7561462E-02  0.1242510E+00
         -2   -1    0    0    0  501 -0.00000000000E+00  0.00000000000E+00  0.14878701798E+02  0.14878701798E+02  0.00000000000E+00 0.  1.
          2   -1    0    0  501    0  0.00000000000E+00 -0.00000000000E+00 -0.11238472528E+04  0.11238472528E+04  0.00000000000E+00 0. -1.
         25    2    1    2    0    0 -0.58345052889E+02  0.39433415266E+02 -0.59745409679E+03  0.61445677949E+03  0.12508635679E+03 0.  0.
          5    1    3    3  502    0  0.35131402124E+02  0.26992958590E+01 -0.82875402839E+02  0.90151574634E+02  0.41800000000E+01 0.  1.
         -5    1    3    3    0  502 -0.93476455013E+02  0.36734119407E+02 -0.51457869395E+03  0.52430520486E+03  0.41800000000E+01 0.  1.
        -11    1    1    2    0    0 -0.16593327110E+02  0.53182915557E+01 -0.28294992469E+02  0.33229946260E+02  0.00000000000E+00 0.  1.
         11    1    1    2    0    0  0.74938379999E+02 -0.44751706821E+02 -0.48321946171E+03  0.49103922882E+03  0.00000000000E+00 0. -1.
</event>
<event>
 7    1  0.2601031E-009  0.1298636E+03  0.7561462E-02  0.1227658E+00
          1   -1    0    0  501    0  0.00000000000E+00  0.00000000000E+00  0.14733334349E+03  0.14733334349E+03  0.00000000000E+00 0.  1.
         -1   -1    0    0    0  501 -0.00000000000E+00 -0.00000000000E+00 -0.15121609275E+03  0.15121609275E+03  0.00000000000E+00 0. -1.
         25    2    1    2    0    0  0.83937317489E+02 -0.13742373960E+02  0.54633218015E+02  0.16083330289E+03  0.12509291226E+03 0.  0.
          5    1    3    3  502    0 -0.31225717600E+02 -0.15640194938E+02  0.57457665601E+01  0.35639126964E+02  0.41800000000E+01 0.  1.
         -5    1    3    3    0  502  0.11516303509E+03  0.18978209788E+01  0.48887451455E+02  0.12519417592E+03  0.41800000000E+01 0.  1.
        -11    1    1    2    0    0 -0.56030331095E+01 -0.22356422976E+02  0.12293475587E+02  0.26121507811E+02  0.00000000000E+00 0.  1.
         11    1    1    2    0    0 -0.78334284380E+02  0.36098796936E+02 -0.70809442862E+02  0.11159462553E+03  0.00000000000E+00 0. -1.
</event>
<event>
 7    1  0.2601031E-009  0.9302349E+02  0.7561462E-02  0.1295691E+00
          1   -1    0    0  501    0  0.00000000000E+00  0.00000000000E+00  0.58177341086E+02  0.58177341086E+02  0.00000000000E+00 0. -1.
         -1   -1    0    0    0  501 -0.00000000000E+00 -0.00000000000E+00 -0.21930717786E+03  0.21930717786E+03  0.00000000000E+00 0.  1.
         25    2    1    2    0    0 -0.26268087064E+02 -0.16069767504E+02 -0.70901803889E+02  0.14704792641E+03  0.12509107498E+03 0.  0.
          5    1    3    3  502    0  0.35877326746E+02  0.16057880060E+02 -0.65823616556E+02  0.76780589884E+02  0.41800000000E+01 0.  1.
         -5    1    3    3    0  502 -0.62145413810E+02 -0.32127647564E+02 -0.50781873328E+01  0.70267336524E+02  0.41800000000E+01 0.  1.
        -11    1    1    2    0    0  0.28607549923E+01 -0.27141021034E+02  0.45319491799E+00  0.27295133770E+02  0.00000000000E+00 0. -1.
         11    1    1    2    0    0  0.23407332072E+02  0.43210788538E+02 -0.90681227799E+02  0.10314145876E+03  0.00000000000E+00 0.  1.
</event>
<event>
 7    1  0.2601031E-009  0.6668923E+02  0.7561462E-02  0.1371728E+00
          1   -1    0    0  501    0  0.00000000000E+00  0.00000000000E+00  0.12406502044E+03  0.12406502044E+03  0.00000000000E+00 0. -1.
         -1   -1    0    0    0  501 -0.00000000000E+00 -0.00000000000E+00 -0.12002015712E+03  0.12002015712E+03  0.00000000000E+00 0.  1.
         25    2    1    2    0    0  0.16850716684E+02  0.39767743770E+02 -0.19528806110E+02  0.13376935967E+03  0.12508975666E+03 0.  0.
          5    1    3    3  502    0 -0.11292943791E+02  0.50879884532E+02 -0.62222687106E+02  0.81273786796E+02  0.41800000000E+01 0.  1.
         -5    1    3    3    0  502  0.28143660475E+02 -0.11112140762E+02  0.42693880996E+02  0.52495572878E+02  0.41800000000E+01 0.  1.
        -11    1    1    2    0    0 -0.13737342366E+02 -0.35395985750E+01 -0.37022386557E+02  0.39647199646E+02  0.00000000000E+00 0.  1.
         11    1    1    2    0    0 -0.31133743181E+01 -0.36228145195E+02  0.60596055984E+02  0.70668618246E+02  0.00000000000E+00 0. -1.
</event>
<event>
 7    1  0.2707399E-009  0.1048645E+03  0.7561462E-02  0.1270387E+00
          2   -1    0    0  501    0  0.00000000000E+00  0.00000000000E+00  0.16170705895E+03  0.16170705895E+03  0.00000000000E+00 0. -1.
         -2   -1    0    0    0  501 -0.00000000000E+00 -0.00000000000E+00 -0.10311406522E+03  0.10311406522E+03  0.00000000000E+00 0.  1.
         25    2    1    2    0    0 -0.57620634418E+02  0.39429411526E+02  0.37332012771E+02  0.14803634358E+03  0.12508502644E+03 0.  0.
          5    1    3    3  502    0  0.74087117425E+01 -0.11242879940E+02  0.60643789904E+02  0.62261007163E+02  0.41800000000E+01 0. -1.
         -5    1    3    3    0  502 -0.65029346160E+02  0.50672291466E+02 -0.23311777133E+02  0.85775336418E+02  0.41800000000E+01 0. -1.
        -11    1    1    2    0    0  0.43986859169E+02  0.22684144771E+02 -0.73166403904E+00  0.49496964915E+02  0.00000000000E+00 0.  1.
         11    1    1    2    0    0  0.13633775249E+02 -0.62113556297E+02  0.21992645000E+02  0.67287815669E+02  0.00000000000E+00 0. -1.
</event>
<event>
 7    1  0.2601031E-009  0.2395581E+03  0.7561462E-02  0.1120088E+00
         -2   -1    0    0    0  501 -0.00000000000E+00  0.00000000000E+00  0.15827148248E+03  0.15827148248E+03  0.00000000000E+00 0.  1.
          2   -1    0    0  501    0  0.00000000000E+00 -0.00000000000E+00 -0.37965148901E+03  0.37965148901E+03  0.00000000000E+00 0. -1.
         25    2    1    2    0    0  0.17713129042E+03  0.12611656343E+03 -0.15973711363E+03  0.29739731524E+03  0.12509330927E+03 0.  0.
          5    1    3    3  502    0  0.13962121833E+03  0.14761692941E+03 -0.10902952649E+03  0.23062903655E+03  0.41800000000E+01 0.  1.
         -5    1    3    3    0  502  0.37510072092E+02 -0.21500365975E+02 -0.50707587133E+02  0.66768278683E+02  0.41800000000E+01 0.  1.
        -11    1    1    2    0    0 -0.56344688330E+02 -0.90349472593E+02 -0.25943709914E+02  0.10959391947E+03  0.00000000000E+00 0.  1.
         11    1    1    2    0    0 -0.12078660209E+03 -0.35767090838E+02 -0.35699182994E+02  0.13093173679E+03  0.00000000000E+00 0. -1.
</event>
<event>
 7    1  0.2601031E-009  0.8348317E+02  0.7561462E-02  0.1319448E+00
          2   -1    0    0  501    0  0.00000000000E+00  0.00000000000E+00  0.73225062812E+03  0.73225062812E+03  0.00000000000E+00 0. -1.
         -2   -1    0    0    0  501 -0.00000000000E+00 -0.00000000000E+00 -0.38617353182E+02  0.38617353182E+02  0.00000000000E+00 0.  1.
         25    2    1    2    0    0  0.77317701333E+02 -0.59100725583E-01  0.64679803139E+03  0.66330382872E+03  0.12508495251E+03 0.  0.
          5    1    3    3  502    0  0.15604206450E+02  0.11585960683E+02  0.80265131920E+01  0.21438821280E+02  0.41800000000E+01 0. -1.
         -5    1    3    3    0  502  0.61713494883E+02 -0.11645061408E+02  0.63877151820E+03  0.64186500744E+03  0.41800000000E+01 0. -1.
        -11    1    1    2    0    0 -0.48386155792E+02 -0.16115498086E+02  0.10117271127E+01  0.51009341719E+02  0.00000000000E+00 0.  1.
         11    1    1    2    0    0 -0.28931545540E+02  0.16174598812E+02  0.45823516436E+02  0.56554810870E+02  0.00000000000E+00 0. -1.
</event>
<event>
 7    1  0.2601031E-009  0.7046245E+02  0.7561462E-02  0.1358527E+00
          3   -1    0    0  501    0  0.00000000000E+00  0.00000000000E+00  0.35734135368E+03  0.35734135368E+03  0.00000000000E+00 0. -1.
         -3   -1    0    0    0  501 -0.00000000000E+00 -0.00000000000E+00 -0.40499550278E+02  0.40499550278E+02  0.00000000000E+00 0.  1.
         25    2    1    2    0    0  0.86411260268E+01  0.22138373249E+02  0.25797268531E+03  0.28768479233E+03  0.12509139357E+03 0.  0.
          5    1    3    3  502    0  0.37176988463E+02 -0.12237218570E+02  0.17526353489E+02  0.43087393239E+02  0.41800000000E+01 0. -1.
         -5    1    3    3    0  502 -0.28535862436E+02  0.34375591819E+02  0.24044633182E+03  0.24459739909E+03  0.41800000000E+01 0. -1.
        -11    1    1    2    0    0  0.13327076815E+02 -0.30422371722E+02 -0.12142857685E+02  0.35363550025E+02  0.00000000000E+00 0.  1.
         11    1    1    2    0    0 -0.21968202842E+02  0.82839984735E+01  0.71011975783E+02  0.74792561605E+02  0.00000000000E+00 0. -1.
</event>
<event>
 7    1  0.2601031E-009  0.1052065E+03  0.7561462E-02  0.1269713E+00
          1   -1    0    0  501    0  0.00000000000E+00  0.00000000000E+00  0.43360796691E+03  0.43360796691E+03  0.00000000000E+00 0. -1.
         -1   -1    0    0    0  501 -0.00000000000E+00 -0.00000000000E+00 -0.44670695727E+02  0.44670695727E+02  0.00000000000E+00 0.  1.
         25    2    1    2    0    0 -0.95731035566E+01 -0.21352333057E+02  0.68953864924E+02  0.14473497213E+03  0.12508401269E+03 0.  0.
          5    1    3    3  502    0 -0.52013746352E+02  0.24297733889E+02  0.92075262213E+01  0.58292886537E+02  0.41800000000E+01 0.  1.
         -5    1    3    3    0  502  0.42440642796E+02 -0.45650066945E+02  0.59746338702E+02  0.86442085591E+02  0.41800000000E+01 0.  1.
        -11    1    1    2    0    0 -0.78245669852E+01 -0.32686869585E+02  0.76988942578E+02  0.84005669875E+02  0.00000000000E+00 0.  1.
         11    1    1    2    0    0  0.17397670542E+02  0.54039202642E+02  0.24299446368E+03  0.24953802063E+03  0.00000000000E+00 0. -1.
</event>
<event>
 7    1  0.3187683E-009  0.2228612E+03  0.7561462E-02  0.1131768E+00
         -2   -1    0    0    0  501 -0.00000000000E+00  0.00000000000E+00  0.13554011464E+03  0.13554011464E+03  0.00000000000E+00 0. -1.
          2   -1    0    0  501    0  0.00000000000E+00 -0.00000000000E+00 -0.44478269705E+03  0.44478269705E+03  0.00000000000E+00 0.  1.
         25    2    1    2    0    0  0.30367847942E+02  0.20816836632E+03 -0.83554073780E+02  0.25862524212E+03  0.12509779252E+03 0.  0.
          5    1    3    3  502    0 -0.22773151458E+02  0.11667993787E+03  0.71956329743E+01  0.11917245429E+03  0.41800000000E+01 0. -1.
         -5    1    3    3    0  502  0.53140999401E+02  0.91488428448E+02 -0.90749706754E+02  0.13945278783E+03  0.41800000000E+01 0. -1.
        -11    1    1    2    0    0 -0.52064474357E+02 -0.14164901208E+03 -0.11095694342E+03  0.18731416232E+03  0.00000000000E+00 0. -1.
         11    1    1    2    0    0  0.21696626415E+02 -0.66519354235E+02 -0.11473156522E+03  0.13438340725E+03  0.00000000000E+00 0.  1.
</event>
<event>
 7    1  0.2601031E-009  0.2684365E+03  0.7561462E-02  0.1102178E+00
         -2   -1    0    0    0  501 -0.00000000000E+00  0.00000000000E+00  0.45069198951E+03  0.45069198951E+03  0.00000000000E+00 0.  1.
          2   -1    0    0  501    0  0.00000000000E+00 -0.00000000000E+00 -0.17406725443E+03  0.17406725443E+03  0.00000000000E+00 0. -1.
         25    2    1    2    0    0 -0.25219865146E+03  0.50853618405E+02  0.14643386063E+03  0.32137260040E+03  0.12508885821E+03 0.  0.
          5    1    3    3  502    0 -0.24580583314E+03  0.33175511089E+02  0.16227922680E+03  0.29643404324E+03  0.41800000000E+01 0. -1.
         -5    1    3    3    0  502 -0.63928183178E+01  0.17678107315E+02 -0.15845366168E+02  0.24938557162E+02  0.41800000000E+01 0. -1.
        -11    1    1    2    0    0  0.51764439533E+02 -0.45690825154E+02  0.10392933124E+02  0.69822788274E+02  0.00000000000E+00 0. -1.
         11    1    1    2    0    0  0.20043421192E+03 -0.51627932511E+01  0.11979794132E+03  0.23356385527E+03  0.00000000000E+00 0.  1.
</event>
<event>
 7    1  0.2601031E-009  0.6898063E+02  0.7561462E-02  0.1363594E+00
          3   -1    0    0  501    0  0.00000000000E+00  0.00000000000E+00  0.25219353613E+02  0.25219353613E+02  0.00000000000E+00 0. -1.
         -3   -1    0    0    0  501 -0.00000000000E+00 -0.00000000000E+00 -0.49834727176E+03  0.49834727176E+03  0.00000000000E+00 0.  1.
         25    2    1    2    0    0 -0.10133179262E+02 -0.25291978609E+02 -0.26705867957E+03  0.29615911588E+03  0.12509003990E+03 0.  0.
          5    1    3    3  502    0 -0.24007200571E+02 -0.27599287859E+02 -0.92879099163E+01  0.37971094798E+02  0.41800000000E+01 0. -1.
         -5    1    3    3    0  502  0.13874021310E+02  0.23073092494E+01 -0.25777076965E+03  0.25818802108E+03  0.41800000000E+01 0. -1.
        -11    1    1    2    0    0  0.42757095290E+02 -0.35790689576E+01 -0.15217285794E+03  0.15810615936E+03  0.00000000000E+00 0.  1.
         11    1    1    2    0    0 -0.32623916028E+02  0.28871047567E+02 -0.53896380628E+02  0.69301350127E+02  0.00000000000E+00 0. -1.
</event>
<event>
 7    1  0.2601031E-009  0.1190284E+03  0.7561462E-02  0.1244709E+00
          2   -1    0    0  501    0  0.00000000000E+00  0.00000000000E+00  0.58089154821E+02  0.58089154821E+02  0.00000000000E+00 0. -1.
         -2   -1    0    0    0  501 -0.00000000000E+00 -0.00000000000E+00 -0.25913927500E+03  0.25913927500E+03  0.00000000000E+00 0.  1.
         25    2    1    2    0    0  0.14367685822E+02 -0.53391369576E+02 -0.12977462078E+03  0.18853629579E+03  0.12508962343E+03 0.  0.
          5    1    3    3  502    0  0.36030188523E+02  0.29675934072E+02 -0.25319911435E+02  0.53267305762E+02  0.41800000000E+01 0. -1.
         -5    1    3    3    0  502 -0.21662502700E+02 -0.83067303648E+02 -0.10445470934E+03  0.13526899003E+03  0.41800000000E+01 0. -1.
        -11    1    1    2    0    0  0.37516764925E+02  0.13777471240E+02 -0.39111960708E+02  0.55920227419E+02  0.00000000000E+00 0. -1.
         11    1    1    2    0    0 -0.51884450747E+02  0.39613898336E+02 -0.32163538690E+02  0.72771906611E+02  0.00000000000E+00 0.  1.
</event>
<event>
 7    1  0.2601031E-009  0.8086771E+02  0.7561462E-02  0.1326607E+00
          3   -1    0    0  501    0  0.00000000000E+00  0.00000000000E+00  0.91811152384E+02  0.91811152384E+02  0.00000000000E+00 0. -1.
         -3   -1    0    0    0  501 -0.00000000000E+00 -0.00000000000E+00 -0.16657691865E+03  0.16657691865E+03  0.00000000000E+00 0.  1.
         25    2    1    2    0    0 -0.36760358455E+02 -0.19330726792E+02 -0.83663379645E+02  0.15611376693E+03  0.12508775391E+03 0.  0.
          5    1    3    3  502    0 -0.43281632524E+02 -0.94384513622E+00  0.21890034012E+02  0.48691236857E+02  0.41800000000E+01 0. -1.
         -5    1    3    3    0  502  0.65212740694E+01 -0.18386881656E+02 -0.10555341366E+03  0.10742253007E+03  0.41800000000E+01 0. -1.
        -11    1    1    2    0    0 -0.14996558487E+02  0.39877510826E+02  0.17252654436E+02  0.45964842230E+02  0.00000000000E+00 0. -1.
         11    1    1    2    0    0  0.51756916942E+02 -0.20546784033E+02 -0.83550410557E+01  0.56309461873E+02  0.00000000000E+00 0.  1.
</event>
<event>
 7    1  0.2601031E-009  0.6636578E+02  0.7561462E-02  0.1372906E+00
          2   -1    0    0  501    0  0.00000000000E+00  0.00000000000E+00  0.12755143640E+03  0.12755143640E+03  0.00000000000E+00 0. -1.
         -2   -1    0    0    0  501 -0.00000000000E+00 -0.00000000000E+00 -0.10546186050E+03  0.10546186050E+03  0.00000000000E+00 0.  1.
         25    2    1    2    0    0  0.30311663457E+01 -0.40974660202E+02  0.21518492631E+01  0.13168151045E+03  0.12508908422E+03 0.  0.
          5    1    3    3  502    0  0.16282269078E+02 -0.24471341454E+02  0.61631853970E+02  0.68409916406E+02  0.41800000000E+01 0. -1.
         -5    1    3    3    0  502 -0.13251102732E+02 -0.16503318748E+02 -0.59480004707E+02  0.63271594047E+02  0.41800000000E+01 0. -1.
        -11    1    1    2    0    0  0.27796404194E+02  0.42297057456E+02 -0.16824807474E+02  0.53336247544E+02  0.00000000000E+00 0.  1.
         11    1    1    2    0    0 -0.30827570540E+02 -0.13223972535E+01  0.36762534119E+02  0.47995538904E+02  0.00000000000E+00 0. -1.
</event>
<event>
 7    1  0.2748696E-009  0.1298595E+03  0.7561462E-02  0.1227664E+00
         -2   -1    0    0    0  501 -0.00000000000E+00  0.00000000000E+00  0.22539833849E+02  0.22539833849E+02  0.00000000000E+00 0.  1.
          2   -1    0    0  501    0  0.00000000000E+00 -0.00000000000E+00 -0.89956659646E+03  0.89956659646E+03  0.00000000000E+00 0. -1.
         25    2    1    2    0    0  0.84753746901E+02 -0.18661204415E+02 -0.57839387390E+03  0.59809551812E+03  0.12508931716E+03 0.  0.
          5    1    3    3  502    0  0.62043636993E+02  0.45313960308E+02 -0.39660183338E+03  0.40399660213E+03  0.41800000000E+01 0. -1.
         -5    1    3    3    0  502  0.22710109909E+02 -0.63975164723E+02 -0.18179204051E+03  0.19409891599E+03  0.41800000000E+01 0. -1.
        -11    1    1    2    0    0 -0.76732958699E+02 -0.16676574533E+02 -0.13291651300E+03  0.15437893158E+03  0.00000000000E+00 0.  1.
         11    1    1    2    0    0 -0.80207882022E+01  0.35337778948E+02 -0.16571637572E+03  0.16963198061E+03  0.00000000000E+00 0. -1.
</event>
<event>
 7    1  0.2601031E-009  0.1047610E+03  0.7561462E-02  0.1270591E+00
          1   -1    0    0  501    0  0.00000000000E+00  0.00000000000E+00  0.26041423020E+03  0.26041423020E+03  0.00000000000E+00 0. -1.
         -1   -1    0    0    0  501 -0.00000000000E+00 -0.00000000000E+00 -0.57913853149E+02  0.57913853149E+02  0.00000000000E+00 0.  1.
         25    2    1    2    0    0  0.27047294503E+01 -0.72878465689E+01  0.18555007465E+03  0.22390682290E+03  0.12508000188E+03 0.  0.
          5    1    3    3  502    0  0.59900148999E+02  0.12097627503E+02  0.66895008861E+02  0.90701681638E+02  0.41800000000E+01 0.  1.
         -5    1    3    3    0  502 -0.57195419549E+02 -0.19385474072E+02  0.11865506579E+03  0.13320514127E+03  0.41800000000E+01 0.  1.
        -11    1    1    2    0    0  0.38110523900E+02 -0.15321167890E+02  0.23472607902E+02  0.47308704687E+02  0.00000000000E+00 0. -1.
         11    1    1    2    0    0 -0.40815253350E+02  0.22609014459E+02 -0.65223055039E+01  0.47112555756E+02  0.00000000000E+00 0.  1.
</event>
<event>
 7    1  0.2601031E-009  0.8689577E+02  0.7561462E-02  0.1310548E+00
         -3   -1    0    0    0  501 -0.00000000000E+00  0.00000000000E+00  0.21533914632E+03  0.21533914632E+03  0.00000000000E+00 0.  1.
          3   -1    0    0  501    0  0.00000000000E+00 -0.00000000000E+00 -0.61733322848E+02  0.61733322848E+02  0.00000000000E+00 0. -1.
         25    2    1    2    0    0 -0.30662274988E+01 -0.74599984633E+01  0.44067978320E+02  0.13286968291E+03  0.12508921854E+03 0.  0.
          5    1    3    3  502    0 -0.56197486298E+02 -0.29362971971E+02  0.60371664225E+01  0.63829940996E+02  0.41800000000E+01 0. -1.
         -5    1    3    3    0  502  0.53131258799E+02  0.21902973508E+02  0.38030811897E+02  0.69039741915E+02  0.41800000000E+01 0. -1.
        -11    1    1    2    0    0 -0.21109983936E+01 -0.22310291665E+02  0.11168343874E+03  0.11390959537E+03  0.00000000000E+00 0.  1.
         11    1    1    2    0    0  0.51772258924E+01  0.29770290128E+02 -0.21455935894E+01  0.30293190887E+02  0.00000000000E+00 0. -1.
</event>
<event>
 7    1  0.2601031E-009  0.2028193E+03  0.7561462E-02  0.1147382E+00
          2   -1    0    0  501    0  0.00000000000E+00  0.00000000000E+00  0.11614270889E+04  0.11614270889E+04  0.00000000000E+00 0.  1.
         -2   -1    0    0    0  501 -0.00000000000E+00 -0.00000000000E+00 -0.54030508308E+02  0.54030508308E+02  0.00000000000E+00 0. -1.
         25    2    1    2    0    0  0.67596844872E+02  0.17929323657E+03  0.85505133159E+03  0.88514184405E+03  0.12509159167E+03 0.  0.
          5    1    3    3  502    0  0.73960818796E+01 -0.41813889271E+01  0.99815302853E+00  0.95212788006E+01  0.41800000000E+01 0. -1.
         -5    1    3    3    0  502  0.60200762993E+02  0.18347462549E+03  0.85405317857E+03  0.87562056525E+03  0.41800000000E+01 0. -1.
        -11    1    1    2    0    0  0.55526771966E+01 -0.77375844757E+02  0.14817373589E+03  0.16725223342E+03  0.00000000000E+00 0.  1.
         11    1    1    2    0    0 -0.73149522069E+02 -0.10191739181E+03  0.10417151315E+03  0.16306351979E+03  0.00000000000E+00 0. -1.
</event>
<event>
 7    1  0.2601031E-009  0.1217637E+03  0.7561462E-02  0.1240215E+00
          1   -1    0    0  501    0  0.00000000000E+00  0.00000000000E+00  0.21125374993E+04  0.21125374993E+04  0.00000000000E+00 0. -1.
         -1   -1    0    0    0  501 -0.00000000000E+00 -0.00000000000E+00 -0.10542814333E+02  0.10542814333E+02  0.00000000000E+00 0.  1.
         25    2    1    2    0    0  0.29962057992E+02 -0.77064139279E+02  0.16071117984E+04  0.16140919737E+04  0.12509180914E+03 0.  0.
          5    1    3    3  502    0  0.64811187375E+02 -0.52470472034E+02  0.14053756608E+04  0.14078536361E+04  0.41800000000E+01 0. -1.
         -5    1    3    3    0  502 -0.34849129382E+02 -0.24593667245E+02  0.20173613763E+03  0.20623833764E+03  0.41800000000E+01 0. -1.
        -11    1    1    2    0    0 -0.58767089740E+02  0.44595195251E+02  0.35248744346E+03  0.36012456189E+03  0.00000000000E+00 0. -1.
         11    1    1    2    0    0  0.28805031748E+02  0.32468944028E+02  0.14239544317E+03  0.14886377805E+03  0.00000000000E+00 0.  1.
</event>
<event>
 7    1  0.2601031E-009  0.8363133E+02  0.7561462E-02  0.1319051E+00
          1   -1    0    0  501    0  0.00000000000E+00  0.00000000000E+00  0.94339616432E+02  0.94339616432E+02  0.00000000000E+00 0. -1.
         -1   -1    0    0    0  501 -0.00000000000E+00 -0.00000000000E+00 -0.14788150893E+03  0.14788150893E+03  0.00000000000E+00 0.  1.
         25    2    1    2    0    0  0.11123399633E+02 -0.30423087874E+02  0.61016444556E+01  0.12936257323E+03  0.12509256969E+03 0.  0.
          5    1    3    3  502    0  0.44873460738E+02  0.18135719974E+02 -0.32654759193E+02  0.58534925604E+02  0.41800000000E+01 0. -1.
         -5    1    3    3    0  502 -0.33750061105E+02 -0.48558807847E+02  0.38756403649E+02  0.70827647624E+02  0.41800000000E+01 0. -1.
        -11    1    1    2    0    0  0.18333138600E+02  0.19589760270E+01 -0.68510208805E+02  0.70947799603E+02  0.00000000000E+00 0.  1.
         11    1    1    2    0    0 -0.29456538233E+02  0.28464111846E+02  0.88666718522E+01  0.41910752530E+02  0.00000000000E+00 0. -1.
</event>
<event>
 7    1  0.2601031E-009  0.1376968E+03  0.7561462E-02  0.1216462E+00
         -1   -1    0    0    0  501 -0.00000000000E+00  0.00000000000E+00  0.12901742271E+04  0.12901742271E+04  0.00000000000E+00 0.  1.
          1   -1    0    0  501    0  0.00000000000E+00 -0.00000000000E+00 -0.18910793503E+02  0.18910793503E+02  0.00000000000E+00 0. -1.
         25    2    1    2    0    0 -0.98638479329E+02 -0.32522025534E+02  0.82788248044E+03  0.84369695394E+03  0.12509163411E+03 0.  0.
          5    1    3    3  502    0  0.27362813033E+02 -0.38821212151E+01  0.24842362419E+03  0.24999112756E+03  0.41800000000E+01 0.  1.
         -5    1    3    3    0  502 -0.12600129236E+03 -0.28639904319E+02  0.57945885625E+03  0.59370582638E+03  0.41800000000E+01 0.  1.
        -11    1    1    2    0    0  0.33429342050E+02  0.40443806664E+02  0.77085013709E+02  0.93248709084E+02  0.00000000000E+00 0. -1.
         11    1    1    2    0    0  0.65209137279E+02 -0.79217811297E+01  0.36629593946E+03  0.37213935759E+03  0.00000000000E+00 0.  1.
</event>
<event>
 7    1  0.2601031E-009  0.2141608E+03  0.7561462E-02  0.1138313E+00
          2   -1    0    0  501    0  0.00000000000E+00  0.00000000000E+00  0.29685977010E+03  0.29685977010E+03  0.00000000000E+00 0. -1.
         -2   -1    0    0    0  501 -0.00000000000E+00 -0.00000000000E+00 -0.17556034359E+03  0.17556034359E+03  0.00000000000E+00 0.  1.
         25    2    1    2    0    0  0.71810754816E+01 -0.19638771438E+03  0.21419243055E+02  0.23393655302E+03  0.12509126534E+03 0.  0.
          5    1    3    3  502    0 -0.35156306848E+02 -0.11732746846E+03 -0.35552921544E+02  0.12760557745E+03  0.41800000000E+01 0.  1.
         -5    1    3    3    0  502  0.42337382329E+02 -0.79060245919E+02  0.56972164599E+02  0.10633097557E+03  0.41800000000E+01 0.  1.
        -11    1    1    2    0    0  0.41336220878E+02  0.94021950671E+02  0.56154748209E+02  0.11705625191E+03  0.00000000000E+00 0. -1.
         11    1    1    2    0    0 -0.48517296360E+02  0.10236576371E+03  0.43725435247E+02  0.12142730876E+03  0.00000000000E+00 0.  1.
</event>
<event>
 7    1  0.2601031E-009  0.1138854E+03  0.7561462E-02  0.1253539E+00
          4   -1    0    0  501    0  0.00000000000E+00  0.00000000000E+00  0.13941286474E+03  0.13941286474E+03  0.00000000000E+00 0. -1.
         -4   -1    0    0    0  501 -0.00000000000E+00 -0.00000000000E+00 -0.17267436454E+03  0.17267436454E+03  0.00000000000E+00 0.  1.
         25    2    1    2    0    0  0.69337171086E+02  0.49176617502E+02  0.54982839940E+02  0.16092299676E+03  0.12508842951E+03 0.  0.
          5    1    3    3  502    0  0.40203150165E+02  0.61125758394E+02  0.88395007357E+02  0.11482073571E+03  0.41800000000E+01 0. -1.
         -5    1    3    3    0  502  0.29134020921E+02 -0.11949140891E+02 -0.33412167417E+02  0.46102261057E+02  0.41800000000E+01 0. -1.
        -11    1    1    2    0    0 -0.68875130861E+02  0.45222208910E+01 -0.48699851731E+02  0.84474313797E+02  0.00000000000E+00 0.  1.
         11    1    1    2    0    0 -0.46204022505E+00 -0.53698838393E+02 -0.39544488014E+02  0.66689918716E+02  0.00000000000E+00 0. -1.
</event>
<event>
 7    1  0.2601031E-009  0.1109524E+03  0.7561462E-02  0.1258816E+00
          4   -1    0    0  501    0  0.00000000000E+00  0.00000000000E+00  0.17565156177E+03  0.17565156177E+03  0.00000000000E+00 0. -1.
         -4   -1    0    0    0  501 -0.00000000000E+00 -0.00000000000E+00 -0.83609439973E+02  0.83609439973E+02  0.00000000000E+00 0.  1.
         25    2    1    2    0    0  0.19519722777E+02  0.39057463771E+02  0.16293393571E+02  0.13347534134E+03  0.12507472574E+03 0.  0.
          5    1    3    3  502    0 -0.39148370750E+02 -0.14971518417E+02 -0.18939184558E+02  0.46183399700E+02  0.41800000000E+01 0. -1.
         -5    1    3    3    0  502  0.58668093527E+02  0.54028982188E+02  0.35232578129E+02  0.87291941644E+02  0.41800000000E+01 0. -1.
        -11    1    1    2    0    0 -0.23189935343E+02  0.25952604011E+02  0.20509398282E+02  0.40397353553E+02  0.00000000000E+00 0.  1.
         11    1    1    2    0    0  0.36702125662E+01 -0.65010067782E+02  0.55239329943E+02  0.85388306845E+02  0.00000000000E+00 0. -1.
</event>
<event>
 7    1  0.2601031E-009  0.1152708E+03  0.7561462E-02  0.1251109E+00
          1   -1    0    0  501    0  0.00000000000E+00  0.00000000000E+00  0.10078954317E+03  0.10078954317E+03  0.00000000000E+00 0. -1.
         -1   -1    0    0    0  501 -0.00000000000E+00 -0.00000000000E+00 -0.19748044061E+03  0.19748044061E+03  0.00000000000E+00 0.  1.
         25    2    1    2    0    0 -0.81188957735E+02  0.35192482728E+02 -0.40250426935E+02  0.15842273442E+03  0.12509000046E+03 0.  0.
          5    1    3    3  502    0  0.15207906116E+00  0.48215593045E+02  0.23856169180E+02  0.53956980538E+02  0.41800000000E+01 0.  1.
         -5    1    3    3    0  502 -0.81341036796E+02 -0.13023110318E+02 -0.64106596115E+02  0.10446575389E+03  0.41800000000E+01 0.  1.
        -11    1    1    2    0    0  0.12916177853E+02 -0.28218281653E+02  0.20154926949E+02  0.37004326100E+02  0.00000000000E+00 0. -1.
         11    1    1    2    0    0  0.68272779882E+02 -0.69742010747E+01 -0.76595397452E+02  0.10284292326E+03  0.00000000000E+00 0.  1.
</event>
<event>
 7    1  0.3192995E-009  0.1212211E+03  0.7561462E-02  0.1241096E+00
         -2   -1    0    0    0  501 -0.00000000000E+00  0.00000000000E+00  0.30797774096E+02  0.30797774096E+02  0.00000000000E+00 0. -1.
          2   -1    0    0  501    0  0.00000000000E+00 -0.00000000000E+00 -0.74584009936E+03  0.74584009936E+03  0.00000000000E+00 0.  1.
         25    2    1    2    0    0  0.88270834631E+02  0.39132739300E+00 -0.53377837913E+03  0.55530014221E+03  0.12508795519E+03 0.  0.
          5    1    3    3  502    0  0.57608000210E+02  0.60562118904E+02 -0.25292974341E+03  0.26641580178E+03  0.41800000000E+01 0.  1.
         -5    1    3    3    0  502  0.30662834422E+02 -0.60170791511E+02 -0.28084863571E+03  0.28888434043E+03  0.41800000000E+01 0.  1.
        -11    1    1    2    0    0 -0.53028336268E+02  0.10793250632E+02 -0.17582581591E+03  0.18396525826E+03  0.00000000000E+00 0.  1.
         11    1    1    2    0    0 -0.35242498363E+02 -0.11184578025E+02 -0.54381302265E+01  0.37372472982E+02  0.00000000000E+00 0. -1.
</event>
<event>
 7    1  0.2601031E-009  0.7985382E+02  0.7561462E-02  0.1329467E+00
          1   -1    0    0  501    0  0.00000000000E+00  0.00000000000E+00  0.85417230403E+02  0.85417230403E+02  0.00000000000E+00 0. -1.
         -1   -1    0    0    0  501 -0.00000000000E+00 -0.00000000000E+00 -0.21693942554E+03  0.21693942554E+03  0.00000000000E+00 0.  1.
         25    2    1    2    0    0  0.39391745669E+02  0.53376602879E+02 -0.11719765032E+03  0.18380373591E+03  0.12509097783E+03 0.  0.
          5    1    3    3  502    0  0.30391661881E+01 -0.51692019748E+01 -0.11447648085E+03  0.11470960835E+03  0.41800000000E+01 0.  1.
         -5    1    3    3    0  502  0.36352579480E+02  0.58545804854E+02 -0.27211694708E+01  0.69094127566E+02  0.41800000000E+01 0.  1.
        -11    1    1    2    0    0  0.85079388934E+01 -0.27767695649E+02  0.34793956667E+02  0.45321621401E+02  0.00000000000E+00 0. -1.
         11    1    1    2    0    0 -0.47899684562E+02 -0.25608907230E+02 -0.49118501491E+02  0.73231298632E+02  0.00000000000E+00 0.  1.
</event>
<event>
 7    1  0.2601031E-009  0.1184773E+03  0.7561462E-02  0.1245630E+00
         -2   -1    0    0    0  501 -0.00000000000E+00  0.00000000000E+00  0.18478048373E+02  0.18478048373E+02  0.00000000000E+00 0.  1.
          2   -1    0    0  501    0  0.00000000000E+00 -0.00000000000E+00 -0.13452999774E+04  0.13452999774E+04  0.00000000000E+00 0. -1.
         25    2    1    2    0    0  0.43900119722E+02  0.85551076096E+02 -0.97569333176E+03  0.98836764626E+03  0.12508764686E+03 0.  0.
          5    1    3    3  502    0  0.41942146195E-01 -0.44254272901E+01  0.13218577822E+01  0.62294360772E+01  0.41800000000E+01 0. -1.
         -5    1    3    3    0  502  0.43858177576E+02  0.89976503386E+02 -0.97701518955E+03  0.98213821019E+03  0.41800000000E+01 0. -1.
        -11    1    1    2    0    0 -0.15709360175E+02 -0.98440163893E+02 -0.29360838930E+03  0.31006956660E+03  0.00000000000E+00 0.  1.
         11    1    1    2    0    0 -0.28190759547E+02  0.12889087797E+02 -0.57520207989E+02  0.65340812937E+02  0.00000000000E+00 0. -1.
</event>
<event>
 7    1  0.2601031E-009  0.9518154E+02  0.7561462E-02  0.1290768E+00
          1   -1    0    0  501    0  0.00000000000E+00  0.00000000000E+00  0.12058086055E+03  0.12058086055E+03  0.00000000000E+00 0. -1.
         -1   -1    0    0    0  501 -0.00000000000E+00 -0.00000000000E+00 -0.12304113631E+03  0.12304113631E+03  0.00000000000E+00 0.  1.
         25    2    1    2    0    0 -0.28897658683E+02 -0.44861045622E+02  0.14313849834E+01  0.13600625526E+03  0.12509222404E+03 0.  0.
          5    1    3    3  502    0 -0.73137242201E+02 -0.23650422404E+02 -0.23937986217E+02  0.80615744497E+02  0.41800000000E+01 0.  1.
         -5    1    3    3    0  502  0.44239583518E+02 -0.21210623217E+02  0.25369371200E+02  0.55390510759E+02  0.41800000000E+01 0.  1.
        -11    1    1    2    0    0  0.57083531467E+01  0.40057970930E+02  0.40533426350E+02  0.57272899196E+02  0.00000000000E+00 0. -1.
         11    1    1    2    0    0  0.23189305536E+02  0.48030746914E+01 -0.44425087102E+02  0.50342842408E+02  0.00000000000E+00 0.  1.
</event>
<event>
 7    1  0.2601031E-009  0.1145035E+03  0.7561462E-02  0.1252450E+00
          2   -1    0    0  501    0  0.00000000000E+00  0.00000000000E+00  0.19831121145E+03  0.19831121145E+03  0.00000000000E+00 0.  1.
         -2   -1    0    0    0  501 -0.00000000000E+00 -0.00000000000E+00 -0.72019827873E+02  0.72019827873E+02  0.00000000000E+00 0. -1.
         25    2    1    2    0    0 -0.42899141951E+02 -0.10554255724E+02  0.60682557441E+02  0.14588586150E+03  0.12509429688E+03 0.  0.
          5    1    3    3  502    0 -0.33253638141E+02  0.51356534301E+02  0.55778735682E+02  0.82897755213E+02  0.41800000000E+01 0. -1.
         -5    1    3    3    0  502 -0.96455038099E+01 -0.61910790025E+02  0.49038217590E+01  0.62988106283E+02  0.41800000000E+01 0. -1.
        -11    1    1    2    0    0  0.25493571541E+02  0.53107570660E+02  0.28922356052E+02  0.65626510885E+02  0.00000000000E+00 0. -1.
         11    1    1    2    0    0  0.17405570411E+02 -0.42553314936E+02  0.36686470079E+02  0.58818666937E+02  0.00000000000E+00 0.  1.
</event>
<event>
 7    1  0.2601031E-009  0.2483805E+03  0.7561462E-02  0.1114333E+00
          2   -1    0    0  501    0  0.00000000000E+00  0.00000000000E+00  0.28713516044E+03  0.28713516044E+03  0.00000000000E+00 0. -1.
         -2   -1    0    0    0  501 -0.00000000000E+00 -0.00000000000E+00 -0.33189680447E+03  0.33189680447E+03  0.00000000000E+00 0.  1.
         25    2    1    2    0    0 -0.13496474997E+03  0.19350323479E+03  0.14407362737E+03  0.30341967853E+03  0.12508919062E+03 0.  0.
          5    1    3    3  502    0 -0.11609587486E+03  0.20688990660E+03  0.10880123716E+03  0.26103039521E+03  0.41800000000E+01 0. -1.
         -5    1    3    3    0  502 -0.18868875112E+02 -0.13386671814E+02  0.35272390204E+02  0.42389283327E+02  0.41800000000E+01 0. -1.
        -11    1    1    2    0    0  0.66947942425E+02 -0.10044691678E+03 -0.15304129953E+03  0.19491857132E+03  0.00000000000E+00 0.  1.
         11    1    1    2    0    0  0.68016807550E+02 -0.93056318006E+02 -0.35793971871E+02  0.12069371505E+03  0.00000000000E+00 0. -1.
</event>
<event>
 7    1  0.2601031E-009  0.6284378E+02  0.7561462E-02  0.1386271E+00
          1   -1    0    0  501    0  0.00000000000E+00  0.00000000000E+00  0.11971125146E+03  0.11971125146E+03  0.00000000000E+00 0. -1.
         -1   -1    0    0    0  501 -0.00000000000E+00 -0.00000000000E+00 -0.10223009629E+03  0.10223009629E+03  0.00000000000E+00 0.  1.
         25    2    1    2    0    0 -0.14060033320E+02  0.10279581808E+02  0.20446246327E+01  0.12630687325E+03  0.12508353769E+03 0.  0.
          5    1    3    3  502    0 -0.20941465645E+02  0.32700057055E+02 -0.53285939161E+02  0.66065894583E+02  0.41800000000E+01 0. -1.
         -5    1    3    3    0  502  0.68814323254E+01 -0.22420475247E+02  0.55330563794E+02  0.60240978668E+02  0.41800000000E+01 0. -1.
        -11    1    1    2    0    0 -0.23493927199E+02 -0.92281496190E+01  0.42432392042E+02  0.49372373399E+02  0.00000000000E+00 0. -1.
         11    1    1    2    0    0  0.37553960519E+02 -0.10514321887E+01 -0.26995861507E+02  0.46262101107E+02  0.00000000000E+00 0.  1.
</event>
<event>
 7    1  0.2601031E-009  0.6286288E+02  0.7561462E-02  0.1386196E+00
         -2   -1    0    0    0  501 -0.00000000000E+00  0.00000000000E+00  0.36230138405E+02  0.36230138405E+02  0.00000000000E+00 0.  1.
          2   -1    0    0  501    0  0.00000000000E+00 -0.00000000000E+00 -0.36622229282E+03  0.36622229282E+03  0.00000000000E+00 0. -1.
         25    2    1    2    0    0 -0.16209089080E+02 -0.25120999513E+02 -0.15172386550E+03  0.19889471086E+03  0.12508067581E+03 0.  0.
          5    1    3    3  502    0 -0.16192192336E+02 -0.22954753693E+02  0.14990564754E+02  0.32113816986E+02  0.41800000000E+01 0. -1.
         -5    1    3    3    0  502 -0.16896744031E-01 -0.21662458197E+01 -0.16671443026E+03  0.16678089388E+03  0.41800000000E+01 0. -1.
        -11    1    1    2    0    0 -0.15444747244E+01  0.56523058395E+02 -0.13989882689E+03  0.15089374837E+03  0.00000000000E+00 0. -1.
         11    1    1    2    0    0  0.17753563805E+02 -0.31402058883E+02 -0.38369462019E+02  0.52663971987E+02  0.00000000000E+00 0.  1.
</event>
<event>
 7    1  0.2601031E-009  0.1520070E+03  0.7561462E-02  0.1198028E+00
         -2   -1    0    0    0  501 -0.00000000000E+00  0.00000000000E+00  0.12974511489E+03  0.12974511489E+03  0.00000000000E+00 0.  1.
          2   -1    0    0  501    0  0.00000000000E+00 -0.00000000000E+00 -0.20372212487E+03  0.20372212487E+03  0.00000000000E+00 0. -1.
         25    2    1    2    0    0  0.23695841226E+02 -0.11670583224E+03 -0.62992841055E+02  0.18383968426E+03  0.12508871777E+03 0.  0.
          5    1    3    3  502    0 -0.22034732000E+02  0.13966092727E+02  0.87809225587E+01  0.27841662331E+02  0.41800000000E+01 0.  1.
         -5    1    3    3    0  502  0.45730573226E+02 -0.13067192496E+03 -0.71773763614E+02  0.15599802192E+03  0.41800000000E+01 0.  1.
        -11    1    1    2    0    0  0.14912657492E+02  0.92111254870E+02  0.18568512707E+02  0.95140213850E+02  0.00000000000E+00 0.  1.
         11    1    1    2    0    0 -0.38608498718E+02  0.24594577366E+02 -0.29552681630E+02  0.54487341655E+02  0.00000000000E+00 0. -1.
</event>
<event>
 7    1  0.2601031E-009  0.1143821E+03  0.7561462E-02  0.1252664E+00
          1   -1    0    0  501    0  0.00000000000E+00  0.00000000000E+00  0.77021475932E+03  0.77021475932E+03  0.00000000000E+00 0. -1.
         -1   -1    0    0    0  501 -0.00000000000E+00 -0.00000000000E+00 -0.23822112689E+02  0.23822112689E+02  0.00000000000E+00 0.  1.
         25    2    1    2    0    0 -0.39130620143E+01  0.78757795116E+02  0.43305316117E+03  0.45760278545E+03  0.12508863458E+03 0.  0.
          5    1    3    3  502    0 -0.16735086856E+02  0.98465957029E+02  0.41703178854E+03  0.42884565158E+03  0.41800000000E+01 0. -1.
         -5    1    3    3    0  502  0.12822024842E+02 -0.19708161914E+02  0.16021372627E+02  0.28757133861E+02  0.41800000000E+01 0. -1.
        -11    1    1    2    0    0 -0.29095431141E+02 -0.60652557026E+02  0.10486209639E+03  0.12458465414E+03  0.00000000000E+00 0.  1.
         11    1    1    2    0    0  0.33008493155E+02 -0.18105238089E+02  0.20847738907E+03  0.21184943242E+03  0.00000000000E+00 0. -1.
</event>
<event>
 7    1  0.2601031E-009  0.1930706E+03  0.7561462E-02  0.1155721E+00
         -2   -1    0    0    0  501 -0.00000000000E+00  0.00000000000E+00  0.90551654976E+03  0.90551654976E+03  0.00000000000E+00 0.  1.
          2   -1    0    0  501    0  0.00000000000E+00 -0.00000000000E+00 -0.10988015342E+03  0.10988015342E+03  0.00000000000E+00 0. -1.
         25    2    1    2    0    0  0.16921845809E+03  0.67015071203E+02  0.29458444363E+02  0.22280301107E+03  0.12508986957E+03 0.  0.
          5    1    3    3  502    0  0.45067370450E+02  0.38528153939E+02  0.67365423818E+02  0.89839074191E+02  0.41800000000E+01 0.  1.
         -5    1    3    3    0  502  0.12415108764E+03  0.28486917264E+02 -0.37906979456E+02  0.13296393688E+03  0.41800000000E+01 0.  1.
        -11    1    1    2    0    0 -0.11681253718E+03 -0.84321610813E+02  0.61523170639E+03  0.63187447760E+03  0.00000000000E+00 0.  1.
         11    1    1    2    0    0 -0.52405920916E+02  0.17306539611E+02  0.15094624559E+03  0.16071921453E+03  0.00000000000E+00 0. -1.
</event>
<event>
 7    1  0.2601031E-009  0.9077761E+02  0.7561462E-02  0.1300979E+00
          1   -1    0    0  501    0  0.00000000000E+00  0.00000000000E+00  0.21456443981E+03  0.21456443981E+03  0.00000000000E+00 0. -1.
         -1   -1    0    0    0  501 -0.00000000000E+00 -0.00000000000E+00 -0.75105340979E+02  0.75105340979E+02  0.00000000000E+00 0.  1.
         25    2    1    2    0    0  0.12271744392E+02 -0.32750289166E+02  0.14029950623E+03  0.19119358610E+03  0.12509140165E+03 0.  0.
          5    1    3    3  502    0  0.40630734001E+02 -0.41621858028E+02  0.14895493955E+03  0.15996337714E+03  0.41800000000E+01 0.  1.
         -5    1    3    3    0  502 -0.28358989609E+02  0.88715688617E+01 -0.86554333190E+01  0.31230208959E+02  0.41800000000E+01 0.  1.
        -11    1    1    2    0    0  0.42309775550E+01  0.60660971914E+02  0.14640001623E+02  0.62545857834E+02  0.00000000000E+00 0.  1.
         11    1    1    2    0    0 -0.16502721947E+02 -0.27910682748E+02 -0.15480409018E+02  0.35930336855E+02  0.00000000000E+00 0. -1.
</event>
<event>
 7    1  0.3378458E-009  0.1577204E+03  0.7561462E-02  0.1191295E+00
         -1   -1    0    0    0  501 -0.00000000000E+00  0.00000000000E+00  0.24903392656E+02  0.24903392656E+02  0.00000000000E+00 0.  1.
          1   -1    0    0  501    0  0.00000000000E+00 -0.00000000000E+00 -0.11249230005E+04  0.11249230005E+04  0.00000000000E+00 0. -1.
         25    2    1    2    0    0  0.12664589170E+03  0.92249698938E+00 -0.54575426073E+03  0.57405117926E+03  0.12508801068E+03 0.  0.
          5    1    3    3  502    0  0.93405499072E+02  0.56337275509E+02 -0.39864770889E+03  0.41332305049E+03  0.41800000000E+01 0.  1.
         -5    1    3    3    0  502  0.33240392629E+02 -0.55414778520E+02 -0.14710655185E+03  0.16072812877E+03  0.41800000000E+01 0.  1.
        -11    1    1    2    0    0 -0.54460958451E+02 -0.31742749484E+02 -0.13202496307E+03  0.14630170544E+03  0.00000000000E+00 0.  1.
         11    1    1    2    0    0 -0.72184933250E+02  0.30820252495E+02 -0.42224038401E+03  0.42947350843E+03  0.00000000000E+00 0. -1.
</event>
<event>
 7    1  0.2601031E-009  0.8216735E+02  0.7561462E-02  0.1323011E+00
         -2   -1    0    0    0  501 -0.00000000000E+00  0.00000000000E+00  0.97080396405E+02  0.97080396405E+02  0.00000000000E+00 0.  1.
          2   -1    0    0  501    0  0.00000000000E+00 -0.00000000000E+00 -0.27290043449E+03  0.27290043449E+03  0.00000000000E+00 0. -1.
         25    2    1    2    0    0 -0.32589963894E+02  0.11631442628E+02 -0.22525108180E+03  0.25996832317E+03  0.12509229791E+03 0.  0.
          5    1    3    3  502    0  0.45143340346E+01  0.49669382423E+02 -0.31773473679E+02  0.59282820375E+02  0.41800000000E+01 0. -1.
         -5    1    3    3    0  502 -0.37104297928E+02 -0.38037939794E+02 -0.19347760812E+03  0.20068550279E+03  0.41800000000E+01 0. -1.
        -11    1    1    2    0    0  0.23254712321E+01  0.18282969675E+02 -0.20865384282E+02  0.27839523305E+02  0.00000000000E+00 0. -1.
         11    1    1    2    0    0  0.30264492662E+02 -0.29914412304E+02  0.70296427996E+02  0.82172984420E+02  0.00000000000E+00 0.  1.
</event>
<event>
 7    1  0.2601031E-009  0.1131951E+03  0.7561462E-02  0.1254765E+00
          1   -1    0    0  501    0  0.00000000000E+00  0.00000000000E+00  0.67058433567E+03  0.67058433567E+03  0.00000000000E+00 0. -1.
         -1   -1    0    0    0  501 -0.00000000000E+00 -0.00000000000E+00 -0.31621230680E+02  0.31621230680E+02  0.00000000000E+00 0.  1.
         25    2    1    2    0    0  0.38012276468E+02 -0.62849747669E+02  0.50701927499E+03  0.52736141036E+03  0.12508592239E+03 0.  0.
          5    1    3    3  502    0  0.74881274448E+02 -0.27651016792E+02  0.40966701222E+03  0.41739228226E+03  0.41800000000E+01 0. -1.
         -5    1    3    3    0  502 -0.36868997980E+02 -0.35198730877E+02  0.97352262773E+02  0.10996912810E+03  0.41800000000E+01 0. -1.
        -11    1    1    2    0    0  0.13591206313E+02  0.33020912039E+02  0.10214339345E+03  0.10820524177E+03  0.00000000000E+00 0.  1.
         11    1    1    2    0    0 -0.51603482781E+02  0.29828835630E+02  0.29800436550E+02  0.66638914223E+02  0.00000000000E+00 0. -1.
</event>
<event>
 7    1  0.2601031E-009  0.1006967E+03  0.7561462E-02  0.1278838E+00
          2   -1    0    0  501    0  0.00000000000E+00  0.00000000000E+00  0.12402417959E+04  0.12402417959E+04  0.00000000000E+00 0. -1.
         -2   -1    0    0    0  501 -0.00000000000E+00 -0.00000000000E+00 -0.14587176215E+02  0.14587176215E+02  0.00000000000E+00 0.  1.
         25    2    1    2    0    0 -0.37149649397E+02  0.59813327814E+02  0.84516090979E+03  0.85726260730E+03  0.12507791089E+03 0.  0.
          5    1    3    3  502    0 -0.26131585220E+02 -0.11026547786E+02  0.62558408532E+03  0.62624066038E+03  0.41800000000E+01 0.  1.
         -5    1    3    3    0  502 -0.11018064177E+02  0.70839875600E+02  0.21957682447E+03  0.23102194692E+03  0.41800000000E+01 0.  1.
        -11    1    1    2    0    0 -0.18469068883E+02 -0.35894136337E+02  0.66531914704E+02  0.77820249312E+02  0.00000000000E+00 0. -1.
         11    1    1    2    0    0  0.55618718280E+02 -0.23919191477E+02  0.31396179521E+03  0.31974611553E+03  0.00000000000E+00 0.  1.
</event>
<event>
 7    1  0.2601031E-009  0.1150653E+03  0.7561462E-02  0.1251467E+00
         -1   -1    0    0    0  501 -0.00000000000E+00  0.00000000000E+00  0.36227194710E+02  0.36227194710E+02  0.00000000000E+00 0.  1.
          1   -1    0    0  501    0  0.00000000000E+00 -0.00000000000E+00 -0.54155028927E+03  0.54155028927E+03  0.00000000000E+00 0. -1.
         25    2    1    2    0    0  0.82745655209E+02  0.23963578067E+02 -0.24090027159E+03  0.28477679217E+03  0.12507511333E+03 0.  0.
          5    1    3    3  502    0  0.21269896978E+02 -0.22232112079E+02  0.84404040431E+00  0.31062197751E+02  0.41800000000E+01 0.  1.
         -5    1    3    3    0  502  0.61475758231E+02  0.46195690145E+02 -0.24174431200E+03  0.25371459442E+03  0.41800000000E+01 0.  1.
        -11    1    1    2    0    0 -0.35750738235E+02  0.32701665401E+02 -0.14320764381E+03  0.15118182248E+03  0.00000000000E+00 0. -1.
         11    1    1    2    0    0 -0.46994916974E+02 -0.56665243468E+02 -0.12121517916E+03  0.14181886933E+03  0.00000000000E+00 0.  1.
</event>
<event>
 7    1  0.2601031E-009  0.9471494E+02  0.7561462E-02  0.1291819E+00
         -2   -1    0    0    0  501 -0.00000000000E+00  0.00000000000E+00  0.38796715742E+03  0.38796715742E+03  0.00000000000E+00 0.  1.
          2   -1    0    0  501    0  0.00000000000E+00 -0.00000000000E+00 -0.38315030460E+02  0.38315030460E+02  0.00000000000E+00 0. -1.
         25    2    1    2    0    0 -0.24566233998E+02  0.16976692971E+01  0.28105989724E+03  0.30862264761E+03  0.12508753276E+03 0.  0.
          5    1    3    3  502    0 -0.59189690946E+02  0.46241976037E+01  0.26219374267E+03  0.26886396897E+03  0.41800000000E+01 0.  1.
         -5    1    3    3    0  502  0.34623456948E+02 -0.29265283066E+01  0.18866154567E+02  0.39758678639E+02  0.41800000000E+01 0.  1.
        -11    1    1    2    0    0  0.55963779780E+02  0.16854124468E+02  0.35297648547E+02  0.68278328567E+02  0.00000000000E+00 0. -1.
         11    1    1    2    0    0 -0.31397545783E+02 -0.18551793765E+02  0.33294581173E+02  0.49381211696E+02  0.00000000000E+00 0.  1.
</event>
<event>
 7    1  0.2601031E-009  0.7263592E+02  0.7561462E-02  0.1351352E+00
         -2   -1    0    0    0  501 -0.00000000000E+00  0.00000000000E+00  0.47244398493E+02  0.47244398493E+02  0.00000000000E+00 0.  1.
          2   -1    0    0  501    0  0.00000000000E+00 -0.00000000000E+00 -0.32308875249E+03  0.32308875249E+03  0.00000000000E+00 0. -1.
         25    2    1    2    0    0  0.12678845110E+01  0.37414307456E+02 -0.22495391832E+03  0.26010259003E+03  0.12509058333E+03 0.  0.
          5    1    3    3  502    0  0.41962331511E+02  0.20642743383E+02 -0.20720848059E+03  0.21246125988E+03  0.41800000000E+01 0.  1.
         -5    1    3    3    0  502 -0.40694447000E+02  0.16771564073E+02 -0.17745437723E+02  0.47641330146E+02  0.41800000000E+01 0.  1.
        -11    1    1    2    0    0  0.18908267314E+02 -0.18399823695E+02  0.20651464342E+02  0.33504612582E+02  0.00000000000E+00 0.  1.
         11    1    1    2    0    0 -0.20176151825E+02 -0.19014483762E+02 -0.71541900021E+02  0.76725948374E+02  0.00000000000E+00 0. -1.
</event>
<event>
 7    1  0.2601031E-009  0.6578490E+02  0.7561462E-02  0.1375043E+00
          1   -1    0    0  501    0  0.00000000000E+00  0.00000000000E+00  0.56556007325E+02  0.56556007325E+02  0.00000000000E+00 0. -1.
         -1   -1    0    0    0  501 -0.00000000000E+00 -0.00000000000E+00 -0.19449994829E+03  0.19449994829E+03  0.00000000000E+00 0.  1.
         25    2    1    2    0    0  0.39442713255E+02 -0.14537301224E+02 -0.12495994727E+03  0.18174063424E+03  0.12509040314E+03 0.  0.
          5    1    3    3  502    0 -0.29454650513E+01  0.18536672948E+02 -0.12634103551E+03  0.12779598453E+03  0.41800000000E+01 0.  1.
         -5    1    3    3    0  502  0.42388178307E+02 -0.33073974172E+02  0.13810882420E+01  0.53944649711E+02  0.41800000000E+01 0.  1.
        -11    1    1    2    0    0 -0.65091095553E+01  0.23416399005E+02 -0.23311371876E+02  0.33676643364E+02  0.00000000000E+00 0.  1.
         11    1    1    2    0    0 -0.32933603700E+02 -0.88790977811E+01  0.10327378181E+02  0.35638678008E+02  0.00000000000E+00 0. -1.
</event>
<event>
 7    1  0.2601031E-009  0.1504638E+03  0.7561462E-02  0.1199904E+00
          3   -1    0    0  501    0  0.00000000000E+00  0.00000000000E+00  0.18029619591E+03  0.18029619591E+03  0.00000000000E+00 0. -1.
         -3   -1    0    0    0  501 -0.00000000000E+00 -0.00000000000E+00 -0.14352130100E+03  0.14352130100E+03  0.00000000000E+00 0.  1.
         25    2    1    2    0    0 -0.98506555331E+02  0.50951822872E+02 -0.22598591768E+02  0.16868273309E+03  0.12507413161E+03 0.  0.
          5    1    3    3  502    0 -0.83756940929E+02 -0.25775056464E+02 -0.19241507357E+01  0.87753936923E+02  0.41800000000E+01 0.  1.
         -5    1    3    3    0  502 -0.14749614402E+02  0.76726879336E+02 -0.20674441033E+02  0.80928796171E+02  0.41800000000E+01 0.  1.
        -11    1    1    2    0    0 -0.74680330082E+01 -0.24657151284E+02 -0.78249081971E+01  0.26925374923E+02  0.00000000000E+00 0.  1.
         11    1    1    2    0    0  0.10597458834E+03 -0.26294671587E+02  0.67198394867E+02  0.12820938889E+03  0.00000000000E+00 0. -1.
</event>
<event>
 7    1  0.2601031E-009  0.1110508E+03  0.7561462E-02  0.1258636E+00
          3   -1    0    0  501    0  0.00000000000E+00  0.00000000000E+00  0.12279525298E+03  0.12279525298E+03  0.00000000000E+00 0. -1.
         -3   -1    0    0    0  501 -0.00000000000E+00 -0.00000000000E+00 -0.10863681407E+03  0.10863681407E+03  0.00000000000E+00 0.  1.
         25    2    1    2    0    0  0.37430830531E+02 -0.13006498747E+02  0.26020317611E+02  0.13375631227E+03  0.12507381045E+03 0.  0.
          5    1    3    3  502    0  0.71459849507E+02  0.25516235533E+02 -0.17832866563E-04  0.75993820586E+02  0.41800000000E+01 0.  1.
         -5    1    3    3    0  502 -0.34029018975E+02 -0.38522734280E+02  0.26020335444E+02  0.57762491683E+02  0.41800000000E+01 0.  1.
        -11    1    1    2    0    0  0.27923106034E+02  0.10811752880E+00  0.63093082225E+01  0.28627240702E+02  0.00000000000E+00 0.  1.
         11    1    1    2    0    0 -0.65353936565E+02  0.12898381218E+02 -0.18171186918E+02  0.69048514080E+02  0.00000000000E+00 0. -1.
</event>
<event>
 7    1  0.4055349E-009  0.2091940E+03  0.7561462E-02  0.1142206E+00
          2   -1    0    0  501    0  0.00000000000E+00  0.00000000000E+00  0.10363511423E+04  0.10363511423E+04  0.00000000000E+00 0.  1.
         -2   -1    0    0    0  501 -0.00000000000E+00 -0.00000000000E+00 -0.50765569749E+02  0.50765569749E+02  0.00000000000E+00 0. -1.
         25    2    1    2    0    0 -0.20041454175E+03 -0.14440030030E+02  0.55016907665E+03  0.59892426304E+03  0.12509898859E+03 0.  0.
          5    1    3    3  502    0 -0.11911854114E+03 -0.44888906592E+02  0.19230504801E+03  0.23065763519E+03  0.41800000000E+01 0. -1.
         -5    1    3    3    0  502 -0.81296000604E+02  0.30448876562E+02  0.35786402864E+03  0.36826662786E+03  0.41800000000E+01 0. -1.
        -11    1    1    2    0    0  0.14870452646E+03 -0.52057899638E+01  0.21863256050E+03  0.26446234694E+03  0.00000000000E+00 0. -1.
         11    1    1    2    0    0  0.51710015291E+02  0.19645819994E+02  0.21678393542E+03  0.22373010209E+03  0.00000000000E+00 0.  1.
</event>
<event>
 7    1  0.2601031E-009  0.1260663E+03  0.7561462E-02  0.1233412E+00
         -2   -1    0    0    0  501 -0.00000000000E+00  0.00000000000E+00  0.54898425698E+02  0.54898425698E+02  0.00000000000E+00 0. -1.
          2   -1    0    0  501    0  0.00000000000E+00 -0.00000000000E+00 -0.39030643460E+03  0.39030643460E+03  0.00000000000E+00 0.  1.
         25    2    1    2    0    0  0.40703312774E+02  0.49224202019E+02 -0.29317619221E+03  0.32508310071E+03  0.12508781297E+03 0.  0.
          5    1    3    3  502    0  0.85586281843E+02  0.34839161523E+02 -0.20815101318E+03  0.22777861073E+03  0.41800000000E+01 0. -1.
         -5    1    3    3    0  502 -0.44882969069E+02  0.14385040496E+02 -0.85025179026E+02  0.97304489983E+02  0.41800000000E+01 0. -1.
        -11    1    1    2    0    0 -0.64424078106E+02 -0.82223238733E+01 -0.27344375937E+02  0.70468314476E+02  0.00000000000E+00 0.  1.
         11    1    1    2    0    0  0.23720765332E+02 -0.41001878146E+02 -0.14887440761E+02  0.49653445116E+02  0.00000000000E+00 0. -1.
</event>
<event>
 7    1  0.2601031E-009  0.1157640E+03  0.7561462E-02  0.1250253E+00
         -1   -1    0    0    0  501 -0.00000000000E+00  0.00000000000E+00  0.50739081042E+02  0.50739081042E+02  0.00000000000E+00 0.  1.
          1   -1    0    0  501    0  0.00000000000E+00 -0.00000000000E+00 -0.37020819990E+03  0.37020819990E+03  0.00000000000E+00 0. -1.
         25    2    1    2    0    0  0.49836346498E+02 -0.63819171356E+02 -0.21453418282E+03  0.26120703351E+03  0.12509056996E+03 0.  0.
          5    1    3    3  502    0 -0.20942532002E+02 -0.63945458300E+02 -0.56373459039E+02  0.87880888524E+02  0.41800000000E+01 0.  1.
         -5    1    3    3    0  502  0.70778878501E+02  0.12628694326E+00 -0.15816072378E+03  0.17332614499E+03  0.41800000000E+01 0.  1.
        -11    1    1    2    0    0 -0.23359646139E+02 -0.80212864320E+00 -0.83470147593E+02  0.86680920722E+02  0.00000000000E+00 0. -1.
         11    1    1    2    0    0 -0.26476700359E+02  0.64621300000E+02 -0.21464788444E+02  0.73059326704E+02  0.00000000000E+00 0.  1.
</event>
<event>
 7    1  0.2601031E-009  0.1464579E+03  0.7561462E-02  0.1204894E+00
          1   -1    0    0  501    0  0.00000000000E+00  0.00000000000E+00  0.13768912198E+03  0.13768912198E+03  0.00000000000E+00 0. -1.
         -1   -1    0    0    0  501 -0.00000000000E+00 -0.00000000000E+00 -0.27900981453E+03  0.27900981453E+03  0.00000000000E+00 0.  1.
         25    2    1    2    0    0  0.13058685401E+03 -0.13993824481E+02  0.28799136049E+02  0.18364596016E+03  0.12509074658E+03 0.  0.
          5    1    3    3  502    0  0.11706563784E+03 -0.24869730139E+02 -0.28950495439E+02  0.12320093598E+03  0.41800000000E+01 0. -1.
         -5    1    3    3    0  502  0.13521216170E+02  0.10875905658E+02  0.57749631489E+02  0.60445024176E+02  0.41800000000E+01 0. -1.
        -11    1    1    2    0    0 -0.74996154961E+02 -0.33557993248E+02 -0.11557210523E+03  0.14180082397E+03  0.00000000000E+00 0.  1.
         11    1    1    2    0    0 -0.55590699050E+02  0.47551817729E+02 -0.54547723373E+02  0.91252152388E+02  0.00000000000E+00 0. -1.
</event>
<event>
 7    1  0.2601031E-009  0.1008767E+03  0.7561462E-02  0.1278463E+00
          4   -1    0    0  501    0  0.00000000000E+00  0.00000000000E+00  0.62968498775E+02  0.62968498775E+02  0.00000000000E+00 0. -1.
         -4   -1    0    0    0  501 -0.00000000000E+00 -0.00000000000E+00 -0.20537461058E+03  0.20537461058E+03  0.00000000000E+00 0.  1.
         25    2    1    2    0    0  0.18279790689E+01  0.31077814359E+02 -0.64283621580E+02  0.14405466768E+03  0.12510072431E+03 0.  0.
          5    1    3    3  502    0  0.12667200081E+02  0.68119038038E+02 -0.76557633374E+02  0.10334023867E+03  0.41800000000E+01 0. -1.
         -5    1    3    3    0  502 -0.10839221012E+02 -0.37041223679E+02  0.12274011794E+02  0.40714429007E+02  0.41800000000E+01 0. -1.
        -11    1    1    2    0    0  0.42811307787E+02 -0.91158275513E+01 -0.21027869472E+02  0.48560042020E+02  0.00000000000E+00 0.  1.
         11    1    1    2    0    0 -0.44639286856E+02 -0.21961986808E+02 -0.57094620757E+02  0.75728399659E+02  0.00000000000E+00 0. -1.
</event>
<event>
 7    1  0.2601031E-009  0.1370249E+03  0.7561462E-02  0.1217389E+00
          1   -1    0    0  501    0  0.00000000000E+00  0.00000000000E+00  0.10943777888E+03  0.10943777888E+03  0.00000000000E+00 0. -1.
         -1   -1    0    0    0  501 -0.00000000000E+00 -0.00000000000E+00 -0.22489848625E+03  0.22489848625E+03  0.00000000000E+00 0.  1.
         25    2    1    2    0    0 -0.52959621496E+02 -0.98333396244E+02 -0.50846259925E+02  0.17523305642E+03  0.12508838311E+03 0.  0.
          5    1    3    3  502    0 -0.53146247203E+02 -0.12459363612E+03 -0.58433033992E+02  0.14758045133E+03  0.41800000000E+01 0.  1.
         -5    1    3    3    0  502  0.18662570698E+00  0.26260239878E+02  0.75867740665E+01  0.27652605092E+02  0.41800000000E+01 0.  1.
        -11    1    1    2    0    0  0.18681456247E+02  0.42468419106E+02  0.21292349967E+02  0.51048286906E+02  0.00000000000E+00 0. -1.
         11    1    1    2    0    0  0.34278165249E+02  0.55864977138E+02 -0.85906797408E+02  0.10805492180E+03  0.00000000000E+00 0.  1.
</event>
<event>
 7    1  0.2601031E-009  0.1248944E+03  0.7561462E-02  0.1235234E+00
         -1   -1    0    0    0  501 -0.00000000000E+00  0.00000000000E+00  0.11473226832E+04  0.11473226832E+04  0.00000000000E+00 0.  1.
          1   -1    0    0  501    0  0.00000000000E+00 -0.00000000000E+00 -0.17532558463E+02  0.17532558463E+02  0.00000000000E+00 0. -1.
         25    2    1    2    0    0  0.49056537913E+02 -0.55917241405E+02  0.82998503412E+03  0.84264792825E+03  0.12508833810E+03 0.  0.
          5    1    3    3  502    0  0.69369386225E+01 -0.85756028909E+02  0.63848261204E+03  0.64426682042E+03  0.41800000000E+01 0. -1.
         -5    1    3    3    0  502  0.42119599291E+02  0.29838787503E+02  0.19150242207E+03  0.19838110783E+03  0.41800000000E+01 0. -1.
        -11    1    1    2    0    0  0.20428898040E+02  0.32786045413E+02  0.59075518063E+02  0.70584569726E+02  0.00000000000E+00 0.  1.
         11    1    1    2    0    0 -0.69485435954E+02  0.23131195992E+02  0.24072957258E+03  0.25162274371E+03  0.00000000000E+00 0. -1.
</event>
<event>
 7    1  0.2601031E-009  0.9984753E+02  0.7561462E-02  0.1280617E+00
         -2   -1    0    0    0  501 -0.00000000000E+00  0.00000000000E+00  0.26925070244E+03  0.26925070244E+03  0.00000000000E+00 0.  1.
          2   -1    0    0  501    0  0.00000000000E+00 -0.00000000000E+00 -0.93347747068E+02  0.93347747068E+02  0.00000000000E+00 0. -1.
         25    2    1    2    0    0 -0.10462837072E+02 -0.80573310360E+02  0.18900871230E+03  0.24077686771E+03  0.12509067670E+03 0.  0.
          5    1    3    3  502    0  0.13265385573E+02  0.24180293489E+01 -0.14158742743E+02  0.19993992007E+02  0.41800000000E+01 0. -1.
         -5    1    3    3    0  502 -0.23728222645E+02 -0.82991339709E+02  0.20316745504E+03  0.22078287570E+03  0.41800000000E+01 0. -1.
        -11    1    1    2    0    0  0.28496383721E+02  0.17231431108E+02  0.28575687064E+02  0.43880929734E+02  0.00000000000E+00 0.  1.
         11    1    1    2    0    0 -0.18033546648E+02  0.63341879252E+02 -0.41681443985E+02  0.77940652066E+02  0.00000000000E+00 0. -1.
</event>
<event>
 7    1  0.2601031E-009  0.9210571E+02  0.7561462E-02  0.1297831E+00
         -2   -1    0    0    0  501 -0.00000000000E+00  0.00000000000E+00  0.29950060754E+02  0.29950060754E+02  0.00000000000E+00 0.  1.
          2   -1    0    0  501    0  0.00000000000E+00 -0.00000000000E+00 -0.57414001840E+03  0.57414001840E+03  0.00000000000E+00 0. -1.
         25    2    1    2    0    0 -0.48897297934E+02 -0.11369368819E+02 -0.42419457746E+03  0.44509409764E+03  0.12508999925E+03 0.  0.
          5    1    3    3  502    0 -0.34606565487E+02 -0.48875526580E+02 -0.38207856262E+03  0.38676599112E+03  0.41800000000E+01 0.  1.
         -5    1    3    3    0  502 -0.14290732447E+02  0.37506157761E+02 -0.42116014846E+02  0.58328106521E+02  0.41800000000E+01 0.  1.
        -11    1    1    2    0    0 -0.15348126793E+02  0.12150014484E+02 -0.82102977002E+02  0.84404304870E+02  0.00000000000E+00 0. -1.
         11    1    1    2    0    0  0.64245424727E+02 -0.78064566565E+00 -0.37892403182E+02  0.74591676646E+02  0.00000000000E+00 0.  1.
</event>
<event>
 7    1  0.3250927E-009  0.9241136E+02  0.7561462E-02  0.1297115E+00
          2   -1    0    0  501    0  0.00000000000E+00  0.00000000000E+00  0.16796773300E+03  0.16796773300E+03  0.00000000000E+00 0. -1.
         -2   -1    0    0    0  501 -0.00000000000E+00 -0.00000000000E+00 -0.87606645683E+02  0.87606645683E+02  0.00000000000E+00 0.  1.
         25    2    1    2    0    0  0.18349377158E+02 -0.29841441289E+02  0.89423493041E+02  0.15770310296E+03  0.12508595571E+03 0.  0.
          5    1    3    3  502    0 -0.22484847098E+02 -0.65070408782E+02  0.24491248147E+02  0.73191666765E+02  0.41800000000E+01 0. -1.
         -5    1    3    3    0  502  0.40834224256E+02  0.35228967492E+02  0.64932244894E+02  0.84511436197E+02  0.41800000000E+01 0. -1.
        -11    1    1    2    0    0 -0.35048093557E+02  0.11344597341E+02 -0.42452431481E+02  0.56207452259E+02  0.00000000000E+00 0.  1.
         11    1    1    2    0    0  0.16698716399E+02  0.18496843948E+02  0.33390025756E+02  0.41663823461E+02  0.00000000000E+00 0. -1.
</event>
<event>
 7    1  0.2601031E-009  0.1130563E+03  0.7561462E-02  0.1255013E+00
         -1   -1    0    0    0  501 -0.00000000000E+00  0.00000000000E+00  0.24152530689E+02  0.24152530689E+02  0.00000000000E+00 0.  1.
          1   -1    0    0  501    0  0.00000000000E+00 -0.00000000000E+00 -0.65336712572E+03  0.65336712572E+03  0.00000000000E+00 0. -1.
         25    2    1    2    0    0 -0.29178691579E+01 -0.47286411911E+02 -0.23928518030E+03  0.27413364107E+03  0.12508931586E+03 0.  0.
          5    1    3    3  502    0 -0.24107264714E+02  0.35203147748E+02 -0.12059663109E+03  0.12799000607E+03  0.41800000000E+01 0. -1.
         -5    1    3    3    0  502  0.21189395556E+02 -0.82489559658E+02 -0.11868854921E+03  0.14614363500E+03  0.41800000000E+01 0. -1.
        -11    1    1    2    0    0  0.40767289104E+02  0.47644730934E+01 -0.22984408699E+03  0.23348014131E+03  0.00000000000E+00 0. -1.
         11    1    1    2    0    0 -0.37849419946E+02  0.42521938818E+02 -0.16008532774E+03  0.16990587403E+03  0.00000000000E+00 0.  1.
</event>
<event>
 7    1  0.2601031E-009  0.1531051E+03  0.7561462E-02  0.1196709E+00
         -1   -1    0    0    0  501 -0.00000000000E+00  0.00000000000E+00  0.76983626265E+02  0.76983626265E+02  0.00000000000E+00 0.  1.
          1   -1    0    0  501    0  0.00000000000E+00 -0.00000000000E+00 -0.41338426171E+03  0.41338426171E+03  0.00000000000E+00 0. -1.
         25    2    1    2    0    0 -0.12874129164E+03 -0.84685993615E+01 -0.95686384784E+02  0.20358267098E+03  0.12507590633E+03 0.  0.
          5    1    3    3  502    0 -0.95961834559E+02  0.30764569666E+02 -0.69643742662E+01  0.10109949232E+03  0.41800000000E+01 0.  1.
         -5    1    3    3    0  502 -0.32779457080E+02 -0.39233169027E+02 -0.88722010518E+02  0.10248317866E+03  0.41800000000E+01 0.  1.
        -11    1    1    2    0    0  0.10974129759E+03  0.40364753597E+02 -0.16239071635E+03  0.20010799705E+03  0.00000000000E+00 0.  1.
         11    1    1    2    0    0  0.18999994053E+02 -0.31896154236E+02 -0.78323534310E+02  0.86677219936E+02  0.00000000000E+00 0. -1.
</event>
<event>
 7    1  0.2601031E-009  0.1082324E+03  0.7561462E-02  0.1263879E+00
          2   -1    0    0  501    0  0.00000000000E+00  0.00000000000E+00  0.49217294340E+03  0.49217294340E+03  0.00000000000E+00 0. -1.
         -2   -1    0    0    0  501 -0.00000000000E+00 -0.00000000000E+00 -0.50044146700E+02  0.50044146700E+02  0.00000000000E+00 0.  1.
         25    2    1    2    0    0 -0.95293319927E+02  0.28464481842E+02  0.14589450652E+03  0.21638669749E+03  0.12508777827E+03 0.  0.
          5    1    3    3  502    0 -0.48953731825E+02  0.38925092688E+02  0.15557228330E+03  0.16772548534E+03  0.41800000000E+01 0.  1.
         -5    1    3    3    0  502 -0.46339588102E+02 -0.10460610846E+02 -0.96777767876E+01  0.48661212154E+02  0.41800000000E+01 0.  1.
        -11    1    1    2    0    0  0.85906236326E+02 -0.36878136786E+02  0.29869786374E+03  0.31298608949E+03  0.00000000000E+00 0. -1.
         11    1    1    2    0    0  0.93870836017E+01  0.84136549437E+01 -0.24635735479E+01  0.12844303122E+02  0.00000000000E+00 0.  1.
</event>
<event>
 7    1  0.2601031E-009  0.1192335E+03  0.7561462E-02  0.1244367E+00
         -2   -1    0    0    0  501 -0.00000000000E+00  0.00000000000E+00  0.10550430815E+03  0.10550430815E+03  0.00000000000E+00 0.  1.
          2   -1    0    0  501    0  0.00000000000E+00 -0.00000000000E+00 -0.28769040580E+03  0.28769040580E+03  0.00000000000E+00 0. -1.
         25    2    1    2    0    0  0.39480321157E+02 -0.89071993912E+02  0.11004268130E+02  0.15893732205E+03  0.12508981800E+03 0.  0.
          5    1    3    3  502    0  0.31753980405E+02 -0.47641764374E+01 -0.46387708907E+02  0.56571234619E+02  0.41800000000E+01 0. -1.
         -5    1    3    3    0  502  0.77263407515E+01 -0.84307817474E+02  0.57391977037E+02  0.10236608744E+03  0.41800000000E+01 0. -1.
        -11    1    1    2    0    0 -0.59966666019E+02  0.53955943022E+02 -0.16817969528E+03  0.18652521203E+03  0.00000000000E+00 0. -1.
         11    1    1    2    0    0  0.20486344863E+02  0.35116050889E+02 -0.25010670496E+02  0.47732179864E+02  0.00000000000E+00 0.  1.
</event>
<event>
 7    1  0.2601031E-009  0.1263527E+03  0.7561462E-02  0.1232970E+00
         -1   -1    0    0    0  501 -0.00000000000E+00  0.00000000000E+00  0.39013048381E+02  0.39013048381E+02  0.00000000000E+00 0.  1.
          1   -1    0    0  501    0  0.00000000000E+00 -0.00000000000E+00 -0.77378019526E+03  0.77378019526E+03  0.00000000000E+00 0. -1.
         25    2    1    2    0    0  0.89960721436E+02  0.44782246893E+01 -0.62339527246E+03  0.64217052961E+03  0.12509331507E+03 0.  0.
          5    1    3    3  502    0  0.10843295865E+03 -0.90779956441E+01 -0.59750125501E+03  0.60734285100E+03  0.41800000000E+01 0. -1.
         -5    1    3    3    0  502 -0.18472237214E+02  0.13556220333E+02 -0.25894017450E+02  0.34827678607E+02  0.41800000000E+01 0. -1.
        -11    1    1    2    0    0 -0.35931965974E+02 -0.41599754447E+02 -0.20702749710E+02  0.58738825272E+02  0.00000000000E+00 0.  1.
         11    1    1    2    0    0 -0.54028755463E+02  0.37121529758E+02 -0.90669124711E+02  0.11188388876E+03  0.00000000000E+00 0. -1.
</event>
<event>
 7    1  0.2601031E-009  0.9312036E+02  0.7561462E-02  0.1295467E+00
          1   -1    0    0  501    0  0.00000000000E+00  0.00000000000E+00  0.38359580983E+03  0.38359580983E+03  0.00000000000E+00 0. -1.
         -1   -1    0    0    0  501 -0.00000000000E+00 -0.00000000000E+00 -0.27354612932E+02  0.27354612932E+02  0.00000000000E+00 0.  1.
         25    2    1    2    0    0 -0.34044358581E+01  0.34321995589E+01  0.22637536693E+03  0.25869015558E+03  0.12510563401E+03 0.  0.
          5    1    3    3  502    0  0.18327837836E+02 -0.52272041279E+02  0.59612886056E+02  0.81482786668E+02  0.41800000000E+01 0.  1.
         -5    1    3    3    0  502 -0.21732273694E+02  0.55704240838E+02  0.16676248088E+03  0.17720736891E+03  0.41800000000E+01 0.  1.
        -11    1    1    2    0    0 -0.21968489896E+02 -0.27894868501E+02  0.30428282946E+02  0.46761294251E+02  0.00000000000E+00 0.  1.
         11    1    1    2    0    0  0.25372925754E+02  0.24462668942E+02  0.99437547017E+02  0.10549897293E+03  0.00000000000E+00 0. -1.
</event>
<event>
 7    1  0.2601031E-009  0.6971078E+02  0.7561462E-02  0.1361079E+00
         -3   -1    0    0    0  501 -0.00000000000E+00  0.00000000000E+00  0.41776513831E+03  0.41776513831E+03  0.00000000000E+00 0.  1.
          3   -1    0    0  501    0  0.00000000000E+00 -0.00000000000E+00 -0.29778414828E+02  0.29778414828E+02  0.00000000000E+00 0. -1.
         25    2    1    2    0    0 -0.26634658373E+02 -0.77717061165E+01  0.23834811818E+03  0.27060482725E+03  0.12508933866E+03 0.  0.
          5    1    3    3  502    0 -0.37068211754E+02 -0.22657464040E+02  0.24643835380E+03  0.25027334581E+03  0.41800000000E+01 0.  1.
         -5    1    3    3    0  502  0.10433553381E+02  0.14885757923E+02 -0.80902356178E+01  0.20331481438E+02  0.41800000000E+01 0.  1.
        -11    1    1    2    0    0  0.29972052438E+02  0.37050481424E+02  0.36506139282E+02  0.60031327708E+02  0.00000000000E+00 0. -1.
         11    1    1    2    0    0 -0.33373940648E+01 -0.29278775308E+02  0.11313246602E+03  0.11690739819E+03  0.00000000000E+00 0.  1.
</event>
<event>
 7    1  0.2601031E-009  0.8623962E+02  0.7561462E-02  0.1312222E+00
          1   -1    0    0  501    0  0.00000000000E+00  0.00000000000E+00  0.39534608033E+02  0.39534608033E+02  0.00000000000E+00 0. -1.
         -1   -1    0    0    0  501 -0.00000000000E+00 -0.00000000000E+00 -0.30006795659E+03  0.30006795659E+03  0.00000000000E+00 0.  1.
         25    2    1    2    0    0 -0.11714241296E+02 -0.74471758597E+01 -0.16621212342E+03  0.20848513776E+03  0.12508756461E+03 0.  0.
          5    1    3    3  502    0 -0.21711885742E+02  0.34642635566E+02 -0.48620919520E+01  0.41383940358E+02  0.41800000000E+01 0.  1.
         -5    1    3    3    0  502  0.99976444460E+01 -0.42089811425E+02 -0.16135003147E+03  0.16710119741E+03  0.41800000000E+01 0.  1.
        -11    1    1    2    0    0  0.49481234799E+02  0.29959031687E+00 -0.69671157962E+02  0.85454974129E+02  0.00000000000E+00 0.  1.
         11    1    1    2    0    0 -0.37766993503E+02  0.71475855428E+01 -0.24650067175E+02  0.45662452728E+02  0.00000000000E+00 0. -1.
</event>
<event>
 7    1  0.2601031E-009  0.4712063E+03  0.7561462E-02  0.1021580E+00
         -1   -1    0    0    0  501 -0.00000000000E+00  0.00000000000E+00  0.21181774411E+03  0.21181774411E+03  0.00000000000E+00 0.  1.
          1   -1    0    0  501    0  0.00000000000E+00 -0.00000000000E+00 -0.12692895703E+04  0.12692895703E+04  0.00000000000E+00 0. -1.
         25    2    1    2    0    0  0.21273688305E+02  0.46591294333E+03 -0.81636374928E+03  0.94848469646E+03  0.12508400262E+03 0.  0.
          5    1    3    3  502    0  0.29521869257E+02  0.39020670595E+03 -0.75575014370E+03  0.85106319756E+03  0.41800000000E+01 0.  1.
         -5    1    3    3    0  502 -0.82481809513E+01  0.75706237386E+02 -0.60613605574E+02  0.97421498905E+02  0.41800000000E+01 0.  1.
        -11    1    1    2    0    0 -0.38868990701E+02 -0.84832773054E+02 -0.42560096339E+02  0.10256100439E+03  0.00000000000E+00 0.  1.
         11    1    1    2    0    0  0.17595302395E+02 -0.38108017028E+03 -0.19854798056E+03  0.43006161353E+03  0.00000000000E+00 0. -1.
</event>
<event>
 7    1  0.2601031E-009  0.1726575E+03  0.7561462E-02  0.1175105E+00
         -2   -1    0    0    0  501 -0.00000000000E+00  0.00000000000E+00  0.15729731248E+03  0.15729731248E+03  0.00000000000E+00 0.  1.
          2   -1    0    0  501    0  0.00000000000E+00 -0.00000000000E+00 -0.28545968690E+03  0.28545968690E+03  0.00000000000E+00 0. -1.
         25    2    1    2    0    0  0.57802167076E+02  0.14855118750E+03  0.24319714019E+02  0.20407448551E+03  0.12508557600E+03 0.  0.
          5    1    3    3  502    0  0.48032590044E+02  0.52316983233E+02  0.67492530809E+02  0.98065848061E+02  0.41800000000E+01 0.  1.
         -5    1    3    3    0  502  0.97695770322E+01  0.96234204262E+02 -0.43172816790E+02  0.10600863745E+03  0.41800000000E+01 0.  1.
        -11    1    1    2    0    0 -0.77274881139E+02 -0.11481158290E+03 -0.90111805030E+02  0.16514612992E+03  0.00000000000E+00 0.  1.
         11    1    1    2    0    0  0.19472714064E+02 -0.33739604597E+02 -0.62370283407E+02  0.73536383945E+02  0.00000000000E+00 0. -1.
</event>
<event>
 7    1  0.2601031E-009  0.2130604E+03  0.7561462E-02  0.1139165E+00
          1   -1    0    0  501    0  0.00000000000E+00  0.00000000000E+00  0.14878677050E+03  0.14878677050E+03  0.00000000000E+00 0. -1.
         -1   -1    0    0    0  501 -0.00000000000E+00 -0.00000000000E+00 -0.55353286792E+03  0.55353286792E+03  0.00000000000E+00 0.  1.
         25    2    1    2    0    0 -0.11455007625E+03 -0.14867972898E+03 -0.43596081170E+03  0.49085272294E+03  0.12508870651E+03 0.  0.
          5    1    3    3  502    0 -0.23369786092E+02 -0.12104489578E+03 -0.18470688152E+03  0.22210834783E+03  0.41800000000E+01 0.  1.
         -5    1    3    3    0  502 -0.91180290163E+02 -0.27634833208E+02 -0.25125393018E+03  0.26874437511E+03  0.41800000000E+01 0.  1.
        -11    1    1    2    0    0  0.77672059857E+02  0.30235357931E+02 -0.78660697730E+00  0.83353131328E+02  0.00000000000E+00 0.  1.
         11    1    1    2    0    0  0.36878016398E+02  0.11844437105E+03  0.32001321266E+02  0.12811378415E+03  0.00000000000E+00 0. -1.
</event>
<event>
 7    1  0.2601031E-009  0.1122392E+03  0.7561462E-02  0.1256479E+00
         -1   -1    0    0    0  501 -0.00000000000E+00  0.00000000000E+00  0.84175399461E+02  0.84175399461E+02  0.00000000000E+00 0.  1.
          1   -1    0    0  501    0  0.00000000000E+00 -0.00000000000E+00 -0.39631359778E+03  0.39631359778E+03  0.00000000000E+00 0. -1.
         25    2    1    2    0    0  0.94030312521E+02  0.57119618342E+02 -0.38247402361E+02  0.17092434930E+03  0.12509164210E+03 0.  0.
          5    1    3    3  502    0  0.17708234435E+02 -0.13024669714E+01 -0.67855760616E+02  0.70264889069E+02  0.41800000000E+01 0. -1.
         -5    1    3    3    0  502  0.76322078086E+02  0.58422085314E+02  0.29608358255E+02  0.10065946023E+03  0.41800000000E+01 0. -1.
        -11    1    1    2    0    0 -0.73019733004E+02 -0.43602711016E+02 -0.27145171624E+03  0.28446284830E+03  0.00000000000E+00 0. -1.
         11    1    1    2    0    0 -0.21010579517E+02 -0.13516907326E+02 -0.24390797241E+01  0.25101799641E+02  0.00000000000E+00 0.  1.
</event>
<event>
 7    1  0.2601031E-009  0.1355691E+03  0.7561462E-02  0.1219419E+00
         -2   -1    0    0    0  501 -0.00000000000E+00  0.00000000000E+00  0.56086324703E+02  0.56086324703E+02  0.00000000000E+00 0. -1.
          2   -1    0    0  501    0  0.00000000000E+00 -0.00000000000E+00 -0.39816862715E+03  0.39816862715E+03  0.00000000000E+00 0.  1.
         25    2    1    2    0    0  0.67728983132E+02  0.72606212682E+02 -0.22456774265E+03  0.27556658485E+03  0.12508954540E+03 0.  0.
          5    1    3    3  502    0  0.20700772262E+02 -0.22925504237E+02 -0.12805980772E+03  0.13179866263E+03  0.41800000000E+01 0.  1.
         -5    1    3    3    0  502  0.47028210871E+02  0.95531716919E+02 -0.96507934933E+02  0.14376792222E+03  0.41800000000E+01 0. -1.
        -11    1    1    2    0    0 -0.89419671461E+02 -0.64480559105E+02 -0.10551948481E+03  0.15260400329E+03  0.00000000000E+00 0.  1.
         11    1    1    2    0    0  0.21690688328E+02 -0.81256535771E+01 -0.11995074981E+02  0.26084363707E+02  0.00000000000E+00 0. -1.
</event>
<event>
 7    1  0.2601031E-009  0.1197936E+03  0.7561462E-02  0.1243438E+00
         -1   -1    0    0    0  501 -0.00000000000E+00  0.00000000000E+00  0.53408184017E+02  0.53408184017E+02  0.00000000000E+00 0.  1.
          1   -1    0    0  501    0  0.00000000000E+00 -0.00000000000E+00 -0.48121355015E+03  0.48121355015E+03  0.00000000000E+00 0. -1.
         25    2    1    2    0    0 -0.86991757587E+02 -0.63025653365E+01 -0.10284396367E+03  0.18393177873E+03  0.12508689038E+03 0.  0.
          5    1    3    3  502    0 -0.61393613749E+02 -0.48194640249E+02 -0.10915875845E+03  0.13425723856E+03  0.41800000000E+01 0.  1.
         -5    1    3    3    0  502 -0.25598143838E+02  0.41892074912E+02  0.63147947836E+01  0.49674540175E+02  0.41800000000E+01 0.  1.
        -11    1    1    2    0    0  0.64975635791E+02 -0.28516241643E+02 -0.10387026157E+03  0.12579364262E+03  0.00000000000E+00 0.  1.
         11    1    1    2    0    0  0.22016121796E+02  0.34818806980E+02 -0.22109114089E+03  0.22489631282E+03  0.00000000000E+00 0. -1.
</event>
<event>
 7    1  0.2601031E-009  0.1135745E+03  0.7561462E-02  0.1254090E+00
          1   -1    0    0  501    0  0.00000000000E+00  0.00000000000E+00  0.25673434784E+03  0.25673434784E+03  0.00000000000E+00 0. -1.
         -1   -1    0    0    0  501 -0.00000000000E+00 -0.00000000000E+00 -0.70305834581E+02  0.70305834581E+02  0.00000000000E+00 0.  1.
         25    2    1    2    0    0 -0.18933876477E+02 -0.76208611966E+02  0.15299466344E+03  0.21265108577E+03  0.12508746149E+03 0.  0.
          5    1    3    3  502    0 -0.36277816531E+02  0.17819962539E+02  0.88097159636E+02  0.97016560303E+02  0.41800000000E+01 0. -1.
         -5    1    3    3    0  502  0.17343940054E+02 -0.94028574505E+02  0.64897503801E+02  0.11563452547E+03  0.41800000000E+01 0. -1.
        -11    1    1    2    0    0 -0.85274980728E+01  0.56170887077E+02  0.50801645227E+02  0.76214788172E+02  0.00000000000E+00 0. -1.
         11    1    1    2    0    0  0.27461374550E+02  0.20037724889E+02 -0.17367795403E+02  0.38174308481E+02  0.00000000000E+00 0.  1.
</event>
<event>
 7    1  0.2601031E-009  0.1113769E+03  0.7561462E-02  0.1258041E+00
         -1   -1    0    0    0  501 -0.00000000000E+00  0.00000000000E+00  0.17528377117E+03  0.17528377117E+03  0.00000000000E+00 0.  1.
          1   -1    0    0  501    0  0.00000000000E+00 -0.00000000000E+00 -0.10940764305E+03  0.10940764305E+03  0.00000000000E+00 0. -1.
         25    2    1    2    0    0 -0.15617545021E+02  0.80440444484E+02  0.85600074146E+01  0.14977679165E+03  0.12508093687E+03 0.  0.
          5    1    3    3  502    0  0.44626601350E+02  0.62155142133E+02  0.31203571700E+02  0.82740138558E+02  0.41800000000E+01 0.  1.
         -5    1    3    3    0  502 -0.60244146371E+02  0.18285302351E+02 -0.22643564285E+02  0.67036653091E+02  0.41800000000E+01 0.  1.
        -11    1    1    2    0    0  0.13769049244E+01 -0.42167882442E+02 -0.20596186258E+02  0.46949217940E+02  0.00000000000E+00 0. -1.
         11    1    1    2    0    0  0.14240640096E+02 -0.38272562042E+02  0.77912306963E+02  0.87965404631E+02  0.00000000000E+00 0.  1.
</event>
<event>
 7    1  0.2601031E-009  0.9735977E+02  0.7561462E-02  0.1285948E+00
          1   -1    0    0  501    0  0.00000000000E+00  0.00000000000E+00  0.51058770504E+03  0.51058770504E+03  0.00000000000E+00 0. -1.
         -1   -1    0    0    0  501 -0.00000000000E+00 -0.00000000000E+00 -0.28875494009E+02  0.28875494009E+02  0.00000000000E+00 0.  1.
         25    2    1    2    0    0  0.25835701844E+02 -0.46723794560E+02  0.30285015979E+03  0.33198222777E+03  0.12507351360E+03 0.  0.
          5    1    3    3  502    0  0.16078651103E+02 -0.68395523153E+02  0.29945201044E+03  0.30761249904E+03  0.41800000000E+01 0. -1.
         -5    1    3    3    0  502  0.97570507413E+01  0.21671728594E+02  0.33981493451E+01  0.24369728730E+02  0.41800000000E+01 0. -1.
        -11    1    1    2    0    0  0.90584634358E+01  0.61605994714E+02  0.78559885698E+02  0.10024475041E+03  0.00000000000E+00 0. -1.
         11    1    1    2    0    0 -0.34894165280E+02 -0.14882200154E+02  0.10030216555E+03  0.10723622086E+03  0.00000000000E+00 0.  1.
</event>
<event>
 7    1  0.2601031E-009  0.9810060E+02  0.7561462E-02  0.1284342E+00
          1   -1    0    0  501    0  0.00000000000E+00  0.00000000000E+00  0.14069170851E+03  0.14069170851E+03  0.00000000000E+00 0. -1.
         -1   -1    0    0    0  501 -0.00000000000E+00 -0.00000000000E+00 -0.93183371113E+02  0.93183371113E+02  0.00000000000E+00 0.  1.
         25    2    1    2    0    0  0.22394308408E+01  0.58906827189E-01  0.63084265485E+02  0.14011356753E+03  0.12508864350E+03 0.  0.
          5    1    3    3  502    0  0.59147776753E+02 -0.22342241467E+02  0.26173901281E+02  0.68557864296E+02  0.41800000000E+01 0. -1.
         -5    1    3    3    0  502 -0.56908345912E+02  0.22401148294E+02  0.36910364204E+02  0.71555703232E+02  0.41800000000E+01 0. -1.
        -11    1    1    2    0    0  0.27184045159E+02 -0.21886082438E+02 -0.37371135023E+02  0.51132911598E+02  0.00000000000E+00 0.  1.
         11    1    1    2    0    0 -0.29423475999E+02  0.21827175610E+02  0.21795206934E+02  0.42628600497E+02  0.00000000000E+00 0. -1.
</event>
<event>
 7    1  0.2601031E-009  0.1475940E+03  0.7561462E-02  0.1203461E+00
         -2   -1    0    0    0  501 -0.00000000000E+00  0.00000000000E+00  0.29801399059E+03  0.29801399059E+03  0.00000000000E+00 0. -1.
          2   -1    0    0  501    0  0.00000000000E+00 -0.00000000000E+00 -0.83834427039E+02  0.83834427039E+02  0.00000000000E+00 0.  1.
         25    2    1    2    0    0  0.11037578664E+03  0.12710515197E+02  0.83159909038E+02  0.18683481779E+03  0.12508919695E+03 0.  0.
          5    1    3    3  502    0  0.99785469852E+02 -0.31870328243E+02  0.16933544137E+02  0.10619357388E+03  0.41800000000E+01 0. -1.
         -5    1    3    3    0  502  0.10590316789E+02  0.44580843440E+02  0.66226364901E+02  0.80641243911E+02  0.41800000000E+01 0. -1.
        -11    1    1    2    0    0 -0.30059968699E+02 -0.47983229760E+02  0.47823374320E+02  0.74115229121E+02  0.00000000000E+00 0. -1.
         11    1    1    2    0    0 -0.80315817942E+02  0.35272714563E+02  0.83196280194E+02  0.12089837072E+03  0.00000000000E+00 0.  1.
</event>
<event>
 7    1  0.2601031E-009  0.1351540E+03  0.7561462E-02  0.1220002E+00
         -2   -1    0    0    0  501 -0.00000000000E+00  0.00000000000E+00  0.21341224521E+03  0.21341224521E+03  0.00000000000E+00 0.  1.
          2   -1    0    0  501    0  0.00000000000E+00 -0.00000000000E+00 -0.10244345697E+03  0.10244345697E+03  0.00000000000E+00 0. -1.
         25    2    1    2    0    0 -0.46936028441E+02 -0.79182539417E+02  0.17323504344E+02  0.15627023674E+03  0.12508963896E+03 0.  0.
          5    1    3    3  502    0 -0.93007262895E+01  0.26781376409E+02  0.31810364985E+02  0.42814919740E+02  0.41800000000E+01 0.  1.
         -5    1    3    3    0  502 -0.37635302151E+02 -0.10596391583E+03 -0.14486860641E+02  0.11345531700E+03  0.41800000000E+01 0.  1.
        -11    1    1    2    0    0  0.13330239466E+02  0.92145909535E+02  0.70258232591E+02  0.11663954379E+03  0.00000000000E+00 0.  1.
         11    1    1    2    0    0  0.33605788975E+02 -0.12963370118E+02  0.23387051301E+02  0.42945921645E+02  0.00000000000E+00 0. -1.
</event>
<event>
 7    1  0.2601031E-009  0.1211425E+03  0.7561462E-02  0.1241224E+00
         -2   -1    0    0    0  501 -0.00000000000E+00  0.00000000000E+00  0.19068901802E+03  0.19068901802E+03  0.00000000000E+00 0.  1.
          2   -1    0    0  501    0  0.00000000000E+00 -0.00000000000E+00 -0.99744600383E+02  0.99744600383E+02  0.00000000000E+00 0. -1.
         25    2    1    2    0    0  0.53805534864E+02 -0.50741235542E+02  0.91291792510E+02  0.17161696504E+03  0.12509389570E+03 0.  0.
          5    1    3    3  502    0  0.62771703063E+02 -0.87207923727E+02  0.68176446381E+02  0.12732246034E+03  0.41800000000E+01 0. -1.
         -5    1    3    3    0  502 -0.89661681991E+01  0.36466688186E+02  0.23115346129E+02  0.44294504694E+02  0.41800000000E+01 0. -1.
        -11    1    1    2    0    0 -0.42525713140E+02  0.65682960545E+02  0.29466651420E+02  0.83612027425E+02  0.00000000000E+00 0.  1.
         11    1    1    2    0    0 -0.11279821724E+02 -0.14941725004E+02 -0.29814026292E+02  0.35204625945E+02  0.00000000000E+00 0. -1.
</event>
<event>
 7    1  0.2601031E-009  0.1185380E+03  0.7561462E-02  0.1245529E+00
          2   -1    0    0  501    0  0.00000000000E+00  0.00000000000E+00  0.19662024326E+03  0.19662024326E+03  0.00000000000E+00 0. -1.
         -2   -1    0    0    0  501 -0.00000000000E+00 -0.00000000000E+00 -0.11465991189E+03  0.11465991189E+03  0.00000000000E+00 0.  1.
         25    2    1    2    0    0  0.86006860193E+02  0.27323337929E+02  0.56480315434E+01  0.15436104315E+03  0.12510670080E+03 0.  0.
          5    1    3    3  502    0  0.36748190456E+02  0.63802936313E+02 -0.34033937043E+02  0.81222074922E+02  0.41800000000E+01 0. -1.
         -5    1    3    3    0  502  0.49258669738E+02 -0.36479598384E+02  0.39681968586E+02  0.73138968228E+02  0.41800000000E+01 0. -1.
        -11    1    1    2    0    0 -0.16301618159E+02 -0.27749681291E+02  0.80895108151E+02  0.87062081810E+02  0.00000000000E+00 0. -1.
         11    1    1    2    0    0 -0.69705242034E+02  0.42634336184E+00 -0.45828083216E+01  0.69857030196E+02  0.00000000000E+00 0.  1.
</event>
<event>
 7    1  0.2601031E-009  0.4736877E+02  0.7561462E-02  0.1460073E+00
          1   -1    0    0  501    0  0.00000000000E+00  0.00000000000E+00  0.24985390505E+03  0.24985390505E+03  0.00000000000E+00 0. -1.
         -1   -1    0    0    0  501 -0.00000000000E+00 -0.00000000000E+00 -0.55947855829E+02  0.55947855829E+02  0.00000000000E+00 0.  1.
         25    2    1    2    0    0 -0.21546955135E+02  0.12402883136E+02  0.16015580799E+03  0.20473151646E+03  0.12508800188E+03 0.  0.
          5    1    3    3  502    0 -0.12521228663E+02  0.27532297282E+02 -0.11124615204E+02  0.32496738672E+02  0.41800000000E+01 0.  1.
         -5    1    3    3    0  502 -0.90257264714E+01 -0.15129414147E+02  0.17128042319E+03  0.17223477778E+03  0.41800000000E+01 0.  1.
        -11    1    1    2    0    0  0.43782474592E+01 -0.24632736363E+02 -0.26974576181E+02  0.36790875386E+02  0.00000000000E+00 0.  1.
         11    1    1    2    0    0  0.17168707676E+02  0.12229853227E+02  0.60724817420E+02  0.64279369038E+02  0.00000000000E+00 0. -1.
</event>
<event>
 7    1  0.2601031E-009  0.1398061E+03  0.7561462E-02  0.1213590E+00
          1   -1    0    0  501    0  0.00000000000E+00  0.00000000000E+00  0.10585693741E+03  0.10585693741E+03  0.00000000000E+00 0. -1.
         -1   -1    0    0    0  501 -0.00000000000E+00 -0.00000000000E+00 -0.31495719562E+03  0.31495719562E+03  0.00000000000E+00 0.  1.
         25    2    1    2    0    0 -0.12477612606E+03  0.34920077861E+02 -0.18935470393E+03  0.26132580258E+03  0.12508987858E+03 0.  0.
          5    1    3    3  502    0 -0.31231935415E+02  0.54778513004E+00 -0.15133027961E+03  0.15457703512E+03  0.41800000000E+01 0. -1.
         -5    1    3    3    0  502 -0.93544190641E+02  0.34372292731E+02 -0.38024424316E+02  0.10674876746E+03  0.41800000000E+01 0. -1.
        -11    1    1    2    0    0  0.56436640641E+02 -0.53252459453E+02 -0.38023331195E+02  0.86410025806E+02  0.00000000000E+00 0. -1.
         11    1    1    2    0    0  0.68339485415E+02  0.18332381592E+02  0.18277776914E+02  0.73078304650E+02  0.00000000000E+00 0.  1.
</event>
<event>
 7    1  0.2601031E-009  0.8878141E+02  0.7561462E-02  0.1305830E+00
          1   -1    0    0  501    0  0.00000000000E+00  0.00000000000E+00  0.10676020229E+03  0.10676020229E+03  0.00000000000E+00 0. -1.
         -1   -1    0    0    0  501 -0.00000000000E+00 -0.00000000000E+00 -0.12354037067E+03  0.12354037067E+03  0.00000000000E+00 0.  1.
         25    2    1    2    0    0  0.13838815217E+02 -0.61375713535E+01  0.25119713466E+02  0.12848654538E+03  0.12509440336E+03 0.  0.
          5    1    3    3  502    0  0.54708954150E+02  0.14262037438E+02 -0.23747218679E+02  0.61464446398E+02  0.41800000000E+01 0.  1.
         -5    1    3    3    0  502 -0.40870138933E+02 -0.20399608791E+02  0.48866932145E+02  0.67022098986E+02  0.41800000000E+01 0.  1.
        -11    1    1    2    0    0  0.29360280113E+02  0.11374430961E+02 -0.48476373411E+02  0.57804519781E+02  0.00000000000E+00 0.  1.
         11    1    1    2    0    0 -0.43199095330E+02 -0.52368596080E+01  0.65764915650E+01  0.44009507805E+02  0.00000000000E+00 0. -1.
</event>
<event>
 7    1  0.2601031E-009  0.1120593E+03  0.7561462E-02  0.1256803E+00
         -2   -1    0    0    0  501 -0.00000000000E+00  0.00000000000E+00  0.50324109662E+02  0.50324109662E+02  0.00000000000E+00 0.  1.
          2   -1    0    0  501    0  0.00000000000E+00 -0.00000000000E+00 -0.60487633713E+03  0.60487633713E+03  0.00000000000E+00 0. -1.
         25    2    1    2    0    0 -0.10822269843E+02 -0.53846853946E+02 -0.60627526202E+02  0.14946394987E+03  0.12508864925E+03 0.  0.
          5    1    3    3  502    0  0.49451951813E+02 -0.35659139886E+02 -0.61028405971E+02  0.86365551760E+02  0.41800000000E+01 0. -1.
         -5    1    3    3    0  502 -0.60274221656E+02 -0.18187714060E+02  0.40087976887E+00  0.63098398106E+02  0.41800000000E+01 0. -1.
        -11    1    1    2    0    0  0.22050161965E+02  0.73795400257E+02 -0.44628806756E+03  0.45288520619E+03  0.00000000000E+00 0. -1.
         11    1    1    2    0    0 -0.11227892121E+02 -0.19948546311E+02 -0.47636633710E+02  0.52851290737E+02  0.00000000000E+00 0.  1.
</event>
<event>
 7    1  0.2601031E-009  0.1074971E+03  0.7561462E-02  0.1265276E+00
         -2   -1    0    0    0  501 -0.00000000000E+00  0.00000000000E+00  0.29800126647E+02  0.29800126647E+02  0.00000000000E+00 0.  1.
          2   -1    0    0  501    0  0.00000000000E+00 -0.00000000000E+00 -0.52996362366E+03  0.52996362366E+03  0.00000000000E+00 0. -1.
         25    2    1    2    0    0  0.62417668684E+00 -0.64157493753E+02 -0.24375438424E+03  0.28138797316E+03  0.12508564268E+03 0.  0.
          5    1    3    3  502    0  0.33563789125E+02  0.13525051260E+02 -0.15350335526E+03  0.15776630638E+03  0.41800000000E+01 0. -1.
         -5    1    3    3    0  502 -0.32939612438E+02 -0.77682545013E+02 -0.90251028972E+02  0.12362166678E+03  0.41800000000E+01 0. -1.
        -11    1    1    2    0    0 -0.19617084213E+02  0.71181999431E+02 -0.24328970545E+03  0.25424709992E+03  0.00000000000E+00 0. -1.
         11    1    1    2    0    0  0.18992907526E+02 -0.70245056779E+01 -0.13119407326E+02  0.24128677231E+02  0.00000000000E+00 0.  1.
</event>
<event>
 7    1  0.2601031E-009  0.5341908E+02  0.7561462E-02  0.1427727E+00
          2   -1    0    0  501    0  0.00000000000E+00  0.00000000000E+00  0.35495525693E+03  0.35495525693E+03  0.00000000000E+00 0. -1.
         -2   -1    0    0    0  501 -0.00000000000E+00 -0.00000000000E+00 -0.49001024733E+02  0.49001024733E+02  0.00000000000E+00 0.  1.
         25    2    1    2    0    0  0.41045939430E+02  0.11350245836E+02  0.26589653021E+03  0.29692210191E+03  0.12509265606E+03 0.  0.
          5    1    3    3  502    0  0.44333110440E+02  0.90677119439E+01  0.17874471502E+02  0.48832542558E+02  0.41800000000E+01 0. -1.
         -5    1    3    3    0  502 -0.32871710097E+01  0.22825338921E+01  0.24802205871E+03  0.24808955935E+03  0.41800000000E+01 0. -1.
        -11    1    1    2    0    0 -0.16262382495E+02  0.13032941418E+02  0.62345418993E+02  0.65736397192E+02  0.00000000000E+00 0. -1.
         11    1    1    2    0    0 -0.24783556935E+02 -0.24383187254E+02 -0.22287717006E+02  0.41297782560E+02  0.00000000000E+00 0.  1.
</event>
<event>
 7    1  0.2601031E-009  0.1115448E+03  0.7561462E-02  0.1257736E+00
         -2   -1    0    0    0  501 -0.00000000000E+00  0.00000000000E+00  0.54402393057E+02  0.54402393057E+02  0.00000000000E+00 0.  1.
          2   -1    0    0  501    0  0.00000000000E+00 -0.00000000000E+00 -0.33881526316E+03  0.33881526316E+03  0.00000000000E+00 0. -1.
         25    2    1    2    0    0  0.94684188062E+01 -0.61896904296E+02 -0.82389486316E+02  0.16234827602E+03  0.12509219621E+03 0.  0.
          5    1    3    3  502    0  0.57079236844E+02 -0.20142518198E+02 -0.30512791855E+01  0.60749839693E+02  0.41800000000E+01 0.  1.
         -5    1    3    3    0  502 -0.47610818038E+02 -0.41754386099E+02 -0.79338207130E+02  0.10159843632E+03  0.41800000000E+01 0.  1.
        -11    1    1    2    0    0 -0.43313306417E+02  0.36418721229E+02 -0.16559631524E+03  0.17499858683E+03  0.00000000000E+00 0.  1.
         11    1    1    2    0    0  0.33844887611E+02  0.25478183067E+02 -0.36427068544E+02  0.55870793377E+02  0.00000000000E+00 0. -1.
</event>
<event>
 7    1  0.2601031E-009  0.1706240E+03  0.7561462E-02  0.1177199E+00
         -2   -1    0    0    0  501 -0.00000000000E+00  0.00000000000E+00  0.47100790942E+02  0.47100790942E+02  0.00000000000E+00 0. -1.
          2   -1    0    0  501    0  0.00000000000E+00 -0.00000000000E+00 -0.80453938760E+03  0.80453938760E+03  0.00000000000E+00 0.  1.
         25    2    1    2    0    0  0.19284226139E+02  0.15907820146E+03 -0.39909679561E+03  0.44788743315E+03  0.12508854843E+03 0.  0.
          5    1    3    3  502    0 -0.27849574297E+02  0.10589484906E+03 -0.13244333600E+03  0.17189539696E+03  0.41800000000E+01 0. -1.
         -5    1    3    3    0  502  0.47133800436E+02  0.53183352401E+02 -0.26665345961E+03  0.27599203619E+03  0.41800000000E+01 0. -1.
        -11    1    1    2    0    0 -0.11722567591E+02 -0.60972280890E+02 -0.48869603160E+02  0.79014402111E+02  0.00000000000E+00 0. -1.
         11    1    1    2    0    0 -0.75616585474E+01 -0.98105920572E+02 -0.30947219788E+03  0.32473834328E+03  0.00000000000E+00 0.  1.
</event>
<event>
 7    1  0.2601031E-009  0.1121553E+03  0.7561462E-02  0.1256630E+00
          2   -1    0    0  501    0  0.00000000000E+00  0.00000000000E+00  0.32224672643E+03  0.32224672643E+03  0.00000000000E+00 0.  1.
         -2   -1    0    0    0  501 -0.00000000000E+00 -0.00000000000E+00 -0.52092908376E+02  0.52092908376E+02  0.00000000000E+00 0. -1.
         25    2    1    2    0    0  0.38032475220E+02 -0.56864326465E+02  0.12867070949E+03  0.19205195132E+03  0.12509108573E+03 0.  0.
          5    1    3    3  502    0 -0.39292245276E+02 -0.54219004300E+01  0.96663061924E+01  0.41038852549E+02  0.41800000000E+01 0. -1.
         -5    1    3    3    0  502  0.77324720496E+02 -0.51442426036E+02  0.11900440329E+03  0.15101309877E+03  0.41800000000E+01 0. -1.
        -11    1    1    2    0    0 -0.28741326206E+02 -0.47647487192E+01  0.10733874752E+03  0.11122218026E+03  0.00000000000E+00 0.  1.
         11    1    1    2    0    0 -0.92911490143E+01  0.61629075185E+02  0.34144361050E+02  0.71065503232E+02  0.00000000000E+00 0. -1.
</event>
<event>
 7    1  0.2601031E-009  0.1062734E+03  0.7561462E-02  0.1267631E+00
          1   -1    0    0  501    0  0.00000000000E+00  0.00000000000E+00  0.43495742463E+03  0.43495742463E+03  0.00000000000E+00 0.  1.
         -1   -1    0    0    0  501 -0.00000000000E+00 -0.00000000000E+00 -0.29649378419E+02  0.29649378419E+02  0.00000000000E+00 0. -1.
         25    2    1    2    0    0 -0.54862968177E+00  0.31638825449E+02  0.21531450662E+03  0.25101699340E+03  0.12509147831E+03 0.  0.
          5    1    3    3  502    0  0.14961980676E+02 -0.42211595078E+02  0.12726478373E+03  0.13497954364E+03  0.41800000000E+01 0. -1.
         -5    1    3    3    0  502 -0.15510610358E+02  0.73850420526E+02  0.88049722895E+02  0.11603744976E+03  0.41800000000E+01 0. -1.
        -11    1    1    2    0    0 -0.41621622952E+02 -0.26891888231E+02  0.65976961666E+02  0.82513590520E+02  0.00000000000E+00 0.  1.
         11    1    1    2    0    0  0.42170252634E+02 -0.47469372176E+01  0.12401657792E+03  0.13107621912E+03  0.00000000000E+00 0. -1.
</event>
<event>
 7    1  0.2601031E-009  0.1125136E+03  0.7561462E-02  0.1255985E+00
          2   -1    0    0  501    0  0.00000000000E+00  0.00000000000E+00  0.45517137057E+03  0.45517137057E+03  0.00000000000E+00 0. -1.
         -2   -1    0    0    0  501 -0.00000000000E+00 -0.00000000000E+00 -0.47852924546E+02  0.47852924546E+02  0.00000000000E+00 0.  1.
         25    2    1    2    0    0 -0.57618731121E+02 -0.40987863988E+02  0.95382575782E+02  0.17246963138E+03  0.12509202538E+03 0.  0.
          5    1    3    3  502    0  0.21908474359E+02 -0.29408700431E+02 -0.11517300880E+02  0.38664887551E+02  0.41800000000E+01 0. -1.
         -5    1    3    3    0  502 -0.79527205481E+02 -0.11579163557E+02  0.10689987666E+03  0.13380474383E+03  0.41800000000E+01 0. -1.
        -11    1    1    2    0    0  0.32203112972E+02 -0.22481550818E+02  0.14335586361E+03  0.14863836733E+03  0.00000000000E+00 0. -1.
         11    1    1    2    0    0  0.25415618150E+02  0.63469414806E+02  0.16858000664E+03  0.18191629641E+03  0.00000000000E+00 0.  1.
</event>
<event>
 7    1  0.2601031E-009  0.1126729E+03  0.7561462E-02  0.1255699E+00
          1   -1    0    0  501    0  0.00000000000E+00  0.00000000000E+00  0.37123970512E+03  0.37123970512E+03  0.00000000000E+00 0. -1.
         -1   -1    0    0    0  501 -0.00000000000E+00 -0.00000000000E+00 -0.39578337825E+02  0.39578337825E+02  0.00000000000E+00 0.  1.
         25    2    1    2    0    0 -0.24878386143E+02 -0.39566678878E+02  0.13519093334E+03  0.19001394625E+03  0.12507699683E+03 0.  0.
          5    1    3    3  502    0  0.46564103509E+02 -0.37413397900E+02  0.78268365074E+02  0.98546372076E+02  0.41800000000E+01 0.  1.
         -5    1    3    3    0  502 -0.71442489652E+02 -0.21532809777E+01  0.56922568267E+02  0.91467574172E+02  0.41800000000E+01 0.  1.
        -11    1    1    2    0    0  0.48906727621E+02  0.15927532198E+01  0.61755484253E+02  0.78791780692E+02  0.00000000000E+00 0.  1.
         11    1    1    2    0    0 -0.24028341478E+02  0.37973925658E+02  0.13471494970E+03  0.14201231600E+03  0.00000000000E+00 0. -1.
</event>
<event>
 7    1  0.2601031E-009  0.1085918E+03  0.7561462E-02  0.1263200E+00
          1   -1    0    0  501    0  0.00000000000E+00  0.00000000000E+00  0.43061517660E+03  0.43061517660E+03  0.00000000000E+00 0. -1.
         -1   -1    0    0    0  501 -0.00000000000E+00 -0.00000000000E+00 -0.30664032669E+02  0.30664032669E+02  0.00000000000E+00 0.  1.
         25    2    1    2    0    0  0.35254811747E+02  0.17932192520E+02  0.23507417140E+03  0.26920563663E+03  0.12508934190E+03 0.  0.
          5    1    3    3  502    0  0.10456415371E+02 -0.53868955171E+02  0.93982455146E+02  0.10890994091E+03  0.41800000000E+01 0. -1.
         -5    1    3    3    0  502  0.24798396376E+02  0.71801147691E+02  0.14109171625E+03  0.16029569572E+03  0.41800000000E+01 0. -1.
        -11    1    1    2    0    0  0.12872937073E+02 -0.33177812831E+02  0.11775185019E+03  0.12301210508E+03  0.00000000000E+00 0. -1.
         11    1    1    2    0    0 -0.48127748819E+02  0.15245620311E+02  0.47125122344E+02  0.69061467556E+02  0.00000000000E+00 0.  1.
</event>
<event>
 7    1  0.2601031E-009  0.1235321E+03  0.7561462E-02  0.1237381E+00
          2   -1    0    0  501    0  0.00000000000E+00  0.00000000000E+00  0.24133989291E+03  0.24133989291E+03  0.00000000000E+00 0. -1.
         -2   -1    0    0    0  501 -0.00000000000E+00 -0.00000000000E+00 -0.92560601219E+02  0.92560601219E+02  0.00000000000E+00 0.  1.
         25    2    1    2    0    0  0.74632837459E+02  0.12949147655E+02  0.37034049152E+01  0.14628132509E+03  0.12508704973E+03 0.  0.
          5    1    3    3  502    0 -0.13263953094E+02  0.35013740039E+02  0.33886182612E+02  0.50671887819E+02  0.41800000000E+01 0. -1.
         -5    1    3    3    0  502  0.87896790553E+02 -0.22064592384E+02 -0.30182777697E+02  0.95609437275E+02  0.41800000000E+01 0. -1.
        -11    1    1    2    0    0 -0.12938735746E+02 -0.46622077054E+02  0.52665386750E+02  0.71516934450E+02  0.00000000000E+00 0.  1.
         11    1    1    2    0    0 -0.61694101713E+02  0.33672929399E+02  0.92410500025E+02  0.11610223458E+03  0.00000000000E+00 0. -1.
</event>
<event>
 7    1  0.2601031E-009  0.1423071E+03  0.7561462E-02  0.1210258E+00
         -3   -1    0    0    0  501 -0.00000000000E+00  0.00000000000E+00  0.44650984551E+03  0.44650984551E+03  0.00000000000E+00 0.  1.
          3   -1    0    0  501    0  0.00000000000E+00 -0.00000000000E+00 -0.60147692046E+02  0.60147692046E+02  0.00000000000E+00 0. -1.
         25    2    1    2    0    0  0.67774588334E+02  0.76213042556E+02  0.94361714472E+02  0.18695775382E+03  0.12508895185E+03 0.  0.
          5    1    3    3  502    0 -0.10080722262E+02 -0.24871540103E+02 -0.16685914617E+01  0.27211598003E+02  0.41800000000E+01 0. -1.
         -5    1    3    3    0  502  0.77855310596E+02  0.10108458266E+03  0.96030305934E+02  0.15974615581E+03  0.41800000000E+01 0. -1.
        -11    1    1    2    0    0 -0.29369188486E+02 -0.85396708733E+02  0.21398208588E+03  0.23225735763E+03  0.00000000000E+00 0. -1.
         11    1    1    2    0    0 -0.38405399848E+02  0.91836661774E+01  0.78018353111E+02  0.87442426111E+02  0.00000000000E+00 0.  1.
</event>
<event>
 7    1  0.2601031E-009  0.1148867E+03  0.7561462E-02  0.1251779E+00
         -3   -1    0    0    0  501 -0.00000000000E+00  0.00000000000E+00  0.16971529839E+02  0.16971529839E+02  0.00000000000E+00 0.  1.
          3   -1    0    0  501    0  0.00000000000E+00 -0.00000000000E+00 -0.10143362003E+04  0.10143362003E+04  0.00000000000E+00 0. -1.
         25    2    1    2    0    0  0.41068201258E+02 -0.39431271173E+02 -0.69819309387E+03  0.71159000745E+03  0.12508125389E+03 0.  0.
          5    1    3    3  502    0  0.62756671318E+02 -0.73388015051E+02 -0.47114797318E+03  0.48095954672E+03  0.41800000000E+01 0. -1.
         -5    1    3    3    0  502 -0.21688470060E+02  0.33956743878E+02 -0.22704512068E+03  0.23063046072E+03  0.41800000000E+01 0. -1.
        -11    1    1    2    0    0 -0.36438925148E+01 -0.21118674315E+02 -0.13539015998E+02  0.25349187594E+02  0.00000000000E+00 0.  1.
         11    1    1    2    0    0 -0.37424308743E+02  0.60549945488E+02 -0.28563256059E+03  0.29436853509E+03  0.00000000000E+00 0. -1.
</event>
<event>
 7    1  0.2601031E-009  0.9417527E+02  0.7561462E-02  0.1293044E+00
         -2   -1    0    0    0  501 -0.00000000000E+00  0.00000000000E+00  0.68600683987E+03  0.68600683987E+03  0.00000000000E+00 0.  1.
          2   -1    0    0  501    0  0.00000000000E+00 -0.00000000000E+00 -0.21518356315E+02  0.21518356315E+02  0.00000000000E+00 0. -1.
         25    2    1    2    0    0  0.52648768721E+02  0.17510290574E+02  0.39099545485E+03  0.41425021366E+03  0.12508913097E+03 0.  0.
          5    1    3    3  502    0  0.36107341645E+02 -0.20783139424E+02  0.31699383198E+02  0.52516685921E+02  0.41800000000E+01 0. -1.
         -5    1    3    3    0  502  0.16541427076E+02  0.38293429998E+02  0.35929607165E+03  0.36173352774E+03  0.41800000000E+01 0. -1.
        -11    1    1    2    0    0 -0.42346861902E+02 -0.52863869559E+02  0.15402071236E+03  0.16825642708E+03  0.00000000000E+00 0.  1.
         11    1    1    2    0    0 -0.10301906819E+02  0.35353578985E+02  0.11947231635E+03  0.12501855544E+03  0.00000000000E+00 0. -1.
</event>
<event>
 7    1  0.2601031E-009  0.1141573E+03  0.7561462E-02  0.1253059E+00
          3   -1    0    0  501    0  0.00000000000E+00  0.00000000000E+00  0.65890548645E+02  0.65890548645E+02  0.00000000000E+00 0. -1.
         -3   -1    0    0    0  501 -0.00000000000E+00 -0.00000000000E+00 -0.26139695428E+03  0.26139695428E+03  0.00000000000E+00 0.  1.
         25    2    1    2    0    0 -0.12538187838E+02  0.72883620108E+02 -0.98834488669E+02  0.17574512842E+03  0.12509542669E+03 0.  0.
          5    1    3    3  502    0  0.34054990684E+02  0.75307321836E+02 -0.21786396720E+02  0.85574847909E+02  0.41800000000E+01 0. -1.
         -5    1    3    3    0  502 -0.46593178522E+02 -0.24237017282E+01 -0.77048091949E+02  0.90170280513E+02  0.41800000000E+01 0. -1.
        -11    1    1    2    0    0 -0.26511965932E+02 -0.21240063779E+02  0.14300574681E+01  0.34001025150E+02  0.00000000000E+00 0. -1.
         11    1    1    2    0    0  0.39050153770E+02 -0.51643556329E+02 -0.98101974434E+02  0.11754134935E+03  0.00000000000E+00 0.  1.
</event>
<event>
 7    1  0.2601031E-009  0.8392979E+02  0.7561462E-02  0.1318255E+00
         -1   -1    0    0    0  501 -0.00000000000E+00  0.00000000000E+00  0.25005456105E+03  0.25005456105E+03  0.00000000000E+00 0.  1.
          1   -1    0    0  501    0  0.00000000000E+00 -0.00000000000E+00 -0.94703758284E+02  0.94703758284E+02  0.00000000000E+00 0. -1.
         25    2    1    2    0    0 -0.58987755736E+02 -0.60116297050E+01  0.19063123272E+03  0.23559414202E+03  0.12509451566E+03 0.  0.
          5    1    3    3  502    0 -0.12214479625E+02  0.33407933772E+02  0.16550131448E+03  0.16933233905E+03  0.41800000000E+01 0. -1.
         -5    1    3    3    0  502 -0.46773276111E+02 -0.39419563477E+02  0.25129918231E+02  0.66261802973E+02  0.41800000000E+01 0. -1.
        -11    1    1    2    0    0  0.18482981238E+02 -0.16164511778E+02  0.23788062363E+02  0.34187482321E+02  0.00000000000E+00 0.  1.
         11    1    1    2    0    0  0.40504774498E+02  0.22176141483E+02 -0.59068492311E+02  0.74976694993E+02  0.00000000000E+00 0. -1.
</event>
<event>
 7    1  0.2601031E-009  0.1081068E+03  0.7561462E-02  0.1264117E+00
          1   -1    0    0  501    0  0.00000000000E+00  0.00000000000E+00  0.13408502590E+04  0.13408502590E+04  0.00000000000E+00 0. -1.
         -1   -1    0    0    0  501 -0.00000000000E+00 -0.00000000000E+00 -0.11616152548E+02  0.11616152548E+02  0.00000000000E+00 0.  1.
         25    2    1    2    0    0 -0.61115022823E+02  0.13361238046E+02  0.74649264532E+03  0.75948235088E+03  0.12509437670E+03 0.  0.
          5    1    3    3  502    0 -0.64451609186E+02 -0.23953671775E+02  0.67637651107E+03  0.67987531611E+03  0.41800000000E+01 0.  1.
         -5    1    3    3    0  502  0.33365863626E+01  0.37314909822E+02  0.70116134244E+02  0.79607034770E+02  0.41800000000E+01 0.  1.
        -11    1    1    2    0    0  0.35749514097E+02  0.38107655843E+02  0.26470313880E+03  0.26981099474E+03  0.00000000000E+00 0.  1.
         11    1    1    2    0    0  0.25365508727E+02 -0.51468893889E+02  0.31803832234E+03  0.32317306594E+03  0.00000000000E+00 0. -1.
</event>
<event>
 7    1  0.2601031E-009  0.2285664E+03  0.7561462E-02  0.1127653E+00
          1   -1    0    0  501    0  0.00000000000E+00  0.00000000000E+00  0.57015963479E+03  0.57015963479E+03  0.00000000000E+00 0. -1.
         -1   -1    0    0    0  501 -0.00000000000E+00 -0.00000000000E+00 -0.10007299951E+03  0.10007299951E+03  0.00000000000E+00 0.  1.
         25    2    1    2    0    0  0.11466638318E+03 -0.17853454410E+03  0.25120752448E+03  0.35181726627E+03  0.12508879097E+03 0.  0.
          5    1    3    3  502    0 -0.78861957269E+00 -0.64472049849E+02  0.14241315990E+03  0.15638493420E+03  0.41800000000E+01 0. -1.
         -5    1    3    3    0  502  0.11545500275E+03 -0.11406249425E+03  0.10879436457E+03  0.19543233207E+03  0.41800000000E+01 0. -1.
        -11    1    1    2    0    0 -0.50249203201E+02  0.12072724162E+02  0.62607355907E+02  0.81181365501E+02  0.00000000000E+00 0.  1.
         11    1    1    2    0    0 -0.64417179978E+02  0.16646181994E+03  0.15627175490E+03  0.23723400252E+03  0.00000000000E+00 0. -1.
</event>
<event>
 7    1  0.2601031E-009  0.1302882E+03  0.7561462E-02  0.1227029E+00
          1   -1    0    0  501    0  0.00000000000E+00  0.00000000000E+00  0.20672227534E+03  0.20672227534E+03  0.00000000000E+00 0. -1.
         -1   -1    0    0    0  501 -0.00000000000E+00 -0.00000000000E+00 -0.10206925278E+03  0.10206925278E+03  0.00000000000E+00 0.  1.
         25    2    1    2    0    0 -0.94694120000E+02 -0.70006918903E+01  0.59587814115E+02  0.16797313124E+03  0.12509308205E+03 0.  0.
          5    1    3    3  502    0 -0.61445692535E+02 -0.47067124241E+02  0.80460879758E+02  0.11172427170E+03  0.41800000000E+01 0. -1.
         -5    1    3    3    0  502 -0.33248427466E+02  0.40066432351E+02 -0.20873065643E+02  0.56248859540E+02  0.41800000000E+01 0. -1.
        -11    1    1    2    0    0 -0.17359186580E+02 -0.51830279168E+01  0.16586568030E+02  0.24562560455E+02  0.00000000000E+00 0. -1.
         11    1    1    2    0    0  0.11205330658E+03  0.12183719807E+02  0.28478640413E+02  0.11625583643E+03  0.00000000000E+00 0.  1.
</event>
<event>
 7    1  0.2601031E-009  0.1205758E+03  0.7561462E-02  0.1242150E+00
         -2   -1    0    0    0  501 -0.00000000000E+00  0.00000000000E+00  0.19006917243E+03  0.19006917243E+03  0.00000000000E+00 0.  1.
          2   -1    0    0  501    0  0.00000000000E+00 -0.00000000000E+00 -0.83278466407E+02  0.83278466407E+02  0.00000000000E+00 0. -1.
         25    2    1    2    0    0  0.61476405909E+02 -0.78780577419E+01  0.70596139442E+02  0.15643959902E+03  0.12509244965E+03 0.  0.
          5    1    3    3  502    0  0.29994352969E+02  0.54808310637E+02  0.95261449290E+01  0.63339024007E+02  0.41800000000E+01 0.  1.
         -5    1    3    3    0  502  0.31482052941E+02 -0.62686368379E+02  0.61069994513E+02  0.93100575013E+02  0.41800000000E+01 0.  1.
        -11    1    1    2    0    0  0.16713856995E+02 -0.19254519232E+02  0.20392794376E+02  0.32648975313E+02  0.00000000000E+00 0.  1.
         11    1    1    2    0    0 -0.78190262904E+02  0.27132576974E+02  0.15801772203E+02  0.84259064504E+02  0.00000000000E+00 0. -1.
</event>
<event>
 7    1  0.2601031E-009  0.1492318E+03  0.7561462E-02  0.1201420E+00
         -1   -1    0    0    0  501 -0.00000000000E+00  0.00000000000E+00  0.95604084381E+02  0.95604084381E+02  0.00000000000E+00 0.  1.
          1   -1    0    0  501    0  0.00000000000E+00 -0.00000000000E+00 -0.25450757553E+03  0.25450757553E+03  0.00000000000E+00 0. -1.
         25    2    1    2    0    0  0.95282549261E+02  0.59168483203E+02 -0.93542567300E+02  0.19229379075E+03  0.12508803486E+03 0.  0.
          5    1    3    3  502    0 -0.52078512198E+01 -0.29754209076E+02 -0.33281299730E+02  0.45139251032E+02  0.41800000000E+01 0. -1.
         -5    1    3    3    0  502  0.10049040048E+03  0.88922692278E+02 -0.60261267571E+02  0.14715453972E+03  0.41800000000E+01 0. -1.
        -11    1    1    2    0    0 -0.89364437371E+02 -0.16788108754E+02 -0.15715802610E+02  0.92275834940E+02  0.00000000000E+00 0.  1.
         11    1    1    2    0    0 -0.59181118892E+01 -0.42380374449E+02 -0.49645121234E+02  0.65542034215E+02  0.00000000000E+00 0. -1.
</event>
<event>
 7    1  0.2601031E-009  0.2630370E+03  0.7561462E-02  0.1105332E+00
          1   -1    0    0  501    0  0.00000000000E+00  0.00000000000E+00  0.80786977209E+03  0.80786977209E+03  0.00000000000E+00 0. -1.
         -1   -1    0    0    0  501 -0.00000000000E+00 -0.00000000000E+00 -0.18172943254E+03  0.18172943254E+03  0.00000000000E+00 0.  1.
         25    2    1    2    0    0 -0.53876343442E+02 -0.23867090841E+03 -0.36799849780E+02  0.27725140651E+03  0.12509056945E+03 0.  0.
          5    1    3    3  502    0 -0.19703263455E+02 -0.22892248293E+03 -0.57538791162E+01  0.22987888400E+03  0.41800000000E+01 0.  1.
         -5    1    3    3    0  502 -0.34173079987E+02 -0.97484254757E+01 -0.31045970664E+02  0.47372522516E+02  0.41800000000E+01 0.  1.
        -11    1    1    2    0    0  0.78098719289E+02  0.15785913884E+03  0.46065281000E+03  0.49317332554E+03  0.00000000000E+00 0. -1.
         11    1    1    2    0    0 -0.24222375846E+02  0.80811769571E+02  0.20228737933E+03  0.21917447258E+03  0.00000000000E+00 0.  1.
</event>
<event>
 7    1  0.2601031E-009  0.9868605E+02  0.7561462E-02  0.1283084E+00
          1   -1    0    0  501    0  0.00000000000E+00  0.00000000000E+00  0.79166159303E+02  0.79166159303E+02  0.00000000000E+00 0. -1.
         -1   -1    0    0    0  501 -0.00000000000E+00 -0.00000000000E+00 -0.24153350639E+03  0.24153350639E+03  0.00000000000E+00 0.  1.
         25    2    1    2    0    0  0.45378890708E+02  0.68422394113E+02 -0.92038016663E+02  0.17566998445E+03  0.12509228268E+03 0.  0.
          5    1    3    3  502    0  0.74156445250E+01  0.16148202663E+02 -0.10755766083E+03  0.10909573336E+03  0.41800000000E+01 0. -1.
         -5    1    3    3    0  502  0.37963246183E+02  0.52274191450E+02  0.15519644172E+02  0.66574251086E+02  0.41800000000E+01 0. -1.
        -11    1    1    2    0    0  0.10108155765E+02 -0.56792166452E+02 -0.40721517552E+01  0.57828257826E+02  0.00000000000E+00 0. -1.
         11    1    1    2    0    0 -0.55487046473E+02 -0.11630227660E+02 -0.66257178670E+02  0.87201423423E+02  0.00000000000E+00 0.  1.
</event>
<event>
 7    1  0.2601031E-009  0.1237687E+03  0.7561462E-02  0.1237006E+00
          1   -1    0    0  501    0  0.00000000000E+00  0.00000000000E+00  0.69377164517E+02  0.69377164517E+02  0.00000000000E+00 0. -1.
         -1   -1    0    0    0  501 -0.00000000000E+00 -0.00000000000E+00 -0.25096660552E+03  0.25096660552E+03  0.00000000000E+00 0.  1.
         25    2    1    2    0    0  0.61267927214E+02 -0.36721254810E+01 -0.79685505893E+02  0.16051378286E+03  0.12509057209E+03 0.  0.
          5    1    3    3  502    0 -0.22264294690E+02  0.39227664410E+02 -0.27750807374E+02  0.53123329932E+02  0.41800000000E+01 0. -1.
         -5    1    3    3    0  502  0.83532221904E+02 -0.42899789891E+02 -0.51934698520E+02  0.10739045292E+03  0.41800000000E+01 0. -1.
        -11    1    1    2    0    0 -0.83498322291E+02 -0.65870239139E+01 -0.10590360006E+03  0.13502196567E+03  0.00000000000E+00 0.  1.
         11    1    1    2    0    0  0.22230395077E+02  0.10259149395E+02  0.39996649444E+01  0.24808021510E+02  0.00000000000E+00 0. -1.
</event>
<event>
 7    1  0.2601031E-009  0.1003650E+03  0.7561462E-02  0.1279530E+00
          1   -1    0    0  501    0  0.00000000000E+00  0.00000000000E+00  0.40786025277E+02  0.40786025277E+02  0.00000000000E+00 0. -1.
         -1   -1    0    0    0  501 -0.00000000000E+00 -0.00000000000E+00 -0.41816012872E+03  0.41816012872E+03  0.00000000000E+00 0.  1.
         25    2    1    2    0    0  0.33757639991E+02  0.22157431139E+02 -0.30798994923E+03  0.33486672755E+03  0.12508951347E+03 0.  0.
          5    1    3    3  502    0 -0.84394746743E+01  0.58216727108E+02 -0.75480180372E+02  0.95786961936E+02  0.41800000000E+01 0. -1.
         -5    1    3    3    0  502  0.42197114666E+02 -0.36059295969E+02 -0.23250976886E+03  0.23907976562E+03  0.41800000000E+01 0. -1.
        -11    1    1    2    0    0  0.27452626379E+01  0.25732300643E+02 -0.57006138342E+02  0.62605012355E+02  0.00000000000E+00 0.  1.
         11    1    1    2    0    0 -0.36502902629E+02 -0.47889731782E+02 -0.12378015867E+02  0.61474414087E+02  0.00000000000E+00 0. -1.
</event>
<event>
 7    1  0.2601031E-009  0.2242873E+03  0.7561462E-02  0.1130726E+00
         -2   -1    0    0    0  501 -0.00000000000E+00  0.00000000000E+00  0.46141135147E+03  0.46141135147E+03  0.00000000000E+00 0. -1.
          2   -1    0    0  501    0  0.00000000000E+00 -0.00000000000E+00 -0.26358580137E+03  0.26358580137E+03  0.00000000000E+00 0.  1.
         25    2    1    2    0    0  0.18381316063E+03  0.93474800119E+02 -0.16869097721E+03  0.29432484636E+03  0.12508258519E+03 0.  0.
          5    1    3    3  502    0  0.11328162644E+03  0.11919851678E+03 -0.10016594107E+03  0.19259205966E+03  0.41800000000E+01 0.  1.
         -5    1    3    3    0  502  0.70531534185E+02 -0.25723716662E+02 -0.68525036140E+02  0.10173278671E+03  0.41800000000E+01 0.  1.
        -11    1    1    2    0    0 -0.15562869776E+03 -0.91726818269E+02  0.23637124156E+03  0.29749867998E+03  0.00000000000E+00 0.  1.
         11    1    1    2    0    0 -0.28184462870E+02 -0.17479818500E+01  0.13014528575E+03  0.13317362649E+03  0.00000000000E+00 0. -1.
</event>
<event>
 7    1  0.2601031E-009  0.1693785E+03  0.7561462E-02  0.1178497E+00
          1   -1    0    0  501    0  0.00000000000E+00  0.00000000000E+00  0.65137342028E+03  0.65137342028E+03  0.00000000000E+00 0. -1.
         -1   -1    0    0    0  501 -0.00000000000E+00 -0.00000000000E+00 -0.76497918401E+02  0.76497918401E+02  0.00000000000E+00 0.  1.
         25    2    1    2    0    0 -0.86595091215E+01 -0.16706113164E+03  0.46047803928E+03  0.50564021068E+03  0.12509032413E+03 0.  0.
          5    1    3    3  502    0  0.12910223855E+02 -0.63547865823E+02  0.33616369079E+03  0.34238648416E+03  0.41800000000E+01 0. -1.
         -5    1    3    3    0  502 -0.21569732977E+02 -0.10351326582E+03  0.12431434850E+03  0.16325372652E+03  0.41800000000E+01 0. -1.
        -11    1    1    2    0    0 -0.30720063465E+01  0.10065286238E+02 -0.15083193814E+02  0.18391572681E+02  0.00000000000E+00 0.  1.
         11    1    1    2    0    0  0.11731515468E+02  0.15699584540E+03  0.12948065641E+03  0.20383955532E+03  0.00000000000E+00 0. -1.
</event>
<event>
 7    1  0.2601031E-009  0.8809948E+02  0.7561462E-02  0.1307520E+00
         -1   -1    0    0    0  501 -0.00000000000E+00  0.00000000000E+00  0.22261897044E+03  0.22261897044E+03  0.00000000000E+00 0.  1.
          1   -1    0    0  501    0  0.00000000000E+00 -0.00000000000E+00 -0.29737757467E+03  0.29737757467E+03  0.00000000000E+00 0. -1.
         25    2    1    2    0    0 -0.13264229316E+02 -0.53193451983E+01  0.19681056929E+03  0.23363732077E+03  0.12509101590E+03 0.  0.
          5    1    3    3  502    0  0.77323966937E+01 -0.42330316353E+02  0.18398799624E+03  0.18899920847E+03  0.41800000000E+01 0. -1.
         -5    1    3    3    0  502 -0.20996626009E+02  0.37010971155E+02  0.12822573045E+02  0.44638112294E+02  0.41800000000E+01 0. -1.
        -11    1    1    2    0    0 -0.37363468876E+02 -0.72124746308E+01 -0.98215060934E+02  0.10532923047E+03  0.00000000000E+00 0. -1.
         11    1    1    2    0    0  0.50627698192E+02  0.12531819829E+02 -0.17335411258E+03  0.18102999387E+03  0.00000000000E+00 0.  1.
</event>
<event>
 7    1  0.2601031E-009  0.1249879E+03  0.7561462E-02  0.1235088E+00
         -2   -1    0    0    0  501 -0.00000000000E+00  0.00000000000E+00  0.24079616526E+03  0.24079616526E+03  0.00000000000E+00 0.  1.
          2   -1    0    0  501    0  0.00000000000E+00 -0.00000000000E+00 -0.10634623196E+03  0.10634623196E+03  0.00000000000E+00 0. -1.
         25    2    1    2    0    0  0.67090014547E+02 -0.56609058022E+02  0.15678639492E+03  0.21894242087E+03  0.12509258381E+03 0.  0.
          5    1    3    3  502    0  0.57785716333E+02  0.26952540134E+02  0.95121152189E+02  0.11459116207E+03  0.41800000000E+01 0. -1.
         -5    1    3    3    0  502  0.93042982139E+01 -0.83561598156E+02  0.61665242731E+02  0.10435125880E+03  0.41800000000E+01 0. -1.
        -11    1    1    2    0    0 -0.49922443902E+02  0.82764216861E+01 -0.48959127678E+02  0.70411261486E+02  0.00000000000E+00 0. -1.
         11    1    1    2    0    0 -0.17167570645E+02  0.48332636336E+02  0.26622666061E+02  0.57788714861E+02  0.00000000000E+00 0.  1.
</event>
<event>
 7    1  0.2601031E-009  0.1138103E+03  0.7561462E-02  0.1253672E+00
          2   -1    0    0  501    0  0.00000000000E+00  0.00000000000E+00  0.65073001681E+02  0.65073001681E+02  0.00000000000E+00 0. -1.
         -2   -1    0    0    0  501 -0.00000000000E+00 -0.00000000000E+00 -0.33656853766E+03  0.33656853766E+03  0.00000000000E+00 0.  1.
         25    2    1    2    0    0  0.59771484954E+02 -0.59669858911E+02 -0.71793103611E+02  0.16713634574E+03  0.12508871198E+03 0.  0.
          5    1    3    3  502    0 -0.25341673523E+02 -0.43907799434E+02 -0.61583981189E+02  0.79875868741E+02  0.41800000000E+01 0.  1.
         -5    1    3    3    0  502  0.85113158477E+02 -0.15762059477E+02 -0.10209122422E+02  0.87260476996E+02  0.41800000000E+01 0.  1.
        -11    1    1    2    0    0 -0.71186608505E+01  0.27460171103E+02 -0.15677718073E+03  0.15932300753E+03  0.00000000000E+00 0.  1.
         11    1    1    2    0    0 -0.52652824104E+02  0.32209687807E+02 -0.42925251628E+02  0.75182186069E+02  0.00000000000E+00 0. -1.
</event>
<event>
 7    1  0.2601031E-009  0.1030488E+03  0.7561462E-02  0.1274012E+00
         -1   -1    0    0    0  501 -0.00000000000E+00  0.00000000000E+00  0.20203153987E+02  0.20203153987E+02  0.00000000000E+00 0.  1.
          1   -1    0    0  501    0  0.00000000000E+00 -0.00000000000E+00 -0.11165768878E+04  0.11165768878E+04  0.00000000000E+00 0. -1.
         25    2    1    2    0    0  0.15481730043E+02 -0.10676197678E+02 -0.98314230068E+03  0.99124650852E+03  0.12508873698E+03 0.  0.
          5    1    3    3  502    0  0.28639973358E+02 -0.58509826085E+02 -0.75067013575E+03  0.75350300127E+03  0.41800000000E+01 0. -1.
         -5    1    3    3    0  502 -0.13158243314E+02  0.47833628407E+02 -0.23247216493E+03  0.23774350725E+03  0.41800000000E+01 0. -1.
        -11    1    1    2    0    0 -0.51572182920E+02 -0.47386656947E+01 -0.71015256469E+02  0.87893752082E+02  0.00000000000E+00 0. -1.
         11    1    1    2    0    0  0.36090452877E+02  0.15414863373E+02 -0.42216176649E+02  0.57639781163E+02  0.00000000000E+00 0.  1.
</event>
<event>
 7    1  0.2601031E-009  0.1444449E+03  0.7561462E-02  0.1207470E+00
         -2   -1    0    0    0  501 -0.00000000000E+00  0.00000000000E+00  0.27409704005E+02  0.27409704005E+02  0.00000000000E+00 0.  1.
          2   -1    0    0  501    0  0.00000000000E+00 -0.00000000000E+00 -0.10442247477E+04  0.10442247477E+04  0.00000000000E+00 0. -1.
         25    2    1    2    0    0 -0.34342939513E+02 -0.12153140360E+03 -0.50131282705E+03  0.53189297304E+03  0.12508502968E+03 0.  0.
          5    1    3    3  502    0  0.13126647214E+02 -0.25664883284E+02 -0.12851935107E+02  0.31837709357E+02  0.41800000000E+01 0.  1.
         -5    1    3    3    0  502 -0.47469586727E+02 -0.95866520321E+02 -0.48846089194E+03  0.50005526369E+03  0.41800000000E+01 0.  1.
        -11    1    1    2    0    0  0.57600498597E+02  0.46124530701E+02 -0.33004542501E+03  0.33819413410E+03  0.00000000000E+00 0.  1.
         11    1    1    2    0    0 -0.23257559084E+02  0.75406872904E+02 -0.18545679162E+03  0.20154734454E+03  0.00000000000E+00 0. -1.
</event>
<event>
 7    1  0.2601031E-009  0.1765827E+03  0.7561462E-02  0.1171152E+00
          2   -1    0    0  501    0  0.00000000000E+00  0.00000000000E+00  0.27609628786E+03  0.27609628786E+03  0.00000000000E+00 0. -1.
         -2   -1    0    0    0  501 -0.00000000000E+00 -0.00000000000E+00 -0.23716815260E+03  0.23716815260E+03  0.00000000000E+00 0.  1.
         25    2    1    2    0    0  0.37578990183E+02  0.17164961176E+03 -0.13025733253E+03  0.25197265136E+03  0.12508986623E+03 0.  0.
          5    1    3    3  502    0  0.16013972136E+02  0.92742449386E+02 -0.14077848453E+03  0.16939204033E+03  0.41800000000E+01 0.  1.
         -5    1    3    3    0  502  0.21565018047E+02  0.78907162379E+02  0.10521152003E+02  0.82580611026E+02  0.41800000000E+01 0.  1.
        -11    1    1    2    0    0 -0.61164968658E+01 -0.78348780129E+02  0.17598480601E+02  0.80533529670E+02  0.00000000000E+00 0.  1.
         11    1    1    2    0    0 -0.31462493317E+02 -0.93300831636E+02  0.15158698719E+03  0.18075825944E+03  0.00000000000E+00 0. -1.
</event>
<event>
 7    1  0.2601031E-009  0.1183289E+03  0.7561462E-02  0.1245880E+00
          2   -1    0    0  501    0  0.00000000000E+00  0.00000000000E+00  0.21927704963E+02  0.21927704963E+02  0.00000000000E+00 0. -1.
         -2   -1    0    0    0  501 -0.00000000000E+00 -0.00000000000E+00 -0.67971466432E+03  0.67971466432E+03  0.00000000000E+00 0.  1.
         25    2    1    2    0    0  0.36221684514E+02 -0.31892030107E+02 -0.45555493191E+03  0.47487659176E+03  0.12509344269E+03 0.  0.
          5    1    3    3  502    0  0.59417576708E+02  0.30827119832E+02 -0.23074414822E+03  0.24029376621E+03  0.41800000000E+01 0. -1.
         -5    1    3    3    0  502 -0.23195892194E+02 -0.62719149939E+02 -0.22481078368E+03  0.23458282555E+03  0.41800000000E+01 0. -1.
        -11    1    1    2    0    0 -0.59967917368E+02 -0.33841247675E+01 -0.11935479186E+03  0.13361575414E+03  0.00000000000E+00 0. -1.
         11    1    1    2    0    0  0.23746232853E+02  0.35276154875E+02 -0.82877235587E+02  0.93150023381E+02  0.00000000000E+00 0.  1.
</event>
<event>
 7    1  0.2601031E-009  0.9659532E+02  0.7561462E-02  0.1287623E+00
          1   -1    0    0  501    0  0.00000000000E+00  0.00000000000E+00  0.29076608256E+03  0.29076608256E+03  0.00000000000E+00 0. -1.
         -1   -1    0    0    0  501 -0.00000000000E+00 -0.00000000000E+00 -0.56923697385E+02  0.56923697385E+02  0.00000000000E+00 0.  1.
         25    2    1    2    0    0  0.41995515122E+02 -0.35954921988E+02  0.84363723549E+02  0.16068954121E+03  0.12509001198E+03 0.  0.
          5    1    3    3  502    0  0.37602004231E+02  0.43112855359E+02  0.32345923203E+02  0.65851045301E+02  0.41800000000E+01 0. -1.
         -5    1    3    3    0  502  0.43935108912E+01 -0.79067777347E+02  0.52017800346E+02  0.94838495904E+02  0.41800000000E+01 0. -1.
        -11    1    1    2    0    0 -0.25558580449E+02  0.14115159150E+02 -0.54305248556E+01  0.29697968829E+02  0.00000000000E+00 0.  1.
         11    1    1    2    0    0 -0.16436934673E+02  0.21839762838E+02  0.15490918648E+03  0.15730226991E+03  0.00000000000E+00 0. -1.
</event>
<event>
 7    1  0.2601031E-009  0.1238858E+03  0.7561462E-02  0.1236821E+00
         -2   -1    0    0    0  501 -0.00000000000E+00  0.00000000000E+00  0.12118810178E+03  0.12118810178E+03  0.00000000000E+00 0.  1.
          2   -1    0    0  501    0  0.00000000000E+00 -0.00000000000E+00 -0.15055152079E+03  0.15055152079E+03  0.00000000000E+00 0. -1.
         25    2    1    2    0    0  0.50388998071E+02  0.55292548244E+02 -0.48658821690E+02  0.15365786860E+03  0.12508694031E+03 0.  0.
          5    1    3    3  502    0  0.71430416209E+02  0.75238646867E+02 -0.62574460139E+02  0.12122785902E+03  0.41800000000E+01 0. -1.
         -5    1    3    3    0  502 -0.21041418138E+02 -0.19946098623E+02  0.13915638449E+02  0.32430009574E+02  0.41800000000E+01 0. -1.
        -11    1    1    2    0    0 -0.58303192872E+02  0.49262876628E+00  0.20273751295E+02  0.61729490309E+02  0.00000000000E+00 0. -1.
         11    1    1    2    0    0  0.79141948015E+01 -0.55785177010E+02 -0.97834861935E+00  0.56352263658E+02  0.00000000000E+00 0.  1.
</event>
<event>
 7    1  0.2601031E-009  0.1441450E+03  0.7561462E-02  0.1207858E+00
         -1   -1    0    0    0  501 -0.00000000000E+00  0.00000000000E+00  0.57136503592E+02  0.57136503592E+02  0.00000000000E+00 0.  1.
          1   -1    0    0  501    0  0.00000000000E+00 -0.00000000000E+00 -0.58884074003E+03  0.58884074003E+03  0.00000000000E+00 0. -1.
         25    2    1    2    0    0  0.50549890402E+02  0.94134618772E+02 -0.45939419357E+03  0.48796218833E+03  0.12508978488E+03 0.  0.
          5    1    3    3  502    0  0.76772191066E+02  0.10111755801E+03 -0.42701756144E+03  0.44551116713E+03  0.41800000000E+01 0. -1.
         -5    1    3    3    0  502 -0.26222300664E+02 -0.69829392423E+01 -0.32376632126E+02  0.42451021194E+02  0.41800000000E+01 0. -1.
        -11    1    1    2    0    0 -0.28976485045E+02 -0.10551004490E+03 -0.37810541669E+02  0.11576546688E+03  0.00000000000E+00 0.  1.
         11    1    1    2    0    0 -0.21573405358E+02  0.11375426127E+02 -0.34499501198E+02  0.42249588414E+02  0.00000000000E+00 0. -1.
</event>
<event>
 7    1  0.2601031E-009  0.8566477E+02  0.7561462E-02  0.1313703E+00
         -3   -1    0    0    0  501 -0.00000000000E+00  0.00000000000E+00  0.13303317867E+02  0.13303317867E+02  0.00000000000E+00 0.  1.
          3   -1    0    0  501    0  0.00000000000E+00 -0.00000000000E+00 -0.14590086166E+04  0.14590086166E+04  0.00000000000E+00 0. -1.
         25    2    1    2    0    0 -0.17989892261E+02 -0.48113618946E+02 -0.11654896943E+04  0.11733082242E+04  0.12508958796E+03 0.  0.
          5    1    3    3  502    0  0.23483406609E+01 -0.59616059889E+02 -0.11233671257E+04  0.11249581151E+04  0.41800000000E+01 0. -1.
         -5    1    3    3    0  502 -0.20338232922E+02  0.11502440943E+02 -0.42122568608E+02  0.48350109123E+02  0.41800000000E+01 0. -1.
        -11    1    1    2    0    0 -0.20584394945E+02  0.44513552596E+02 -0.71375127516E+02  0.86600129953E+02  0.00000000000E+00 0.  1.
         11    1    1    2    0    0  0.38574287206E+02  0.36000663499E+01 -0.20884047699E+03  0.21240358034E+03  0.00000000000E+00 0. -1.
</event>
<event>
 7    1  0.2601031E-009  0.9206882E+02  0.7561462E-02  0.1297918E+00
         -2   -1    0    0    0  501 -0.00000000000E+00  0.00000000000E+00  0.23747572948E+03  0.23747572948E+03  0.00000000000E+00 0.  1.
          2   -1    0    0  501    0  0.00000000000E+00 -0.00000000000E+00 -0.67231574427E+02  0.67231574427E+02  0.00000000000E+00 0. -1.
         25    2    1    2    0    0 -0.18509081191E+01 -0.64786094963E+02  0.91944128584E+02  0.16823116707E+03  0.12508932341E+03 0.  0.
          5    1    3    3  502    0  0.80698188342E+01 -0.60723666331E+02 -0.12914211041E+02  0.62743405036E+02  0.41800000000E+01 0. -1.
         -5    1    3    3    0  502 -0.99207269533E+01 -0.40624286321E+01  0.10485833963E+03  0.10548776203E+03  0.41800000000E+01 0. -1.
        -11    1    1    2    0    0  0.46117071476E+02  0.34566036961E+02  0.47307082046E+02  0.74562424882E+02  0.00000000000E+00 0.  1.
         11    1    1    2    0    0 -0.44266163357E+02  0.30220058002E+02  0.30992944419E+02  0.61913711952E+02  0.00000000000E+00 0. -1.
</event>
<event>
 7    1  0.2601031E-009  0.1945726E+03  0.7561462E-02  0.1154401E+00
          2   -1    0    0  501    0  0.00000000000E+00  0.00000000000E+00  0.45366493261E+03  0.45366493261E+03  0.00000000000E+00 0. -1.
         -2   -1    0    0    0  501 -0.00000000000E+00 -0.00000000000E+00 -0.99446408062E+02  0.99446408062E+02  0.00000000000E+00 0.  1.
         25    2    1    2    0    0  0.11604815754E+03  0.13740043764E+03  0.14321165661E+03  0.26173023301E+03  0.12508829342E+03 0.  0.
          5    1    3    3  502    0  0.64198414944E+02  0.12662364277E+03  0.15183824810E+03  0.20791178268E+03  0.41800000000E+01 0.  1.
         -5    1    3    3    0  502  0.51849742598E+02  0.10776794867E+02 -0.86265914946E+01  0.53818450330E+02  0.41800000000E+01 0.  1.
        -11    1    1    2    0    0  0.56658157591E+01 -0.33461672960E+02  0.71156128540E+02  0.78835142255E+02  0.00000000000E+00 0. -1.
         11    1    1    2    0    0 -0.12171397330E+03 -0.10393876468E+03  0.13985073940E+03  0.21254596540E+03  0.00000000000E+00 0.  1.
</event>
<event>
 7    1  0.2601031E-009  0.8525546E+02  0.7561462E-02  0.1314766E+00
          1   -1    0    0  501    0  0.00000000000E+00  0.00000000000E+00  0.40861594427E+02  0.40861594427E+02  0.00000000000E+00 0. -1.
         -1   -1    0    0    0  501 -0.00000000000E+00 -0.00000000000E+00 -0.32061079345E+03  0.32061079345E+03  0.00000000000E+00 0.  1.
         25    2    1    2    0    0 -0.15174114766E+02  0.39195070591E+01 -0.21040728393E+03  0.24528460076E+03  0.12509074284E+03 0.  0.
          5    1    3    3  502    0  0.42349937079E+02 -0.34902819215E+02 -0.74484382490E+02  0.92612739915E+02  0.41800000000E+01 0. -1.
         -5    1    3    3    0  502 -0.57524051845E+02  0.38822326274E+02 -0.13592290144E+03  0.15267186085E+03  0.41800000000E+01 0. -1.
        -11    1    1    2    0    0  0.21722923813E+02 -0.19409376917E+02 -0.87033000702E+02  0.91778824041E+02  0.00000000000E+00 0.  1.
         11    1    1    2    0    0 -0.65488090466E+01  0.15489869858E+02  0.17691085611E+02  0.24408963072E+02  0.00000000000E+00 0. -1.
</event>
<event>
 7    1  0.2601031E-009  0.1296997E+03  0.7561462E-02  0.1227902E+00
         -2   -1    0    0    0  501 -0.00000000000E+00  0.00000000000E+00  0.25392587188E+02  0.25392587188E+02  0.00000000000E+00 0. -1.
          2   -1    0    0  501    0  0.00000000000E+00 -0.00000000000E+00 -0.78788357771E+03  0.78788357771E+03  0.00000000000E+00 0.  1.
         25    2    1    2    0    0  0.64489626814E+02 -0.63602083815E+02 -0.38623843130E+03  0.41597112574E+03  0.12509082542E+03 0.  0.
          5    1    3    3  502    0 -0.24853151082E+02 -0.23429942937E+02 -0.22231588342E+03  0.22496325426E+03  0.41800000000E+01 0.  1.
         -5    1    3    3    0  502  0.89342777896E+02 -0.40172140878E+02 -0.16392254788E+03  0.19100787148E+03  0.41800000000E+01 0.  1.
        -11    1    1    2    0    0 -0.19183655818E+02 -0.22547510337E+02 -0.10607579528E+03  0.11012936583E+03  0.00000000000E+00 0.  1.
         11    1    1    2    0    0 -0.45305970995E+02  0.86149594152E+02 -0.27017676394E+03  0.28717567333E+03  0.00000000000E+00 0. -1.
</event>
<event>
 7    1  0.3320405E-009  0.1100478E+03  0.7561462E-02  0.1260481E+00
         -1   -1    0    0    0  501 -0.00000000000E+00  0.00000000000E+00  0.40846101397E+02  0.40846101397E+02  0.00000000000E+00 0.  1.
          1   -1    0    0  501    0  0.00000000000E+00 -0.00000000000E+00 -0.45394028858E+03  0.45394028858E+03  0.00000000000E+00 0. -1.
         25    2    1    2    0    0  0.28034630128E+02 -0.73354164342E+02 -0.27440977310E+03  0.31163232217E+03  0.12508879540E+03 0.  0.
          5    1    3    3  502    0  0.44940900743E+02  0.14469054680E+02 -0.44945087992E+02  0.65318997524E+02  0.41800000000E+01 0. -1.
         -5    1    3    3    0  502 -0.16906270615E+02 -0.87823219022E+02 -0.22946468511E+03  0.24631332464E+03  0.41800000000E+01 0. -1.
        -11    1    1    2    0    0 -0.25739339925E+02  0.29094770004E+02 -0.13760126846E+01  0.38870460150E+02  0.00000000000E+00 0.  1.
         11    1    1    2    0    0 -0.22952902021E+01  0.44259394338E+02 -0.13730840140E+03  0.14428360766E+03  0.00000000000E+00 0. -1.
</event>
<event>
 7    1  0.2776313E-009  0.1265757E+03  0.7561462E-02  0.1232627E+00
          1   -1    0    0  501    0  0.00000000000E+00  0.00000000000E+00  0.56251651690E+03  0.56251651690E+03  0.00000000000E+00 0. -1.
         -1   -1    0    0    0  501 -0.00000000000E+00 -0.00000000000E+00 -0.29860000661E+02  0.29860000661E+02  0.00000000000E+00 0.  1.
         25    2    1    2    0    0 -0.56434103376E+02  0.40066479845E+02  0.25962295279E+03  0.29638109243E+03  0.12509014151E+03 0.  0.
          5    1    3    3  502    0 -0.74117470931E+02  0.72581408096E+02  0.16820302093E+03  0.19766433404E+03  0.41800000000E+01 0. -1.
         -5    1    3    3    0  502  0.17683367555E+02 -0.32514928251E+02  0.91419931854E+02  0.98716758393E+02  0.41800000000E+01 0. -1.
        -11    1    1    2    0    0  0.19854267475E+02  0.28285076691E+02  0.59276154936E+02  0.68614138808E+02  0.00000000000E+00 0.  1.
         11    1    1    2    0    0  0.36579835901E+02 -0.68351556536E+02  0.21375740851E+03  0.22738128632E+03  0.00000000000E+00 0. -1.
</event>
<event>
 7    1  0.2601031E-009  0.1055064E+03  0.7561462E-02  0.1269125E+00
         -1   -1    0    0    0  501 -0.00000000000E+00  0.00000000000E+00  0.26374207601E+03  0.26374207601E+03  0.00000000000E+00 0.  1.
          1   -1    0    0  501    0  0.00000000000E+00 -0.00000000000E+00 -0.55296621627E+02  0.55296621627E+02  0.00000000000E+00 0. -1.
         25    2    1    2    0    0 -0.10636238167E+02 -0.30897618309E+02  0.17033744226E+03  0.21384590860E+03  0.12508971185E+03 0.  0.
          5    1    3    3  502    0 -0.47664163592E+02  0.18334235646E+02  0.27316345881E+02  0.58066098887E+02  0.41800000000E+01 0. -1.
         -5    1    3    3    0  502  0.37027925425E+02 -0.49231853955E+02  0.14302109637E+03  0.15577980971E+03  0.41800000000E+01 0. -1.
        -11    1    1    2    0    0 -0.51594884457E+01 -0.32390933139E+02  0.11795855285E+02  0.34855918759E+02  0.00000000000E+00 0.  1.
         11    1    1    2    0    0  0.15795726613E+02  0.63288551448E+02  0.26312156848E+02  0.70336870286E+02  0.00000000000E+00 0. -1.
</event>
<event>
 7    1  0.2601031E-009  0.1361757E+03  0.7561462E-02  0.1218569E+00
         -2   -1    0    0    0  501 -0.00000000000E+00  0.00000000000E+00  0.75690504197E+02  0.75690504197E+02  0.00000000000E+00 0.  1.
          2   -1    0    0  501    0  0.00000000000E+00 -0.00000000000E+00 -0.32958100015E+03  0.32958100015E+03  0.00000000000E+00 0. -1.
         25    2    1    2    0    0  0.66818236171E+00  0.92267962783E+02 -0.49892008048E+02  0.16325015700E+03  0.12509027888E+03 0.  0.
          5    1    3    3  502    0  0.34453739251E+02 -0.89935739089E+01 -0.43299282489E+02  0.56216054505E+02  0.41800000000E+01 0.  1.
         -5    1    3    3    0  502 -0.33785556889E+02  0.10126153669E+03 -0.65927255592E+01  0.10703410250E+03  0.41800000000E+01 0.  1.
        -11    1    1    2    0    0  0.37447452721E+02 -0.82072826885E+02 -0.15189492115E+03  0.17666444945E+03  0.00000000000E+00 0.  1.
         11    1    1    2    0    0 -0.38115635083E+02 -0.10195135898E+02 -0.52103566756E+02  0.65356897894E+02  0.00000000000E+00 0. -1.
</event>
<event>
 7    1  0.2601031E-009  0.1212986E+03  0.7561462E-02  0.1240970E+00
          2   -1    0    0  501    0  0.00000000000E+00  0.00000000000E+00  0.10293167664E+04  0.10293167664E+04  0.00000000000E+00 0.  1.
         -2   -1    0    0    0  501 -0.00000000000E+00 -0.00000000000E+00 -0.20719518034E+02  0.20719518034E+02  0.00000000000E+00 0. -1.
         25    2    1    2    0    0 -0.31283388780E+02 -0.48905954151E+02  0.82602184064E+03  0.83745388200E+03  0.12508589245E+03 0.  0.
          5    1    3    3  502    0  0.29288570441E+02 -0.68072486822E+02  0.43990610732E+03  0.44612390597E+03  0.41800000000E+01 0. -1.
         -5    1    3    3    0  502 -0.60571959221E+02  0.19166532671E+02  0.38611573332E+03  0.39132997603E+03  0.41800000000E+01 0. -1.
        -11    1    1    2    0    0  0.12720487062E+02  0.73106031481E+02  0.15325780560E+03  0.17027700258E+03  0.00000000000E+00 0.  1.
         11    1    1    2    0    0  0.18562901718E+02 -0.24200077329E+02  0.29317602125E+02  0.42305399860E+02  0.00000000000E+00 0. -1.
</event>
<event>
 7    1  0.2838103E-009  0.1022316E+03  0.7561462E-02  0.1275672E+00
         -1   -1    0    0    0  501 -0.00000000000E+00  0.00000000000E+00  0.17324826746E+03  0.17324826746E+03  0.00000000000E+00 0.  1.
          1   -1    0    0  501    0  0.00000000000E+00 -0.00000000000E+00 -0.13355054250E+03  0.13355054250E+03  0.00000000000E+00 0. -1.
         25    2    1    2    0    0 -0.42159718965E+02  0.73213857516E+02  0.86318387083E+02  0.17388175142E+03  0.12508512579E+03 0.  0.
          5    1    3    3  502    0  0.21449888855E+02  0.19165615065E+02 -0.22439403984E+02  0.36720808595E+02  0.41800000000E+01 0.  1.
         -5    1    3    3    0  502 -0.63609607820E+02  0.54048242451E+02  0.10875779107E+03  0.13716094283E+03  0.41800000000E+01 0.  1.
        -11    1    1    2    0    0  0.37966676270E+02 -0.29959759591E+02  0.20846654019E+02  0.52665346154E+02  0.00000000000E+00 0.  1.
         11    1    1    2    0    0  0.41930426944E+01 -0.43254097925E+02 -0.67467316139E+02  0.80251712389E+02  0.00000000000E+00 0. -1.
</event>
<event>
 7    1  0.2601031E-009  0.9948834E+02  0.7561462E-02  0.1281376E+00
          1   -1    0    0  501    0  0.00000000000E+00  0.00000000000E+00  0.26264797156E+03  0.26264797156E+03  0.00000000000E+00 0. -1.
         -1   -1    0    0    0  501 -0.00000000000E+00 -0.00000000000E+00 -0.49948148852E+02  0.49948148852E+02  0.00000000000E+00 0.  1.
         25    2    1    2    0    0  0.23401621076E+01  0.28300825757E+01  0.11043555727E+03  0.16690744813E+03  0.12509435721E+03 0.  0.
          5    1    3    3  502    0  0.76670604807E+01  0.58585155718E+02  0.88751986564E+02  0.10670235145E+03  0.41800000000E+01 0.  1.
         -5    1    3    3    0  502 -0.53268983730E+01 -0.55755073142E+02  0.21683570710E+02  0.60205096679E+02  0.41800000000E+01 0.  1.
        -11    1    1    2    0    0 -0.31158223707E+02  0.27632269417E+02  0.94188092284E+02  0.10298433835E+03  0.00000000000E+00 0. -1.
         11    1    1    2    0    0  0.28818061599E+02 -0.30462351993E+02  0.80761731494E+01  0.42704333925E+02  0.00000000000E+00 0.  1.
</event>
<event>
 7    1  0.2601031E-009  0.1694784E+03  0.7561462E-02  0.1178393E+00
          1   -1    0    0  501    0  0.00000000000E+00  0.00000000000E+00  0.92761255559E+03  0.92761255559E+03  0.00000000000E+00 0. -1.
         -1   -1    0    0    0  501 -0.00000000000E+00 -0.00000000000E+00 -0.47196435435E+02  0.47196435435E+02  0.00000000000E+00 0.  1.
         25    2    1    2    0    0 -0.12357196973E+02  0.15389883846E+03  0.25010331877E+03  0.31942706454E+03  0.12507768268E+03 0.  0.
          5    1    3    3  502    0 -0.26818334935E+02  0.83523267304E+02  0.22770586308E+03  0.24405489495E+03  0.41800000000E+01 0.  1.
         -5    1    3    3    0  502  0.14461137962E+02  0.70375571160E+02  0.22397455693E+02  0.75372169590E+02  0.41800000000E+01 0.  1.
        -11    1    1    2    0    0 -0.35626389488E+02 -0.30973587619E+02  0.14829570839E+03  0.15562846746E+03  0.00000000000E+00 0.  1.
         11    1    1    2    0    0  0.47983586461E+02 -0.12292525084E+03  0.48201709300E+03  0.49975345902E+03  0.00000000000E+00 0. -1.
</event>
<event>
 7    1  0.2601031E-009  0.1335186E+03  0.7561462E-02  0.1222326E+00
          2   -1    0    0  501    0  0.00000000000E+00  0.00000000000E+00  0.86005731026E+03  0.86005731026E+03  0.00000000000E+00 0.  1.
         -2   -1    0    0    0  501 -0.00000000000E+00 -0.00000000000E+00 -0.35439456166E+02  0.35439456166E+02  0.00000000000E+00 0. -1.
         25    2    1    2    0    0  0.18748292108E+02  0.11539015077E+03  0.25661331667E+03  0.30848792709E+03  0.12509205217E+03 0.  0.
          5    1    3    3  502    0  0.30355580828E+02  0.48998205560E+02  0.18038744529E+02  0.60540516513E+02  0.41800000000E+01 0. -1.
         -5    1    3    3    0  502 -0.11607288720E+02  0.66391945214E+02  0.23857457214E+03  0.24794741058E+03  0.41800000000E+01 0. -1.
        -11    1    1    2    0    0  0.27323383934E+02 -0.14788715359E+02  0.65895736986E+02  0.72852738895E+02  0.00000000000E+00 0. -1.
         11    1    1    2    0    0 -0.46071676042E+02 -0.10060143541E+03  0.50210880044E+03  0.51415610044E+03  0.00000000000E+00 0.  1.
</event>
<event>
 7    1  0.2601031E-009  0.1673687E+03  0.7561462E-02  0.1180620E+00
         -2   -1    0    0    0  501 -0.00000000000E+00  0.00000000000E+00  0.18993761467E+03  0.18993761467E+03  0.00000000000E+00 0. -1.
          2   -1    0    0  501    0  0.00000000000E+00 -0.00000000000E+00 -0.14982335766E+03  0.14982335766E+03  0.00000000000E+00 0.  1.
         25    2    1    2    0    0 -0.65110382468E+02 -0.10995192838E+03  0.15911107692E+02  0.17951844880E+03  0.12507966122E+03 0.  0.
          5    1    3    3  502    0 -0.98765926815E+02 -0.10168446995E+03  0.16928705848E+01  0.14182657698E+03  0.41800000000E+01 0.  1.
         -5    1    3    3    0  502  0.33655544347E+02 -0.82674584330E+01  0.14218237108E+02  0.37691871811E+02  0.41800000000E+01 0.  1.
        -11    1    1    2    0    0 -0.90338644919E+00 -0.15885990363E+02 -0.91336958103E+00  0.15937849318E+02  0.00000000000E+00 0.  1.
         11    1    1    2    0    0  0.66013768918E+02  0.12583791874E+03  0.25116518895E+02  0.14430467422E+03  0.00000000000E+00 0. -1.
</event>
<event>
 7    1  0.2601031E-009  0.1055581E+03  0.7561462E-02  0.1269024E+00
          2   -1    0    0  501    0  0.00000000000E+00  0.00000000000E+00  0.17626262348E+03  0.17626262348E+03  0.00000000000E+00 0. -1.
         -2   -1    0    0    0  501 -0.00000000000E+00 -0.00000000000E+00 -0.92122899265E+02  0.92122899265E+02  0.00000000000E+00 0.  1.
         25    2    1    2    0    0 -0.27069595888E+02 -0.49731496363E+02  0.12598088077E+02  0.13787347666E+03  0.12507757190E+03 0.  0.
          5    1    3    3  502    0 -0.61365183676E+02  0.36531742941E+01 -0.22068533640E+02  0.65448636556E+02  0.41800000000E+01 0.  1.
         -5    1    3    3    0  502  0.34295587788E+02 -0.53384670657E+02  0.34666621717E+02  0.72424840105E+02  0.41800000000E+01 0.  1.
        -11    1    1    2    0    0  0.48291202802E+02  0.29485900464E+02  0.81780829066E+02  0.99446279955E+02  0.00000000000E+00 0. -1.
         11    1    1    2    0    0 -0.21221606914E+02  0.20245595899E+02 -0.10239192929E+02  0.31065766129E+02  0.00000000000E+00 0.  1.
</event>
<event>
 7    1  0.2601031E-009  0.1023411E+03  0.7561462E-02  0.1275449E+00
          1   -1    0    0  501    0  0.00000000000E+00  0.00000000000E+00  0.12990548472E+04  0.12990548472E+04  0.00000000000E+00 0. -1.
         -1   -1    0    0    0  501 -0.00000000000E+00 -0.00000000000E+00 -0.12189076385E+02  0.12189076385E+02  0.00000000000E+00 0.  1.
         25    2    1    2    0    0 -0.15029977252E+02  0.44697887983E+02  0.10555629887E+04  0.10639946543E+04  0.12509036679E+03 0.  0.
          5    1    3    3  502    0  0.41335201352E+02  0.50650429946E+02  0.77312237009E+03  0.77589286404E+03  0.41800000000E+01 0. -1.
         -5    1    3    3    0  502 -0.56365178604E+02 -0.59525419635E+01  0.28244061859E+03  0.28810179025E+03  0.41800000000E+01 0. -1.
        -11    1    1    2    0    0  0.35868053080E+02 -0.49331502625E+02  0.20191886830E+03  0.21092971284E+03  0.00000000000E+00 0. -1.
         11    1    1    2    0    0 -0.20838075827E+02  0.46336146419E+01  0.29383913787E+02  0.36319556416E+02  0.00000000000E+00 0.  1.
</event>
<event>
 7    1  0.2601031E-009  0.1491431E+03  0.7561462E-02  0.1201530E+00
         -4   -1    0    0    0  501 -0.00000000000E+00  0.00000000000E+00  0.14195741683E+03  0.14195741683E+03  0.00000000000E+00 0.  1.
          4   -1    0    0  501    0  0.00000000000E+00 -0.00000000000E+00 -0.27067801139E+03  0.27067801139E+03  0.00000000000E+00 0. -1.
         25    2    1    2    0    0  0.12178622825E+03  0.25009388906E+02  0.42788267827E+02  0.18148076716E+03  0.12508828108E+03 0.  0.
          5    1    3    3  502    0  0.94402175741E+02 -0.25935867492E+02 -0.15560129387E+02  0.99217085392E+02  0.41800000000E+01 0.  1.
         -5    1    3    3    0  502  0.27384052506E+02  0.50945256398E+02  0.58348397213E+02  0.82263681771E+02  0.41800000000E+01 0.  1.
        -11    1    1    2    0    0 -0.20777095592E+02  0.22549416826E+02 -0.55857037818E+01  0.31166712806E+02  0.00000000000E+00 0.  1.
         11    1    1    2    0    0 -0.10100913266E+03 -0.47558805732E+02 -0.16592315861E+03  0.19998794825E+03  0.00000000000E+00 0. -1.
</event>
<event>
 7    1  0.2601031E-009  0.1453748E+03  0.7561462E-02  0.1206274E+00
          2   -1    0    0  501    0  0.00000000000E+00  0.00000000000E+00  0.31206695361E+03  0.31206695361E+03  0.00000000000E+00 0. -1.
         -2   -1    0    0    0  501 -0.00000000000E+00 -0.00000000000E+00 -0.79134201230E+02  0.79134201230E+02  0.00000000000E+00 0.  1.
         25    2    1    2    0    0  0.10061299197E+03  0.24361704968E+02  0.75389051202E+02  0.17902320388E+03  0.12509728880E+03 0.  0.
          5    1    3    3  502    0  0.57215737999E+01  0.60356595860E+02  0.26576522294E+02  0.66328267034E+02  0.41800000000E+01 0.  1.
         -5    1    3    3    0  502  0.94891418171E+02 -0.35994890892E+02  0.48812528909E+02  0.11269493685E+03  0.41800000000E+01 0.  1.
        -11    1    1    2    0    0 -0.33189163851E+02  0.27691486720E+02  0.14311938638E+02  0.45532083430E+02  0.00000000000E+00 0.  1.
         11    1    1    2    0    0 -0.67423828120E+02 -0.52053191688E+02  0.14323176254E+03  0.16664586752E+03  0.00000000000E+00 0. -1.
</event>
<event>
 7    1  0.2601031E-009  0.2017357E+03  0.7561462E-02  0.1148283E+00
         -3   -1    0    0    0  501 -0.00000000000E+00  0.00000000000E+00  0.71777651936E+02  0.71777651936E+02  0.00000000000E+00 0.  1.
          3   -1    0    0  501    0  0.00000000000E+00 -0.00000000000E+00 -0.62697522549E+03  0.62697522549E+03  0.00000000000E+00 0. -1.
         25    2    1    2    0    0  0.56374544303E+01 -0.17221154031E+03 -0.18952572699E+03  0.28506028588E+03  0.12510303708E+03 0.  0.
          5    1    3    3  502    0 -0.48998502074E+02 -0.13668134873E+03 -0.14958372030E+03  0.20850756839E+03  0.41800000000E+01 0. -1.
         -5    1    3    3    0  502  0.54635956504E+02 -0.35530191579E+02 -0.39942006691E+02  0.76552717491E+02  0.41800000000E+01 0. -1.
        -11    1    1    2    0    0  0.38234813413E+02  0.49232908211E+02 -0.10393240725E+03  0.12119292671E+03  0.00000000000E+00 0.  1.
         11    1    1    2    0    0 -0.43872267843E+02  0.12297863210E+03 -0.26173943932E+03  0.29249966484E+03  0.00000000000E+00 0. -1.
</event>
